
     Program PWSCF v.6.7MaX starts on 20Dec2022 at 15:43:17 

     This program is part of the open-source Quantum ESPRESSO suite
     for quantum simulation of materials; please cite
         "P. Giannozzi et al., J. Phys.:Condens. Matter 21 395502 (2009);
         "P. Giannozzi et al., J. Phys.:Condens. Matter 29 465901 (2017);
          URL http://www.quantum-espresso.org", 
     in publications or presentations arising from this work. More details at
     http://www.quantum-espresso.org/quote

     Parallel version (MPI), running on     1 processors

     MPI processes distributed on     1 nodes
     Reading input from c-ensemble.in
Warning: card &CELL ignored
Warning: card / ignored

     Current dimensions of program PWSCF are:
     Max number of different atomic species (ntypx) = 10
     Max number of k-points (npk) =  40000
     Max angular momentum in pseudopotentials (lmaxx) =  3
     file Pt.pbe-n-kjpaw_psl.1.0.0.UPF: wavefunction(s)  6S 5D renormalized
     file C.pbe-n-kjpaw_psl.1.0.0.UPF: wavefunction(s)  2S 2P renormalized

     **************************************************************************
     Initializing libbeef V0.1.2 with the BEEF-vdW functional.
     Citation: Wellendorff et al., PRB 85, 235149 (2012).
     **************************************************************************


     IMPORTANT: XC functional enforced from input :
     Exchange-correlation= BEEF-VDW
                           (   1   4  43  14   2   0   0)
     Any further DFT definition will be discarded
     Please, verify this is what you really want


     Subspace diagonalization in iterative solution of the eigenvalue problem:
     a serial algorithm will be used

 
     G-vector sticks info
     --------------------
     sticks:   dense  smooth     PW     G-vecs:    dense   smooth      PW
     Sum        4267    4267   1159               653637   653637   92021
 


     bravais-lattice index     =            0
     lattice parameter (alat)  =      16.0349  a.u.
     unit-cell volume          =   10405.9029 (a.u.)^3
     number of atoms/cell      =           37
     number of atomic types    =            2
     number of electrons       =       364.00
     number of Kohn-Sham states=          218
     kinetic-energy cutoff     =      60.0000  Ry
     charge density cutoff     =     240.0000  Ry
     scf convergence threshold =      1.0E-06
     mixing beta               =       0.7000
     number of iterations used =            8  local-TF  mixing
     Exchange-correlation= BEEF-VDW
                           (   1   4  43  14   2   0   0)

     celldm(1)=  16.034858  celldm(2)=   0.000000  celldm(3)=   0.000000
     celldm(4)=   0.000000  celldm(5)=   0.000000  celldm(6)=   0.000000

     crystal axes: (cart. coord. in units of alat)
               a(1) = (   1.000000   0.000000   0.000000 )  
               a(2) = (   0.500000   0.866025   0.000000 )  
               a(3) = (   0.000000   0.000000   2.914431 )  

     reciprocal axes: (cart. coord. in units 2 pi/alat)
               b(1) = (  1.000000 -0.577350  0.000000 )  
               b(2) = (  0.000000  1.154701  0.000000 )  
               b(3) = (  0.000000  0.000000  0.343120 )  


     PseudoPot. # 1 for Pt read from file:
     /users/bkreitz1/quantum-espresso/potentials/Pt.pbe-n-kjpaw_psl.1.0.0.UPF
     MD5 check sum: 04dc8a03c51ece93fc7b5889c2958091
     Pseudo is Projector augmented-wave + core cor, Zval = 10.0
     Generated using 'atomic' code by A. Dal Corso  v.6.7MaX
     Shape of augmentation charge: PSQ
     Using radial grid of 1277 points,  6 beta functions with: 
                l(1) =   0
                l(2) =   0
                l(3) =   1
                l(4) =   1
                l(5) =   2
                l(6) =   2
     Q(r) pseudized with 0 coefficients 


     PseudoPot. # 2 for C  read from file:
     /users/bkreitz1/quantum-espresso/potentials/C.pbe-n-kjpaw_psl.1.0.0.UPF
     MD5 check sum: a169b0ebad56f5ec0d79c4633f80bf22
     Pseudo is Projector augmented-wave + core cor, Zval =  4.0
     Generated using 'atomic' code by A. Dal Corso  v.6.7MaX
     Shape of augmentation charge: PSQ
     Using radial grid of 1073 points,  4 beta functions with: 
                l(1) =   0
                l(2) =   0
                l(3) =   1
                l(4) =   1
     Q(r) pseudized with 0 coefficients 


     atomic species   valence    mass     pseudopotential
        Pt            10.00   195.08400     Pt( 1.00)
        C              4.00    12.01100     C ( 1.00)

     No symmetry found



   Cartesian axes

     site n.     atom                  positions (alat units)
         1           Pt  tau(   1) = (   0.0000000   0.0000000   1.0017346  )
         2           Pt  tau(   2) = (   0.3333333   0.0000000   1.0017346  )
         3           Pt  tau(   3) = (   0.6666667   0.0000000   1.0017346  )
         4           Pt  tau(   4) = (   0.1666667   0.2886751   1.0017346  )
         5           Pt  tau(   5) = (   0.5000000   0.2886751   1.0017346  )
         6           Pt  tau(   6) = (   0.8333333   0.2886751   1.0017346  )
         7           Pt  tau(   7) = (   0.3333333   0.5773503   1.0017346  )
         8           Pt  tau(   8) = (   0.6666667   0.5773503   1.0017346  )
         9           Pt  tau(   9) = (   1.0000000   0.5773503   1.0017346  )
        10           Pt  tau(  10) = (   0.1666667   0.0962250   1.2739001  )
        11           Pt  tau(  11) = (   0.5000000   0.0962250   1.2739001  )
        12           Pt  tau(  12) = (   0.8333333   0.0962250   1.2739001  )
        13           Pt  tau(  13) = (   0.3333333   0.3849002   1.2739001  )
        14           Pt  tau(  14) = (   0.6666667   0.3849002   1.2739001  )
        15           Pt  tau(  15) = (   1.0000000   0.3849002   1.2739001  )
        16           Pt  tau(  16) = (   0.5000000   0.6735753   1.2739001  )
        17           Pt  tau(  17) = (   0.8333333   0.6735753   1.2739001  )
        18           Pt  tau(  18) = (   1.1666667   0.6735753   1.2739001  )
        19           Pt  tau(  19) = (  -0.0000685   0.1923876   1.5414590  )
        20           Pt  tau(  20) = (   0.3344847   0.1918140   1.5465189  )
        21           Pt  tau(  21) = (   0.6653817   0.1918045   1.5464523  )
        22           Pt  tau(  22) = (   0.1667154   0.4812683   1.5414473  )
        23           Pt  tau(  23) = (   0.4999575   0.4791298   1.5452434  )
        24           Pt  tau(  24) = (   0.8331420   0.4812677   1.5414064  )
        25           Pt  tau(  25) = (   0.3315431   0.7708580   1.5452648  )
        26           Pt  tau(  26) = (   0.6683913   0.7708674   1.5452486  )
        27           Pt  tau(  27) = (   0.9999432   0.7712851   1.5464319  )
        28           Pt  tau(  28) = (  -0.0001033   0.0008282   1.8164812  )
        29           Pt  tau(  29) = (   0.3206001  -0.0071861   1.8340943  )
        30           Pt  tau(  30) = (   0.6791561  -0.0071533   1.8340432  )
        31           Pt  tau(  31) = (   0.1632183   0.2907482   1.8151750  )
        32           Pt  tau(  32) = (   0.4999047   0.3034305   1.8341074  )
        33           Pt  tau(  33) = (   0.8365277   0.2907625   1.8151323  )
        34           Pt  tau(  34) = (   0.3326180   0.5771277   1.8164691  )
        35           Pt  tau(  35) = (   0.6671542   0.5771372   1.8164488  )
        36           Pt  tau(  36) = (   0.9998566   0.5736454   1.8151223  )
        37           C   tau(  37) = (   0.4998783   0.0963894   1.9225057  )

     number of k points=    13  Marzari-Vanderbilt smearing, width (Ry)=  0.0200
                       cart. coord. in units 2pi/alat
        k(    1) = (   0.0000000   0.0000000   0.0000000), wk =   0.0800000
        k(    2) = (   0.0000000   0.2309401   0.0000000), wk =   0.1600000
        k(    3) = (   0.0000000   0.4618802   0.0000000), wk =   0.1600000
        k(    4) = (   0.2000000  -0.1154701   0.0000000), wk =   0.1600000
        k(    5) = (   0.2000000   0.1154701   0.0000000), wk =   0.1600000
        k(    6) = (   0.2000000   0.3464102   0.0000000), wk =   0.1600000
        k(    7) = (   0.2000000  -0.5773503   0.0000000), wk =   0.1600000
        k(    8) = (   0.2000000  -0.3464102   0.0000000), wk =   0.1600000
        k(    9) = (   0.4000000  -0.2309401   0.0000000), wk =   0.1600000
        k(   10) = (   0.4000000  -0.0000000   0.0000000), wk =   0.1600000
        k(   11) = (   0.4000000   0.2309401   0.0000000), wk =   0.1600000
        k(   12) = (   0.4000000  -0.6928203   0.0000000), wk =   0.1600000
        k(   13) = (   0.4000000  -0.4618802   0.0000000), wk =   0.1600000

     Dense  grid:   653637 G-vectors     FFT dimensions: (  80,  80, 240)

     Estimated max dynamical RAM per process >       7.75 GB

     Initial potential from superposition of free atoms

     starting charge  363.99385, renormalised to  364.00000

     negative rho (up, down):  1.093E-02 0.000E+00


     %%%%%%%%%%%%%%%%%%%%%%%%%%%%%%%%%%%%%%%%%%%%%%%%%%%%%%%%%%%%%%%%%%%%%%%%
     %                                                                      %
     % You are using vdW-DF, which was implemented by the Thonhauser group. %
     % Please cite the following two papers that made this development      %
     % possible and the two reviews that describe the various versions:     %
     %                                                                      %
     %   T. Thonhauser et al., PRL 115, 136402 (2015).                      %
     %   T. Thonhauser et al., PRB 76, 125112 (2007).                       %
     %   K. Berland et al., Rep. Prog. Phys. 78, 066501 (2015).             %
     %   D.C. Langreth et al., J. Phys.: Condens. Matter 21, 084203 (2009). %
     %                                                                      %
     %                                                                      %
     % If you are calculating the stress with vdW-DF, please also cite:     %
     %                                                                      %
     %   R. Sabatini et al., J. Phys.: Condens. Matter 24, 424209 (2012).   %
     %                                                                      %
     %%%%%%%%%%%%%%%%%%%%%%%%%%%%%%%%%%%%%%%%%%%%%%%%%%%%%%%%%%%%%%%%%%%%%%%%


     Starting wfcs are  328 randomized atomic wfcs
     Checking if some PAW data can be deallocated... 

     total cpu time spent up to now is      274.6 secs

     Self-consistent Calculation

     iteration #  1     ecut=    60.00 Ry     beta= 0.70
     Davidson diagonalization with overlap
     ethr =  1.00E-02,  avg # of iterations =  2.0

     Threshold (ethr) on eigenvalues was too large:
     Diagonalizing with lowered threshold

     Davidson diagonalization with overlap
     ethr =  5.03E-04,  avg # of iterations =  3.8

     negative rho (up, down):  2.132E-02 0.000E+00

     total cpu time spent up to now is     1389.4 secs

     total energy              =  -27772.87646801 Ry
     estimated scf accuracy    <       2.09936119 Ry

     iteration #  2     ecut=    60.00 Ry     beta= 0.70
     Davidson diagonalization with overlap
     ethr =  5.77E-04,  avg # of iterations =  2.0

     negative rho (up, down):  2.068E-02 0.000E+00

     total cpu time spent up to now is     1864.1 secs

     total energy              =  -27773.09046375 Ry
     estimated scf accuracy    <       0.94279344 Ry

     iteration #  3     ecut=    60.00 Ry     beta= 0.70
     Davidson diagonalization with overlap
     ethr =  2.59E-04,  avg # of iterations =  2.0

     negative rho (up, down):  1.868E-02 0.000E+00

     total cpu time spent up to now is     2340.6 secs

     total energy              =  -27773.15811855 Ry
     estimated scf accuracy    <       0.20147458 Ry

     iteration #  4     ecut=    60.00 Ry     beta= 0.70
     Davidson diagonalization with overlap
     ethr =  5.54E-05,  avg # of iterations =  7.7

     negative rho (up, down):  1.526E-02 0.000E+00

     total cpu time spent up to now is     2982.3 secs

     total energy              =  -27773.20074080 Ry
     estimated scf accuracy    <       0.09006877 Ry

     iteration #  5     ecut=    60.00 Ry     beta= 0.70
     Davidson diagonalization with overlap
     ethr =  2.47E-05,  avg # of iterations =  3.3

     negative rho (up, down):  1.272E-02 0.000E+00

     total cpu time spent up to now is     3490.9 secs

     total energy              =  -27773.20801140 Ry
     estimated scf accuracy    <       0.05574534 Ry

     iteration #  6     ecut=    60.00 Ry     beta= 0.70
     Davidson diagonalization with overlap
     ethr =  1.53E-05,  avg # of iterations =  2.0

     negative rho (up, down):  9.945E-03 0.000E+00

     total cpu time spent up to now is     3952.5 secs

     total energy              =  -27773.21028438 Ry
     estimated scf accuracy    <       0.00521557 Ry

     iteration #  7     ecut=    60.00 Ry     beta= 0.70
     Davidson diagonalization with overlap
     c_bands:  1 eigenvalues not converged
     c_bands:  2 eigenvalues not converged
     c_bands:  1 eigenvalues not converged
     c_bands:  2 eigenvalues not converged
     c_bands:  2 eigenvalues not converged
     c_bands:  2 eigenvalues not converged
     c_bands:  1 eigenvalues not converged
     c_bands:  2 eigenvalues not converged
     c_bands:  1 eigenvalues not converged
     c_bands:  2 eigenvalues not converged
     c_bands:  1 eigenvalues not converged
     c_bands:  1 eigenvalues not converged
     c_bands:  1 eigenvalues not converged
     ethr =  1.43E-06,  avg # of iterations = 20.0

     negative rho (up, down):  8.978E-03 0.000E+00

     total cpu time spent up to now is     4896.4 secs

     total energy              =  -27773.21279632 Ry
     estimated scf accuracy    <       0.00186836 Ry

     iteration #  8     ecut=    60.00 Ry     beta= 0.70
     Davidson diagonalization with overlap
     c_bands:  1 eigenvalues not converged
     c_bands:  1 eigenvalues not converged
     c_bands:  1 eigenvalues not converged
     ethr =  5.13E-07,  avg # of iterations = 10.4

     negative rho (up, down):  8.578E-03 0.000E+00

     total cpu time spent up to now is     5468.2 secs

     total energy              =  -27773.21308272 Ry
     estimated scf accuracy    <       0.00020597 Ry

     iteration #  9     ecut=    60.00 Ry     beta= 0.70
     Davidson diagonalization with overlap
     ethr =  5.66E-08,  avg # of iterations =  6.0

     negative rho (up, down):  8.481E-03 0.000E+00

     total cpu time spent up to now is     6218.9 secs

     total energy              =  -27773.21317586 Ry
     estimated scf accuracy    <       0.00011126 Ry

     iteration # 10     ecut=    60.00 Ry     beta= 0.70
     Davidson diagonalization with overlap
     ethr =  3.06E-08,  avg # of iterations =  1.6

     negative rho (up, down):  8.609E-03 0.000E+00

     total cpu time spent up to now is     6666.3 secs

     total energy              =  -27773.21318049 Ry
     estimated scf accuracy    <       0.00006679 Ry

     iteration # 11     ecut=    60.00 Ry     beta= 0.70
     Davidson diagonalization with overlap
     ethr =  1.83E-08,  avg # of iterations =  1.2

     negative rho (up, down):  9.013E-03 0.000E+00

     total cpu time spent up to now is     7095.8 secs

     total energy              =  -27773.21318135 Ry
     estimated scf accuracy    <       0.00003797 Ry

     iteration # 12     ecut=    60.00 Ry     beta= 0.70
     Davidson diagonalization with overlap
     ethr =  1.04E-08,  avg # of iterations =  1.4

     negative rho (up, down):  9.307E-03 0.000E+00

     total cpu time spent up to now is     7530.6 secs

     total energy              =  -27773.21317965 Ry
     estimated scf accuracy    <       0.00002929 Ry

     iteration # 13     ecut=    60.00 Ry     beta= 0.70
     Davidson diagonalization with overlap
     ethr =  8.05E-09,  avg # of iterations =  1.2

     negative rho (up, down):  1.022E-02 0.000E+00

     total cpu time spent up to now is     7956.5 secs

     total energy              =  -27773.21317633 Ry
     estimated scf accuracy    <       0.00001487 Ry

     iteration # 14     ecut=    60.00 Ry     beta= 0.70
     Davidson diagonalization with overlap
     ethr =  4.09E-09,  avg # of iterations =  2.0

     negative rho (up, down):  1.068E-02 0.000E+00

     total cpu time spent up to now is     8417.8 secs

     total energy              =  -27773.21317592 Ry
     estimated scf accuracy    <       0.00000514 Ry

     iteration # 15     ecut=    60.00 Ry     beta= 0.70
     Davidson diagonalization with overlap
     ethr =  1.41E-09,  avg # of iterations =  2.3

     negative rho (up, down):  1.097E-02 0.000E+00

     total cpu time spent up to now is     8907.1 secs

     total energy              =  -27773.21317572 Ry
     estimated scf accuracy    <       0.00000167 Ry

     iteration # 16     ecut=    60.00 Ry     beta= 0.70
     Davidson diagonalization with overlap
     ethr =  4.59E-10,  avg # of iterations =  3.9

     negative rho (up, down):  1.154E-02 0.000E+00

     total cpu time spent up to now is     9466.8 secs

     End of self-consistent calculation

          k = 0.0000 0.0000 0.0000 ( 81703 PWs)   bands (ev):

    -9.8504  -6.4479  -5.1349  -4.4179  -4.4176  -4.1107  -4.0826  -4.0534
    -4.0528  -4.0422  -3.9746  -3.9222  -3.9218  -3.5311  -3.5247  -3.5245
    -3.4749  -3.4435  -3.4434  -3.0899  -3.0897  -3.0774  -3.0487  -2.9015
    -2.9010  -2.8673  -2.8546  -2.8545  -2.7696  -2.7695  -2.7632  -2.6985
    -2.6628  -2.6626  -2.6004  -2.5893  -2.5751  -2.5746  -2.5251  -2.5249
    -2.5207  -2.1594  -2.1591  -2.1589  -2.0415  -1.9977  -1.9976  -1.9722
    -1.9722  -1.9283  -1.8457  -1.8162  -1.8162  -1.7461  -1.7461  -1.6605
    -1.6604  -1.5132  -1.2980  -1.2974  -1.1980  -1.1979  -1.1691  -1.1298
    -1.0606  -1.0604  -1.0540  -0.9966  -0.9831  -0.9830  -0.9808  -0.9499
    -0.9499  -0.9488  -0.9130  -0.9127  -0.8909  -0.8678  -0.8675  -0.8269
    -0.8074  -0.8068  -0.7669  -0.7662  -0.7638  -0.6158  -0.6156  -0.6034
    -0.5885  -0.5728  -0.5727  -0.5265  -0.5258  -0.4788  -0.4775  -0.4614
    -0.4614  -0.3428  -0.3428  -0.2988  -0.2958  -0.2822  -0.2821  -0.2108
    -0.1924  -0.1919  -0.1438  -0.0994  -0.0990  -0.0672   0.2115   0.2116
     0.2663   0.3179   0.3180   0.3573   0.3574   0.3717   0.3771   0.4937
     0.5011   0.5012   0.5563   0.5564   0.5610   0.5851   0.5851   0.6000
     0.6848   0.8158   0.8160   0.8459   0.8476   0.9068   0.9069   0.9742
     1.0733   1.0734   1.0934   1.0936   1.1038   1.1150   1.1479   1.1573
     1.1576   1.2649   1.2650   1.3285   1.3676   1.3678   1.3836   1.4666
     1.4666   1.5329   1.5331   1.5465   1.5521   1.5522   1.5540   1.5746
     1.5856   1.5856   1.6467   1.6467   1.6725   1.6725   1.6767   1.7188
     1.7520   1.7520   1.7656   1.7705   1.7706   1.8306   1.8307   1.8606
     1.9075   1.9075   1.9109   1.9298   1.9302   1.9601   1.9947   1.9948
     2.0275   2.0277   2.0591   2.0631   2.2024   2.2030   2.3097   2.3233
     2.3237   2.3614   2.3616   2.3802   2.6023   2.9971   2.9972   3.0844
     3.2322   3.2327   3.2719   4.2209   4.4945   4.4948   5.4011   5.5524
     5.5530   5.6980   5.9401   5.9404   7.1338   7.1767   7.1771   7.1794
     7.2391   7.3915

          k = 0.0000 0.2309 0.0000 ( 81630 PWs)   bands (ev):

    -9.8419  -6.3066  -5.0195  -4.6450  -4.3934  -4.3157  -4.1022  -4.0414
    -3.9563  -3.8770  -3.8517  -3.7809  -3.7717  -3.6233  -3.5268  -3.4609
    -3.4580  -3.3814  -3.3638  -3.1475  -3.0711  -3.0240  -3.0098  -2.9559
    -2.9297  -2.9010  -2.8605  -2.8367  -2.8312  -2.7671  -2.7610  -2.7225
    -2.7145  -2.6631  -2.6402  -2.5856  -2.5520  -2.4984  -2.4416  -2.4052
    -2.3632  -2.2125  -2.1602  -2.1479  -2.1329  -2.0951  -2.0721  -2.0693
    -2.0228  -1.9676  -1.8558  -1.7916  -1.7789  -1.7065  -1.6766  -1.6734
    -1.6540  -1.5554  -1.4253  -1.3612  -1.3435  -1.3430  -1.2994  -1.2526
    -1.2353  -1.2282  -1.2014  -1.1457  -1.1228  -1.0640  -1.0412  -1.0216
    -0.9923  -0.9842  -0.9324  -0.9154  -0.8772  -0.8449  -0.8182  -0.8012
    -0.7902  -0.7403  -0.7391  -0.7301  -0.6760  -0.6634  -0.6240  -0.6055
    -0.5990  -0.5790  -0.5681  -0.5487  -0.5106  -0.5041  -0.4597  -0.4236
    -0.4201  -0.4005  -0.3963  -0.3609  -0.3570  -0.3293  -0.2866  -0.2436
    -0.2366  -0.1574  -0.1547  -0.1186  -0.0903  -0.0855  -0.0535  -0.0506
     0.0476   0.0572   0.1594   0.2351   0.2689   0.3086   0.3406   0.3486
     0.3863   0.4024   0.4259   0.5123   0.5555   0.6245   0.6301   0.6698
     0.6982   0.7218   0.7446   0.7609   0.7641   0.7872   0.8098   0.9112
     0.9575   0.9690   0.9878   1.0014   1.0533   1.1076   1.1307   1.1313
     1.1690   1.2092   1.2288   1.2579   1.3114   1.3411   1.3494   1.3790
     1.3997   1.4118   1.5013   1.5141   1.5274   1.5477   1.5767   1.6043
     1.6282   1.6828   1.7182   1.7327   1.7529   1.7849   1.8350   1.8375
     1.8775   1.8981   1.9172   1.9226   1.9845   1.9943   1.9946   2.0205
     2.0352   2.0706   2.0767   2.1323   2.1600   2.2130   2.2319   2.2393
     2.2725   2.2849   2.3012   2.3345   2.3491   2.3689   2.4358   2.4567
     2.4912   2.5869   2.6278   2.6350   2.6725   2.9744   2.9840   3.3011
     3.5843   3.6658   3.9164   4.0972   4.5507   4.6657   5.1159   5.3920
     5.5369   5.9310   6.0138   6.2152   6.2806   6.3693   7.0012   7.1729
     7.2858   7.3702

          k = 0.0000 0.4619 0.0000 ( 81686 PWs)   bands (ev):

    -9.8282  -5.9024  -5.2933  -4.7053  -4.3597  -4.3594  -4.1426  -3.9531
    -3.9225  -3.8192  -3.6901  -3.5664  -3.4975  -3.4640  -3.4422  -3.3068
    -3.3051  -3.2724  -3.2310  -3.2164  -3.1443  -3.1002  -3.0901  -3.0750
    -3.0318  -3.0295  -2.9712  -2.9160  -2.8970  -2.8039  -2.7060  -2.6863
    -2.6613  -2.6372  -2.5599  -2.5580  -2.4673  -2.4434  -2.4078  -2.4036
    -2.3454  -2.3299  -2.2188  -2.1379  -2.1230  -2.0734  -2.0656  -1.9827
    -1.9721  -1.9482  -1.9035  -1.8978  -1.8828  -1.8724  -1.7837  -1.7375
    -1.6925  -1.5915  -1.5884  -1.5442  -1.5147  -1.5112  -1.4702  -1.3653
    -1.3448  -1.3132  -1.2684  -1.2328  -1.1982  -1.1742  -1.1623  -1.0831
    -1.0535  -1.0391  -0.9965  -0.9562  -0.9502  -0.9383  -0.8698  -0.8673
    -0.8283  -0.8088  -0.7954  -0.7881  -0.7633  -0.7550  -0.7329  -0.7099
    -0.6752  -0.6489  -0.6008  -0.5995  -0.5665  -0.5616  -0.5385  -0.5042
    -0.4279  -0.4086  -0.3940  -0.3704  -0.3342  -0.3147  -0.2862  -0.2734
    -0.2466  -0.1946  -0.1361  -0.1357  -0.0960  -0.0858  -0.0714   0.0541
     0.0624   0.1087   0.1680   0.2057   0.2161   0.2511   0.2711   0.2785
     0.3239   0.3374   0.3957   0.3966   0.4264   0.4332   0.4443   0.4561
     0.4808   0.5840   0.5978   0.6311   0.6412   0.6722   0.7518   0.8067
     0.8846   0.8908   0.9524   0.9879   0.9999   1.0455   1.0493   1.1721
     1.1770   1.2179   1.2187   1.2334   1.2407   1.2598   1.3176   1.3221
     1.4136   1.4219   1.4501   1.4706   1.5225   1.5271   1.5764   1.5900
     1.6763   1.6943   1.7499   1.7501   1.7944   1.8941   1.8975   1.9175
     1.9320   1.9601   1.9913   2.0445   2.0564   2.0682   2.1079   2.1726
     2.1837   2.2126   2.2252   2.2449   2.2510   2.3031   2.3213   2.4055
     2.4502   2.4967   2.5054   2.5181   2.5857   2.6404   2.7394   2.9601
     2.9727   3.1559   3.3499   3.4970   3.5661   3.7247   3.7765   4.1188
     4.2269   4.3547   4.4042   4.5867   4.7833   4.8689   4.9530   5.0397
     5.1784   5.2981   5.3232   5.8510   5.8558   6.0269   6.2709   6.6599
     6.7254   7.1776

          k = 0.2000-0.1155 0.0000 ( 81630 PWs)   bands (ev):

    -9.8419  -6.3066  -5.0195  -4.6452  -4.3937  -4.3154  -4.1019  -4.0413
    -3.9563  -3.8772  -3.8518  -3.7808  -3.7717  -3.6230  -3.5269  -3.4611
    -3.4581  -3.3815  -3.3639  -3.1475  -3.0711  -3.0241  -3.0095  -2.9558
    -2.9299  -2.9010  -2.8605  -2.8369  -2.8313  -2.7671  -2.7608  -2.7223
    -2.7143  -2.6633  -2.6404  -2.5855  -2.5520  -2.4983  -2.4416  -2.4052
    -2.3628  -2.2124  -2.1603  -2.1479  -2.1326  -2.0951  -2.0720  -2.0694
    -2.0228  -1.9675  -1.8557  -1.7914  -1.7788  -1.7070  -1.6768  -1.6731
    -1.6541  -1.5552  -1.4250  -1.3611  -1.3434  -1.3430  -1.2991  -1.2523
    -1.2359  -1.2282  -1.2015  -1.1459  -1.1225  -1.0640  -1.0412  -1.0213
    -0.9922  -0.9842  -0.9324  -0.9167  -0.8773  -0.8454  -0.8178  -0.8009
    -0.7900  -0.7400  -0.7390  -0.7296  -0.6766  -0.6637  -0.6244  -0.6055
    -0.5990  -0.5787  -0.5680  -0.5487  -0.5108  -0.5043  -0.4595  -0.4239
    -0.4200  -0.4003  -0.3967  -0.3607  -0.3570  -0.3299  -0.2866  -0.2438
    -0.2368  -0.1576  -0.1552  -0.1186  -0.0903  -0.0853  -0.0535  -0.0505
     0.0478   0.0573   0.1597   0.2349   0.2691   0.3088   0.3404   0.3486
     0.3862   0.4023   0.4260   0.5120   0.5554   0.6245   0.6301   0.6696
     0.6982   0.7217   0.7451   0.7614   0.7630   0.7872   0.8098   0.9112
     0.9575   0.9691   0.9878   1.0013   1.0532   1.1075   1.1307   1.1310
     1.1691   1.2090   1.2290   1.2580   1.3115   1.3413   1.3495   1.3792
     1.3997   1.4119   1.5014   1.5142   1.5276   1.5477   1.5768   1.6044
     1.6280   1.6827   1.7181   1.7328   1.7527   1.7848   1.8349   1.8374
     1.8776   1.8980   1.9171   1.9226   1.9846   1.9944   1.9945   2.0205
     2.0354   2.0702   2.0766   2.1321   2.1598   2.2129   2.2315   2.2395
     2.2726   2.2850   2.3014   2.3348   2.3495   2.3693   2.4358   2.4567
     2.4913   2.5869   2.6278   2.6350   2.6727   2.9750   2.9842   3.3012
     3.5840   3.6658   3.9161   4.0975   4.5505   4.6656   5.1156   5.3923
     5.5375   5.9309   6.0136   6.2152   6.2808   6.3690   7.0007   7.1723
     7.2863   7.3710

          k = 0.2000 0.1155 0.0000 ( 81630 PWs)   bands (ev):

    -9.8419  -6.3066  -5.0195  -4.6450  -4.3936  -4.3156  -4.1021  -4.0414
    -3.9563  -3.8771  -3.8517  -3.7809  -3.7717  -3.6232  -3.5269  -3.4609
    -3.4580  -3.3815  -3.3638  -3.1475  -3.0711  -3.0240  -3.0097  -2.9559
    -2.9298  -2.9010  -2.8605  -2.8368  -2.8312  -2.7671  -2.7609  -2.7224
    -2.7144  -2.6632  -2.6403  -2.5856  -2.5520  -2.4983  -2.4416  -2.4052
    -2.3631  -2.2125  -2.1603  -2.1479  -2.1328  -2.0951  -2.0721  -2.0693
    -2.0228  -1.9675  -1.8558  -1.7915  -1.7789  -1.7067  -1.6767  -1.6733
    -1.6541  -1.5553  -1.4252  -1.3612  -1.3435  -1.3430  -1.2993  -1.2525
    -1.2355  -1.2282  -1.2014  -1.1457  -1.1227  -1.0640  -1.0412  -1.0215
    -0.9922  -0.9842  -0.9324  -0.9158  -0.8772  -0.8451  -0.8180  -0.8011
    -0.7901  -0.7402  -0.7390  -0.7299  -0.6762  -0.6635  -0.6241  -0.6055
    -0.5990  -0.5790  -0.5681  -0.5487  -0.5107  -0.5042  -0.4596  -0.4237
    -0.4200  -0.4004  -0.3964  -0.3608  -0.3570  -0.3295  -0.2866  -0.2436
    -0.2367  -0.1575  -0.1549  -0.1186  -0.0903  -0.0855  -0.0535  -0.0505
     0.0477   0.0572   0.1596   0.2350   0.2689   0.3087   0.3405   0.3486
     0.3863   0.4023   0.4259   0.5122   0.5555   0.6245   0.6301   0.6697
     0.6982   0.7218   0.7448   0.7609   0.7639   0.7872   0.8098   0.9112
     0.9575   0.9690   0.9878   1.0014   1.0533   1.1075   1.1307   1.1312
     1.1690   1.2091   1.2289   1.2579   1.3114   1.3412   1.3495   1.3790
     1.3997   1.4118   1.5014   1.5141   1.5275   1.5477   1.5767   1.6043
     1.6281   1.6827   1.7181   1.7327   1.7528   1.7849   1.8349   1.8374
     1.8776   1.8981   1.9172   1.9226   1.9846   1.9942   1.9947   2.0205
     2.0353   2.0704   2.0767   2.1322   2.1599   2.2130   2.2317   2.2394
     2.2725   2.2849   2.3013   2.3346   2.3492   2.3690   2.4358   2.4567
     2.4912   2.5869   2.6278   2.6350   2.6725   2.9746   2.9841   3.3012
     3.5842   3.6658   3.9163   4.0973   4.5506   4.6657   5.1158   5.3921
     5.5371   5.9309   6.0137   6.2151   6.2807   6.3692   7.0010   7.1727
     7.2864   7.3722

          k = 0.2000 0.3464 0.0000 ( 81690 PWs)   bands (ev):

    -9.8308  -6.0327  -4.9346  -4.8554  -4.7098  -4.2420  -4.1764  -3.7622
    -3.7524  -3.7380  -3.6862  -3.6686  -3.6150  -3.5940  -3.5733  -3.5258
    -3.4395  -3.1960  -3.1864  -3.1692  -3.1434  -3.1039  -3.0669  -2.9867
    -2.9611  -2.9142  -2.9037  -2.8500  -2.8252  -2.7983  -2.7871  -2.7313
    -2.7024  -2.6810  -2.6322  -2.6148  -2.5844  -2.5233  -2.4664  -2.3263
    -2.2737  -2.2018  -2.1721  -2.1481  -2.1265  -2.0812  -2.0659  -2.0146
    -2.0021  -1.9282  -1.9141  -1.8659  -1.8334  -1.7971  -1.7151  -1.6884
    -1.6731  -1.5936  -1.5852  -1.5173  -1.4841  -1.4557  -1.4185  -1.3585
    -1.3172  -1.3044  -1.2833  -1.2646  -1.2045  -1.1501  -1.1017  -1.0717
    -1.0649  -1.0436  -1.0362  -0.9551  -0.9380  -0.9097  -0.8655  -0.8460
    -0.8098  -0.7937  -0.7659  -0.7559  -0.7268  -0.7132  -0.6820  -0.6758
    -0.6532  -0.6111  -0.6085  -0.5740  -0.5260  -0.5108  -0.4875  -0.4664
    -0.4542  -0.4164  -0.3854  -0.3540  -0.3450  -0.3350  -0.3285  -0.3041
    -0.2917  -0.2551  -0.2210  -0.1684  -0.1423  -0.1221  -0.0535  -0.0188
    -0.0095   0.0351   0.1328   0.1605   0.2197   0.2422   0.2491   0.2945
     0.3577   0.3719   0.4191   0.4266   0.4542   0.4722   0.5093   0.5432
     0.5580   0.5885   0.6573   0.6872   0.7458   0.7580   0.7812   0.8563
     0.9007   0.9225   0.9430   0.9610   0.9723   1.0251   1.0787   1.1136
     1.1342   1.1624   1.2191   1.2323   1.2866   1.3021   1.3157   1.3436
     1.3553   1.3657   1.3974   1.4073   1.4603   1.5162   1.6036   1.6339
     1.6986   1.7435   1.8082   1.8420   1.8627   1.8934   1.9306   1.9505
     2.0111   2.0253   2.0451   2.0773   2.0814   2.1016   2.1209   2.1284
     2.1624   2.1629   2.2193   2.2371   2.2644   2.2776   2.3186   2.3631
     2.3918   2.4714   2.4821   2.5197   2.5611   2.6153   2.6485   2.6835
     2.7655   2.8131   3.1279   3.3131   3.4753   3.5761   3.5911   3.8490
     3.8645   4.1202   4.3773   4.5551   4.6880   4.8123   4.9749   5.0544
     5.1247   5.7528   5.9122   6.0533   6.1446   6.3045   6.5600   6.7339
     6.8015   6.9103

          k = 0.2000-0.5774 0.0000 ( 81692 PWs)   bands (ev):

    -9.8239  -5.5627  -5.4771  -4.9433  -4.5289  -4.2608  -4.0684  -3.9666
    -3.7337  -3.6494  -3.6171  -3.5279  -3.4655  -3.4445  -3.3844  -3.3469
    -3.2488  -3.2399  -3.2134  -3.2007  -3.1759  -3.1521  -3.0978  -3.0309
    -3.0219  -3.0167  -2.9958  -2.9604  -2.9110  -2.8263  -2.7571  -2.7482
    -2.7189  -2.6806  -2.6165  -2.5716  -2.5418  -2.5135  -2.4055  -2.4024
    -2.3662  -2.2293  -2.1952  -2.1777  -2.1011  -2.0922  -2.0556  -2.0085
    -1.9017  -1.8838  -1.8543  -1.7988  -1.7738  -1.7479  -1.7154  -1.6926
    -1.6862  -1.6363  -1.6188  -1.5862  -1.5318  -1.5249  -1.5011  -1.4628
    -1.4264  -1.3945  -1.3632  -1.2983  -1.2823  -1.2017  -1.1846  -1.1497
    -1.1110  -1.1058  -1.0969  -1.0559  -1.0327  -0.9614  -0.9528  -0.9158
    -0.8948  -0.8697  -0.8517  -0.8059  -0.7677  -0.7294  -0.7242  -0.7032
    -0.6353  -0.6029  -0.5654  -0.5381  -0.5200  -0.5092  -0.4760  -0.4402
    -0.4382  -0.4177  -0.4035  -0.3708  -0.3518  -0.3310  -0.3106  -0.2792
    -0.2758  -0.2562  -0.2490  -0.2182  -0.1941  -0.1701  -0.1661  -0.0498
     0.0090   0.0478   0.0884   0.1618   0.1969   0.2319   0.2631   0.2873
     0.3078   0.3249   0.3442   0.3783   0.3984   0.4181   0.4551   0.4886
     0.5688   0.5990   0.6032   0.6370   0.6785   0.7627   0.7965   0.8228
     0.9030   0.9366   0.9376   0.9534   0.9911   1.0225   1.0371   1.0409
     1.0759   1.1379   1.1412   1.1582   1.1879   1.2423   1.2551   1.3062
     1.3220   1.3930   1.4340   1.4830   1.5301   1.6086   1.6342   1.6951
     1.7029   1.7363   1.7962   1.8559   1.8866   1.8994   1.9331   1.9560
     2.0283   2.0360   2.0746   2.0919   2.1151   2.1502   2.1946   2.2014
     2.2143   2.2341   2.2430   2.2887   2.3061   2.3577   2.3949   2.4448
     2.4787   2.5192   2.5245   2.5623   2.5790   2.6140   2.7545   2.9731
     3.2098   3.5408   3.6660   3.7151   3.8936   3.9477   3.9694   4.1378
     4.2737   4.5064   4.5571   4.7483   4.8130   4.8444   5.1349   5.1997
     5.3940   5.4860   5.5618   5.5900   5.8113   5.9061   6.0879   6.1908
     6.4706   6.7477

          k = 0.2000-0.3464 0.0000 ( 81690 PWs)   bands (ev):

    -9.8308  -6.0327  -4.9347  -4.8554  -4.7098  -4.2420  -4.1764  -3.7624
    -3.7524  -3.7381  -3.6863  -3.6682  -3.6149  -3.5942  -3.5733  -3.5258
    -3.4396  -3.1962  -3.1866  -3.1692  -3.1435  -3.1041  -3.0668  -2.9867
    -2.9612  -2.9140  -2.9037  -2.8497  -2.8251  -2.7983  -2.7867  -2.7312
    -2.7026  -2.6811  -2.6323  -2.6145  -2.5843  -2.5235  -2.4664  -2.3263
    -2.2735  -2.2016  -2.1720  -2.1482  -2.1265  -2.0810  -2.0658  -2.0146
    -2.0022  -1.9279  -1.9141  -1.8660  -1.8334  -1.7971  -1.7150  -1.6886
    -1.6731  -1.5935  -1.5852  -1.5173  -1.4840  -1.4555  -1.4184  -1.3581
    -1.3171  -1.3043  -1.2831  -1.2644  -1.2046  -1.1502  -1.1019  -1.0719
    -1.0651  -1.0438  -1.0363  -0.9552  -0.9381  -0.9100  -0.8657  -0.8461
    -0.8093  -0.7938  -0.7658  -0.7561  -0.7268  -0.7133  -0.6823  -0.6756
    -0.6536  -0.6116  -0.6083  -0.5740  -0.5263  -0.5109  -0.4874  -0.4665
    -0.4541  -0.4163  -0.3855  -0.3540  -0.3451  -0.3350  -0.3285  -0.3038
    -0.2915  -0.2551  -0.2211  -0.1683  -0.1423  -0.1222  -0.0537  -0.0189
    -0.0096   0.0348   0.1327   0.1607   0.2195   0.2422   0.2491   0.2947
     0.3576   0.3719   0.4192   0.4267   0.4541   0.4723   0.5093   0.5431
     0.5579   0.5888   0.6572   0.6871   0.7457   0.7579   0.7811   0.8560
     0.9005   0.9225   0.9429   0.9610   0.9724   1.0250   1.0786   1.1136
     1.1341   1.1625   1.2191   1.2325   1.2868   1.3022   1.3159   1.3437
     1.3554   1.3659   1.3976   1.4073   1.4602   1.5163   1.6036   1.6338
     1.6984   1.7436   1.8084   1.8420   1.8627   1.8934   1.9306   1.9504
     2.0112   2.0255   2.0449   2.0774   2.0813   2.1015   2.1209   2.1283
     2.1623   2.1628   2.2192   2.2372   2.2642   2.2775   2.3186   2.3630
     2.3918   2.4716   2.4824   2.5200   2.5614   2.6156   2.6486   2.6834
     2.7654   2.8130   3.1279   3.3129   3.4754   3.5762   3.5913   3.8494
     3.8646   4.1203   4.3772   4.5551   4.6882   4.8123   4.9748   5.0544
     5.1245   5.7527   5.9124   6.0532   6.1450   6.3042   6.5601   6.7335
     6.8016   6.9101

          k = 0.4000-0.2309 0.0000 ( 81686 PWs)   bands (ev):

    -9.8282  -5.9023  -5.2934  -4.7050  -4.3599  -4.3592  -4.1425  -3.9535
    -3.9226  -3.8195  -3.6900  -3.5665  -3.4973  -3.4639  -3.4424  -3.3069
    -3.3052  -3.2724  -3.2312  -3.2166  -3.1444  -3.1002  -3.0900  -3.0751
    -3.0319  -3.0297  -2.9711  -2.9160  -2.8969  -2.8038  -2.7059  -2.6860
    -2.6609  -2.6367  -2.5597  -2.5578  -2.4670  -2.4432  -2.4076  -2.4038
    -2.3452  -2.3297  -2.2189  -2.1376  -2.1229  -2.0733  -2.0657  -1.9828
    -1.9722  -1.9483  -1.9037  -1.8975  -1.8829  -1.8724  -1.7835  -1.7372
    -1.6925  -1.5914  -1.5883  -1.5439  -1.5140  -1.5108  -1.4702  -1.3649
    -1.3447  -1.3129  -1.2690  -1.2332  -1.1987  -1.1739  -1.1625  -1.0836
    -1.0537  -1.0401  -0.9970  -0.9562  -0.9504  -0.9382  -0.8700  -0.8672
    -0.8282  -0.8085  -0.7951  -0.7879  -0.7638  -0.7550  -0.7334  -0.7097
    -0.6752  -0.6489  -0.6004  -0.5994  -0.5664  -0.5619  -0.5386  -0.5043
    -0.4283  -0.4084  -0.3943  -0.3707  -0.3348  -0.3153  -0.2862  -0.2739
    -0.2473  -0.1950  -0.1361  -0.1358  -0.0959  -0.0860  -0.0713   0.0541
     0.0625   0.1091   0.1680   0.2058   0.2163   0.2513   0.2715   0.2789
     0.3243   0.3373   0.3958   0.3963   0.4264   0.4333   0.4443   0.4558
     0.4807   0.5838   0.5977   0.6312   0.6406   0.6722   0.7518   0.8063
     0.8844   0.8905   0.9526   0.9880   0.9996   1.0458   1.0491   1.1724
     1.1768   1.2178   1.2189   1.2337   1.2409   1.2598   1.3177   1.3222
     1.4138   1.4221   1.4502   1.4706   1.5225   1.5266   1.5764   1.5900
     1.6764   1.6944   1.7499   1.7501   1.7941   1.8941   1.8973   1.9175
     1.9319   1.9600   1.9913   2.0442   2.0564   2.0680   2.1076   2.1727
     2.1835   2.2127   2.2251   2.2452   2.2510   2.3037   2.3218   2.4056
     2.4504   2.4967   2.5058   2.5185   2.5857   2.6404   2.7394   2.9598
     2.9733   3.1559   3.3502   3.4971   3.5661   3.7247   3.7767   4.1187
     4.2275   4.3548   4.4042   4.5872   4.7833   4.8689   4.9531   5.0396
     5.1783   5.2984   5.3232   5.8508   5.8556   6.0277   6.2703   6.6595
     6.7255   7.1805

          k = 0.4000-0.0000 0.0000 ( 81690 PWs)   bands (ev):

    -9.8308  -6.0327  -4.9347  -4.8554  -4.7098  -4.2419  -4.1766  -3.7624
    -3.7524  -3.7381  -3.6863  -3.6680  -3.6149  -3.5942  -3.5733  -3.5259
    -3.4396  -3.1963  -3.1867  -3.1692  -3.1436  -3.1042  -3.0668  -2.9866
    -2.9613  -2.9139  -2.9037  -2.8496  -2.8251  -2.7983  -2.7865  -2.7312
    -2.7027  -2.6811  -2.6323  -2.6145  -2.5843  -2.5235  -2.4663  -2.3263
    -2.2734  -2.2016  -2.1720  -2.1483  -2.1265  -2.0810  -2.0658  -2.0146
    -2.0022  -1.9278  -1.9141  -1.8662  -1.8333  -1.7971  -1.7149  -1.6886
    -1.6731  -1.5935  -1.5852  -1.5174  -1.4840  -1.4554  -1.4183  -1.3580
    -1.3170  -1.3043  -1.2830  -1.2643  -1.2047  -1.1502  -1.1019  -1.0719
    -1.0652  -1.0440  -1.0363  -0.9553  -0.9381  -0.9102  -0.8657  -0.8462
    -0.8091  -0.7938  -0.7658  -0.7561  -0.7268  -0.7134  -0.6824  -0.6754
    -0.6538  -0.6118  -0.6082  -0.5740  -0.5264  -0.5108  -0.4873  -0.4665
    -0.4540  -0.4162  -0.3856  -0.3541  -0.3451  -0.3350  -0.3285  -0.3037
    -0.2914  -0.2551  -0.2211  -0.1683  -0.1423  -0.1222  -0.0537  -0.0190
    -0.0096   0.0346   0.1327   0.1607   0.2194   0.2423   0.2491   0.2947
     0.3576   0.3719   0.4193   0.4267   0.4541   0.4723   0.5092   0.5430
     0.5580   0.5890   0.6572   0.6870   0.7456   0.7579   0.7810   0.8558
     0.9004   0.9225   0.9429   0.9611   0.9724   1.0250   1.0786   1.1136
     1.1340   1.1625   1.2190   1.2325   1.2869   1.3022   1.3159   1.3438
     1.3554   1.3659   1.3977   1.4072   1.4601   1.5163   1.6036   1.6337
     1.6983   1.7437   1.8084   1.8419   1.8627   1.8934   1.9306   1.9504
     2.0112   2.0256   2.0449   2.0774   2.0812   2.1015   2.1210   2.1283
     2.1623   2.1628   2.2192   2.2373   2.2641   2.2775   2.3186   2.3629
     2.3917   2.4717   2.4825   2.5201   2.5616   2.6157   2.6487   2.6834
     2.7654   2.8130   3.1279   3.3128   3.4755   3.5763   3.5914   3.8495
     3.8647   4.1204   4.3771   4.5551   4.6882   4.8123   4.9748   5.0545
     5.1245   5.7527   5.9126   6.0531   6.1453   6.3041   6.5601   6.7334
     6.8015   6.9100

          k = 0.4000 0.2309 0.0000 ( 81686 PWs)   bands (ev):

    -9.8282  -5.9024  -5.2933  -4.7052  -4.3599  -4.3592  -4.1426  -3.9533
    -3.9226  -3.8193  -3.6901  -3.5664  -3.4974  -3.4640  -3.4423  -3.3069
    -3.3051  -3.2724  -3.2311  -3.2165  -3.1443  -3.1002  -3.0901  -3.0750
    -3.0318  -3.0295  -2.9712  -2.9160  -2.8970  -2.8039  -2.7059  -2.6862
    -2.6612  -2.6370  -2.5598  -2.5579  -2.4672  -2.4433  -2.4077  -2.4037
    -2.3453  -2.3299  -2.2189  -2.1378  -2.1230  -2.0734  -2.0656  -1.9827
    -1.9722  -1.9482  -1.9035  -1.8977  -1.8829  -1.8724  -1.7836  -1.7374
    -1.6925  -1.5914  -1.5884  -1.5441  -1.5145  -1.5111  -1.4702  -1.3652
    -1.3448  -1.3131  -1.2686  -1.2329  -1.1984  -1.1741  -1.1624  -1.0832
    -1.0535  -1.0394  -0.9967  -0.9562  -0.9502  -0.9382  -0.8698  -0.8673
    -0.8282  -0.8087  -0.7953  -0.7880  -0.7635  -0.7550  -0.7330  -0.7098
    -0.6753  -0.6488  -0.6007  -0.5994  -0.5665  -0.5617  -0.5385  -0.5042
    -0.4280  -0.4086  -0.3941  -0.3705  -0.3344  -0.3149  -0.2862  -0.2736
    -0.2469  -0.1947  -0.1361  -0.1357  -0.0960  -0.0859  -0.0714   0.0541
     0.0624   0.1088   0.1680   0.2057   0.2162   0.2512   0.2713   0.2786
     0.3240   0.3374   0.3958   0.3965   0.4264   0.4333   0.4443   0.4560
     0.4808   0.5839   0.5978   0.6312   0.6410   0.6722   0.7518   0.8066
     0.8845   0.8907   0.9525   0.9879   0.9998   1.0456   1.0492   1.1722
     1.1770   1.2179   1.2188   1.2335   1.2408   1.2598   1.3176   1.3221
     1.4137   1.4219   1.4501   1.4706   1.5225   1.5269   1.5764   1.5900
     1.6763   1.6943   1.7499   1.7501   1.7943   1.8941   1.8974   1.9175
     1.9320   1.9601   1.9913   2.0444   2.0564   2.0681   2.1078   2.1726
     2.1837   2.2127   2.2252   2.2450   2.2510   2.3033   2.3215   2.4056
     2.4503   2.4967   2.5055   2.5182   2.5857   2.6404   2.7394   2.9599
     2.9729   3.1559   3.3500   3.4970   3.5661   3.7247   3.7766   4.1187
     4.2271   4.3548   4.4042   4.5869   4.7833   4.8689   4.9530   5.0397
     5.1783   5.2982   5.3232   5.8509   5.8557   6.0272   6.2707   6.6597
     6.7254   7.1781

          k = 0.4000-0.6928 0.0000 ( 81692 PWs)   bands (ev):

    -9.8239  -5.5626  -5.4772  -4.9432  -4.5287  -4.2610  -4.0686  -3.9665
    -3.7338  -3.6494  -3.6171  -3.5279  -3.4654  -3.4445  -3.3844  -3.3470
    -3.2489  -3.2399  -3.2134  -3.2007  -3.1760  -3.1520  -3.0979  -3.0309
    -3.0218  -3.0167  -2.9959  -2.9604  -2.9109  -2.8263  -2.7571  -2.7481
    -2.7189  -2.6805  -2.6163  -2.5716  -2.5417  -2.5134  -2.4054  -2.4023
    -2.3662  -2.2292  -2.1953  -2.1777  -2.1010  -2.0921  -2.0557  -2.0084
    -1.9017  -1.8838  -1.8543  -1.7988  -1.7739  -1.7480  -1.7151  -1.6925
    -1.6861  -1.6363  -1.6188  -1.5862  -1.5317  -1.5249  -1.5010  -1.4628
    -1.4262  -1.3946  -1.3631  -1.2982  -1.2823  -1.2018  -1.1846  -1.1499
    -1.1111  -1.1059  -1.0969  -1.0560  -1.0328  -0.9615  -0.9528  -0.9158
    -0.8947  -0.8697  -0.8518  -0.8059  -0.7677  -0.7294  -0.7241  -0.7031
    -0.6355  -0.6028  -0.5653  -0.5380  -0.5200  -0.5093  -0.4760  -0.4403
    -0.4383  -0.4178  -0.4038  -0.3709  -0.3519  -0.3308  -0.3106  -0.2793
    -0.2756  -0.2563  -0.2489  -0.2182  -0.1942  -0.1700  -0.1660  -0.0500
     0.0089   0.0478   0.0883   0.1617   0.1969   0.2321   0.2632   0.2873
     0.3078   0.3248   0.3442   0.3783   0.3984   0.4181   0.4551   0.4887
     0.5687   0.5990   0.6031   0.6369   0.6783   0.7628   0.7964   0.8229
     0.9031   0.9366   0.9377   0.9534   0.9910   1.0224   1.0371   1.0409
     1.0759   1.1379   1.1412   1.1582   1.1880   1.2424   1.2552   1.3061
     1.3220   1.3930   1.4340   1.4829   1.5301   1.6086   1.6342   1.6951
     1.7029   1.7364   1.7961   1.8560   1.8866   1.8994   1.9331   1.9560
     2.0282   2.0360   2.0745   2.0918   2.1151   2.1502   2.1946   2.2014
     2.2144   2.2342   2.2430   2.2886   2.3060   2.3576   2.3949   2.4448
     2.4788   2.5193   2.5246   2.5624   2.5790   2.6141   2.7545   2.9731
     3.2100   3.5408   3.6659   3.7152   3.8936   3.9477   3.9694   4.1378
     4.2739   4.5065   4.5571   4.7483   4.8130   4.8445   5.1349   5.1997
     5.3943   5.4859   5.5620   5.5901   5.8112   5.9060   6.0878   6.1907
     6.4706   6.7470

          k = 0.4000-0.4619 0.0000 ( 81692 PWs)   bands (ev):

    -9.8239  -5.5623  -5.4776  -4.9432  -4.5284  -4.2612  -4.0689  -3.9663
    -3.7340  -3.6495  -3.6170  -3.5277  -3.4654  -3.4445  -3.3844  -3.3471
    -3.2492  -3.2398  -3.2133  -3.2007  -3.1760  -3.1519  -3.0981  -3.0310
    -3.0218  -3.0166  -2.9960  -2.9605  -2.9109  -2.8263  -2.7569  -2.7481
    -2.7188  -2.6806  -2.6161  -2.5715  -2.5416  -2.5132  -2.4054  -2.4021
    -2.3661  -2.2290  -2.1956  -2.1777  -2.1009  -2.0921  -2.0559  -2.0083
    -1.9018  -1.8838  -1.8545  -1.7987  -1.7741  -1.7481  -1.7147  -1.6924
    -1.6858  -1.6362  -1.6188  -1.5862  -1.5316  -1.5248  -1.5010  -1.4628
    -1.4259  -1.3948  -1.3628  -1.2981  -1.2823  -1.2019  -1.1847  -1.1502
    -1.1114  -1.1061  -1.0971  -1.0563  -1.0329  -0.9616  -0.9529  -0.9159
    -0.8947  -0.8697  -0.8519  -0.8059  -0.7675  -0.7295  -0.7241  -0.7030
    -0.6358  -0.6027  -0.5651  -0.5378  -0.5200  -0.5094  -0.4759  -0.4405
    -0.4384  -0.4180  -0.4043  -0.3710  -0.3521  -0.3303  -0.3105  -0.2795
    -0.2752  -0.2565  -0.2487  -0.2183  -0.1943  -0.1699  -0.1659  -0.0502
     0.0089   0.0478   0.0881   0.1617   0.1971   0.2323   0.2634   0.2871
     0.3078   0.3246   0.3441   0.3784   0.3984   0.4182   0.4550   0.4888
     0.5685   0.5989   0.6031   0.6369   0.6780   0.7628   0.7964   0.8231
     0.9032   0.9366   0.9380   0.9534   0.9909   1.0223   1.0371   1.0409
     1.0758   1.1380   1.1412   1.1582   1.1880   1.2425   1.2553   1.3060
     1.3219   1.3929   1.4340   1.4828   1.5299   1.6087   1.6343   1.6953
     1.7029   1.7365   1.7960   1.8562   1.8865   1.8993   1.9330   1.9560
     2.0281   2.0359   2.0744   2.0918   2.1151   2.1501   2.1946   2.2014
     2.2144   2.2344   2.2430   2.2885   2.3058   2.3574   2.3948   2.4449
     2.4790   2.5196   2.5248   2.5627   2.5791   2.6142   2.7544   2.9733
     3.2102   3.5407   3.6659   3.7152   3.8935   3.9476   3.9694   4.1378
     4.2739   4.5066   4.5571   4.7482   4.8132   4.8445   5.1348   5.1998
     5.3951   5.4858   5.5622   5.5902   5.8108   5.9058   6.0877   6.1907
     6.4705   6.7474

     the Fermi energy is     2.2998 ev

!    total energy              =  -27773.21317456 Ry

     total all-electron energy =  -1326717.742693 Ry
     estimated scf accuracy    <       0.00000061 Ry
     smearing contrib. (-TS)   =       0.00370803 Ry
     internal energy E=F+TS    =  -27773.21688259 Ry

     The total energy is F=E-TS. E is the sum of the following terms:
     one-electron contribution =  -22383.70618082 Ry
     hartree contribution      =   11496.99471432 Ry
     xc contribution           =    -894.80210850 Ry
     ewald contribution        =    9488.88387310 Ry
     one-center paw contrib.   =  -25480.58718070 Ry

     convergence has been achieved in  16 iterations

     negative rho (up, down):  1.154E-02 0.000E+00

     Forces acting on atoms (cartesian axes, Ry/au):

     atom    1 type  1   force =     0.00003737   -0.00020722   -0.00420678
     atom    2 type  1   force =    -0.00025282   -0.00019056   -0.00333165
     atom    3 type  1   force =     0.00024941   -0.00016256   -0.00336239
     atom    4 type  1   force =     0.00006169   -0.00002493   -0.00402217
     atom    5 type  1   force =     0.00002797    0.00031597   -0.00330821
     atom    6 type  1   force =    -0.00005921    0.00002665   -0.00400610
     atom    7 type  1   force =     0.00018604    0.00003577   -0.00419705
     atom    8 type  1   force =    -0.00012580    0.00003887   -0.00415774
     atom    9 type  1   force =    -0.00003290    0.00000713   -0.00401860
     atom   10 type  1   force =     0.00057210   -0.00208791    0.00362352
     atom   11 type  1   force =    -0.00006342    0.00004718    0.01207013
     atom   12 type  1   force =    -0.00058150   -0.00205046    0.00359413
     atom   13 type  1   force =     0.00211093    0.00056637    0.00360809
     atom   14 type  1   force =    -0.00211506    0.00061204    0.00353233
     atom   15 type  1   force =    -0.00006190    0.00004950    0.00007909
     atom   16 type  1   force =     0.00004849   -0.00006206   -0.00012393
     atom   17 type  1   force =    -0.00157245    0.00150618    0.00353546
     atom   18 type  1   force =     0.00150052    0.00151747    0.00357567
     atom   19 type  1   force =     0.00003652    0.00022870    0.00029645
     atom   20 type  1   force =    -0.00002002    0.00001283    0.00021286
     atom   21 type  1   force =     0.00007139    0.00005380    0.00029530
     atom   22 type  1   force =    -0.00019025   -0.00017104    0.00030936
     atom   23 type  1   force =    -0.00001274   -0.00025171    0.00054104
     atom   24 type  1   force =     0.00024698   -0.00016031    0.00034264
     atom   25 type  1   force =    -0.00028492    0.00015079    0.00049295
     atom   26 type  1   force =     0.00022011    0.00013632    0.00052399
     atom   27 type  1   force =    -0.00000963   -0.00011926    0.00031926
     atom   28 type  1   force =    -0.00002017   -0.00033613    0.00061328
     atom   29 type  1   force =     0.00191358    0.00114846    0.00100319
     atom   30 type  1   force =    -0.00187255    0.00107948    0.00100317
     atom   31 type  1   force =     0.00003709   -0.00004723   -0.00042799
     atom   32 type  1   force =    -0.00003747   -0.00226276    0.00099166
     atom   33 type  1   force =     0.00000144   -0.00007199   -0.00042578
     atom   34 type  1   force =     0.00026984    0.00018784    0.00061272
     atom   35 type  1   force =    -0.00027614    0.00017210    0.00060711
     atom   36 type  1   force =     0.00004667    0.00002520   -0.00045495
     atom   37 type  2   force =    -0.00004918    0.00028748   -0.00574004

     Total force =     0.007392     Total SCF correction =     0.001560
     SCF correction compared to forces is large: reduce conv_thr to get better values

     negative rho (up, down):  1.154E-02 0.000E+00

     negative rho (up, down):  1.154E-02 0.000E+00

     negative rho (up, down):  1.154E-02 0.000E+00

     negative rho (up, down):  1.154E-02 0.000E+00

     negative rho (up, down):  1.154E-02 0.000E+00

     negative rho (up, down):  1.154E-02 0.000E+00

     negative rho (up, down):  1.154E-02 0.000E+00

     negative rho (up, down):  1.154E-02 0.000E+00

     negative rho (up, down):  1.154E-02 0.000E+00

     negative rho (up, down):  1.154E-02 0.000E+00

     negative rho (up, down):  1.154E-02 0.000E+00

     negative rho (up, down):  1.154E-02 0.000E+00

     negative rho (up, down):  1.154E-02 0.000E+00

     negative rho (up, down):  1.154E-02 0.000E+00

     negative rho (up, down):  1.154E-02 0.000E+00

     negative rho (up, down):  1.154E-02 0.000E+00

     negative rho (up, down):  1.154E-02 0.000E+00

     negative rho (up, down):  1.154E-02 0.000E+00

     negative rho (up, down):  1.154E-02 0.000E+00

     negative rho (up, down):  1.154E-02 0.000E+00

     negative rho (up, down):  1.154E-02 0.000E+00

     negative rho (up, down):  1.154E-02 0.000E+00

     negative rho (up, down):  1.154E-02 0.000E+00

     negative rho (up, down):  1.154E-02 0.000E+00

     negative rho (up, down):  1.154E-02 0.000E+00

     negative rho (up, down):  1.154E-02 0.000E+00

     negative rho (up, down):  1.154E-02 0.000E+00

     negative rho (up, down):  1.154E-02 0.000E+00

     negative rho (up, down):  1.154E-02 0.000E+00

     negative rho (up, down):  1.154E-02 0.000E+00

     negative rho (up, down):  1.154E-02 0.000E+00

     negative rho (up, down):  1.154E-02 0.000E+00

     negative rho (up, down):  1.154E-02 0.000E+00

     negative rho (up, down):  1.154E-02 0.000E+00
 BEEFens 2000 ensemble energies
             -0.597835630147581E+02
             -0.357337871469213E+01
             -0.156578927890563E+02
              0.423319056656666E+02
             -0.218318753977307E+02
             -0.203204756671927E+02
             -0.345749275576067E+02
             -0.851661965933894E+02
             -0.460702827647823E+02
             -0.468153071303304E+02
             -0.364145924929570E+02
              0.216150740358457E+01
              0.400744779241228E+01
              0.770972916885765E+01
              0.260611746417945E+01
              0.468514576449098E+02
             -0.206373118620661E+02
             -0.229292274764191E+02
              0.189719212094255E+02
             -0.110880998891092E+03
              0.528549838359988E+02
             -0.287366387705626E+02
             -0.326437348084406E+01
             -0.113015402466382E+02
             -0.889504623412859E+01
             -0.461237219153489E+01
              0.871000798761713E+02
             -0.183460754134819E+02
             -0.891089904960791E+01
             -0.510687760988427E+02
              0.806829215622811E+02
             -0.187092204221802E+02
             -0.369490925419530E+02
              0.246984264487640E+02
             -0.280634372832145E+01
              0.159806985571499E+02
             -0.490286315426766E+01
              0.108301962896513E+02
              0.282648347804941E+02
             -0.101960450363512E+03
              0.550924739762112E+02
              0.140606853491606E+02
             -0.152672483912994E+01
             -0.357550151959188E+02
              0.121594109780407E+02
             -0.143948678662512E+02
              0.391516993740295E+02
              0.360207187249622E+02
             -0.305895035363568E+02
             -0.270830412151126E+02
             -0.324112359846204E+02
             -0.347006074721291E+02
              0.132932315619150E+02
             -0.483831848151001E+02
              0.113233879182715E+02
              0.614612995294700E+02
              0.624753784798828E+02
              0.351513072105253E+02
              0.152102929398691E+02
              0.265799547469529E+02
              0.879109156966809E+02
              0.210876369475612E+02
             -0.541167066846310E+02
             -0.155980004542001E+02
             -0.231873109389185E+02
              0.621437117046400E+02
             -0.764011938205805E+02
             -0.663691479394275E+02
             -0.254494319852456E+02
             -0.615211109782263E+01
             -0.465958201044994E+02
              0.267013771054359E+02
              0.784582254733755E+01
              0.845916098615692E+01
             -0.391904302756555E+02
             -0.341992601002991E+02
             -0.533703418072536E+02
              0.386457406153554E+02
             -0.291178244711320E+02
              0.260651125673620E+02
             -0.702349277657160E+01
             -0.314382875724139E+02
             -0.569780631979922E+02
             -0.174689451271290E+02
             -0.883017865257989E+01
             -0.122994628283139E+02
              0.406950441866501E+02
              0.671641047464680E+02
             -0.379263892561956E+02
             -0.783890771375169E+02
             -0.217111662526296E+02
              0.110050281951724E+03
             -0.584669154844772E+02
              0.352037266533758E+02
             -0.939443859987614E+01
             -0.655410450790897E+02
              0.250784144791919E+02
              0.394287047155670E+02
             -0.196609591574467E+02
              0.396444655807200E+02
             -0.292814405313609E+02
             -0.469420914468158E+02
              0.851995610721609E+02
              0.447922586471559E+02
              0.333804149956541E+02
              0.144647604040239E+02
              0.202082321000422E+02
              0.845486129390039E+02
             -0.253183978678491E+02
              0.783203035814358E+01
             -0.140548891412137E+03
              0.179125880257474E+02
             -0.707349579860809E+02
              0.149150660100950E+02
              0.201634002461384E+02
             -0.327541586926502E+02
             -0.550572143941904E+02
              0.651946928155905E+01
             -0.299849218617796E+02
              0.301846426790378E+02
             -0.523606667565538E+02
              0.183098398744357E+01
             -0.351788198328856E+02
             -0.418204438440893E+01
             -0.114219294452914E+01
              0.177513138026172E+02
              0.144401043057564E+01
             -0.644799792000867E+01
              0.580970729494979E+02
              0.895665914663188E+02
              0.477345498358173E+02
              0.821952954212090E+02
             -0.113378543707454E+02
              0.141988526003536E+02
              0.534108155527414E+02
             -0.111956297925799E+02
             -0.725289977753931E+02
             -0.377743507207253E+02
             -0.515044243470844E+02
             -0.272698955615648E+02
              0.323669785674892E+02
             -0.115125042490999E+03
             -0.185583495177893E+02
              0.407567467734270E+02
             -0.380845490038812E+02
             -0.361768238988243E+02
              0.535737948140219E+02
              0.394317900440836E+02
             -0.350170900920321E+02
              0.132805803298781E+02
             -0.269656290990446E+02
              0.338065239307140E+02
              0.438159625157255E+01
              0.209882465388499E+02
             -0.873716197749364E+02
             -0.473738030347803E+02
             -0.982447217444269E+01
              0.326748344823314E+01
             -0.360782802296752E+02
              0.104504158011350E+03
             -0.229441464073160E+02
             -0.394931543853660E+02
              0.383728365226964E+02
             -0.488314534517170E+02
             -0.357919282746647E+02
              0.320158605803887E+02
              0.122626780355739E+02
              0.162749425186892E+02
              0.114031849234411E+02
             -0.131378837920134E+02
              0.223966396871735E+02
              0.582375814420319E+02
             -0.308140961980371E+02
              0.159441473149344E+02
              0.922322740221698E+02
              0.336377324030909E+02
             -0.723813984369542E+01
             -0.185542401167926E+02
              0.151221210528943E+03
             -0.160587278894541E+02
              0.357776523033382E+02
              0.190095260552264E+02
              0.358190731977984E+02
              0.879597717356588E+02
              0.536649449007551E+02
             -0.233044295784470E+01
              0.224050348334563E+02
              0.477725181730286E+02
              0.358231833745105E+02
             -0.517160722988208E+02
              0.923149890271403E+02
             -0.814056699911751E+02
             -0.196892469002575E+02
              0.575280584062515E+02
              0.647458830686546E+01
              0.781446833642826E+01
              0.337399483338822E+02
              0.297045103932002E+02
              0.349209092128535E+02
             -0.629180884774398E+02
              0.284607667688977E+01
             -0.294365589630279E+02
             -0.863935930237372E+01
             -0.140704482889623E+01
             -0.703928289863768E+01
             -0.405935496489127E+01
              0.848039292092946E+02
             -0.100369085404928E+02
             -0.272545455695556E+02
             -0.494935265777505E+01
              0.137863328971663E+02
             -0.555231729583439E+02
             -0.399196281669077E+02
             -0.377431062496234E+02
             -0.621663437106856E+02
             -0.167034315999063E+02
             -0.441988018584894E+02
              0.161072383631903E+02
             -0.244907938602316E+01
             -0.102610410786197E+02
             -0.923855824852089E+01
              0.801885805917163E+01
             -0.241490510682323E+02
              0.680291705105993E+02
             -0.795057919426728E+02
             -0.139174065486635E+02
             -0.172303965344731E+02
              0.179913215259479E+02
              0.211010045552543E+02
             -0.456780076414645E+02
             -0.200519556837933E+02
              0.434713514581509E+02
             -0.273534808654205E+02
              0.184904587484579E+02
              0.378400443722764E+02
             -0.321298516701859E+01
              0.112585904747875E+03
             -0.228966340165443E+02
             -0.336576426567773E+02
              0.578357665959567E+01
             -0.224344920827327E+02
              0.519958626112568E+02
             -0.330466281038022E+02
              0.104590712577129E+02
              0.634039204395136E+02
             -0.124608757042398E+02
              0.118626036702791E+03
              0.124127985515985E+03
             -0.640378142218804E+02
              0.582718707678511E+02
              0.163034154007753E+02
             -0.509995661695505E+02
              0.214065770492285E+02
              0.347758755352957E+02
              0.356093542141044E+02
              0.129704819705051E+01
              0.157056671037010E+02
              0.685227737431085E+02
             -0.243746080410129E+02
              0.179900680038112E+02
              0.729942886015175E+02
             -0.367636938415860E+02
             -0.126010499567618E+02
              0.500336558373990E+02
              0.293075999007202E+02
              0.770081368524900E+02
              0.217864560858670E+02
              0.604524090100244E+01
              0.276949304173792E+02
              0.377391579433428E+02
             -0.464058258920924E+02
              0.318303496901029E+01
              0.125620741994904E+02
              0.111937965687862E+02
              0.217106361635159E+02
             -0.566302555646892E+02
              0.361896268878205E+02
             -0.438023266112881E+02
             -0.343084240925811E+02
              0.175070739058597E+02
             -0.180367614833233E+02
              0.546668375515987E+02
             -0.254777455830197E+02
              0.262729756913776E+02
              0.364182119011725E+02
              0.818721763695768E+02
              0.567548583874519E+02
              0.454698393153778E+02
             -0.105877886420591E+02
             -0.374141581101395E+01
             -0.327998123193865E+02
              0.739275793796240E+02
              0.785876262787100E+02
              0.356380170353487E+02
             -0.187991606473238E+02
              0.505183683199090E+02
             -0.163053944093398E+02
              0.212889448119145E+02
              0.604836539775603E+02
              0.216849898898187E+01
             -0.102900848425458E+02
             -0.280503729921929E+02
             -0.502846131086402E+02
              0.932247424113834E+02
              0.432345095119348E+02
             -0.550078123101688E+02
             -0.933025718656532E+01
              0.246581682746499E+02
             -0.984696177742265E+01
              0.582975709284871E+02
              0.150212048991434E+02
              0.788070575166571E+02
              0.275037350282083E+02
             -0.261165033198187E+02
              0.246753073223196E+02
             -0.493017359562759E+01
             -0.320434372813497E+02
              0.131173656106764E+02
              0.203900590421238E+02
              0.920223919495485E+02
              0.786916992810830E+02
              0.543055580094207E+02
              0.721964138268297E+02
              0.791449169102077E+01
             -0.270401843746272E+02
              0.161257942305299E+02
             -0.363540319821879E+02
             -0.468313430285351E+02
             -0.556000274854448E+02
             -0.262226958927068E+02
             -0.108232873034828E+03
             -0.286220871457978E+02
             -0.825285926980191E+02
              0.207048910638594E+02
             -0.470914346975282E+02
              0.389725514252233E+02
             -0.927497301807004E+02
             -0.325999615397095E+02
              0.543619293390314E+02
              0.204752391919195E+02
             -0.818090145270630E+02
              0.624000004397553E+02
             -0.252774551200108E+02
              0.504913750009126E+02
             -0.239232314859343E+02
             -0.740518560687275E+02
              0.109673258830093E+02
             -0.602180274568486E+02
             -0.167938541495617E+02
             -0.144353341533838E+01
              0.412787619215300E+02
              0.125283227685761E+03
             -0.456019503270639E+02
             -0.357579851225200E+02
             -0.894932520237433E+00
             -0.129300803896242E+02
             -0.811610448891968E+02
             -0.589190417339857E+02
              0.510672240650007E+02
             -0.286560541574282E+02
              0.165890932647004E+02
             -0.482680675283372E+02
             -0.129536991019279E+02
             -0.431677875000928E+02
              0.558866769623618E+02
              0.149697126864248E+02
             -0.228291355987604E+02
             -0.124165750384471E+02
              0.648998236707094E+01
             -0.609804654959584E+01
              0.436023256942341E+02
             -0.248533775569001E+02
              0.257732600029499E+01
              0.334609687710619E+02
              0.169780889519615E+02
             -0.156304747133335E+02
              0.154171812293594E+03
              0.529558607739477E+02
              0.102418148763739E+01
              0.160808077966432E+02
             -0.606406108274969E+02
              0.310463090424412E+02
             -0.710957730893355E+02
             -0.247430021287496E+02
             -0.514533314928361E+02
             -0.217483632005190E+02
              0.561056258360981E+02
             -0.529216819056934E+02
              0.157030218817631E+02
             -0.401770176826108E+01
              0.386224427324726E+01
             -0.429580019188511E+02
             -0.472755575193138E+02
             -0.389713869395052E+01
             -0.420903527499857E+02
             -0.214246591258706E+02
             -0.432709841575837E+02
             -0.118614095811436E+02
             -0.354524420019967E+02
             -0.509907960283285E+02
              0.210118569662994E+02
             -0.207715063132155E+02
              0.184571938932142E+02
              0.965197443467416E+01
             -0.727668563646807E+02
             -0.541390239902845E+02
             -0.391099308734019E+02
              0.350002767406966E+02
              0.280456172918923E+01
             -0.618413260955445E+02
              0.577868299682781E+02
             -0.395328671218674E+02
              0.536449673084600E+02
             -0.285195559429563E+02
             -0.439497244869556E+02
              0.295293865605011E+02
             -0.647788974578810E+02
             -0.375651914022003E+02
              0.664983243235491E+02
              0.201182906664723E+02
             -0.353789469950769E+02
              0.481846011924914E+02
             -0.171765292906128E+02
             -0.317694101230348E+02
             -0.297747427444641E+02
             -0.493568260261638E+02
              0.245801466535532E+02
             -0.921253412901295E+02
             -0.829943713823063E+02
             -0.723290027716985E+01
             -0.302925969829093E+02
             -0.567317855206791E+02
              0.711348964509691E+02
              0.129650129051327E+03
             -0.358170621996044E+02
             -0.249203479832738E+01
             -0.629017744336833E+02
              0.641604219724337E+02
              0.167682500060590E+02
             -0.178512046616459E+02
             -0.405191246069076E+02
              0.146695401609934E+02
             -0.578115369557540E+02
             -0.196100473039978E+02
             -0.893092080456303E+02
              0.332130024127007E+02
              0.167681282584651E+02
              0.193118353004650E+01
             -0.687842114800742E+01
             -0.323543417886915E+02
             -0.740252793405148E+01
              0.123645899654127E+03
             -0.197005539220945E+02
             -0.430627250778001E+02
             -0.674432090960907E+02
              0.107299303873770E+02
             -0.336745719071318E+02
              0.575183021721746E+01
              0.256895595730612E+02
              0.101409390545108E+02
              0.272969733348619E+02
              0.117315180217698E+02
              0.621624453217486E+02
              0.313681283585547E+02
             -0.321439845594804E+02
              0.347918911472886E+02
              0.374885468140694E+02
              0.119235653036019E+02
              0.481946775178768E+02
             -0.220158907620304E+02
              0.755920106833615E+02
              0.168647431732531E+02
             -0.267443315349858E+02
             -0.715825118156372E+01
             -0.184069814174554E+02
              0.259899215298147E+02
             -0.231355841854171E+02
              0.577199091464422E-01
             -0.831374254924958E+01
              0.798767522672623E+02
              0.492207767749612E+02
             -0.678743020387968E+02
             -0.463131705914287E+01
             -0.548877486882427E+02
             -0.157941207926557E+02
             -0.265360421465267E+02
              0.359371114249166E+01
              0.616703815829206E+00
             -0.253561462373012E+02
              0.790113076178761E+01
             -0.589895391125243E+01
             -0.127737335388553E+02
              0.847100070277896E+02
              0.179885568474735E+02
             -0.795504395198343E+02
             -0.453318575918995E+02
              0.931629600886390E+02
              0.274464194998579E+02
             -0.105685808561987E+02
              0.103060679176493E+03
             -0.192837791152784E+02
             -0.122091669633024E+02
             -0.522698686969011E+01
              0.105256013255311E+02
              0.267679262979619E+02
              0.776817047243182E+01
              0.301480028438168E+02
             -0.186586133033637E+02
             -0.297968157105430E+02
             -0.412312920183805E+02
             -0.470322025582625E+02
              0.458612935187099E+02
              0.124954360417224E+02
              0.382370165638324E+02
              0.131329564381182E+02
              0.843339289883479E+02
              0.153518928749858E+02
             -0.835397320254895E+02
             -0.330018215964096E+02
              0.133468534725505E+02
             -0.298994741461229E+02
              0.617699826989345E+02
             -0.864238254449947E+01
              0.146480751590030E+02
              0.489560394469559E+02
             -0.696250631614863E+02
              0.147729684668420E+03
              0.206070581349118E+02
              0.268005836396488E+02
              0.342368174413407E+02
              0.103206152110197E+02
             -0.156304058424297E+01
              0.354126949233460E+02
             -0.352214928065703E+02
              0.761281597109740E+02
              0.674435318900568E+02
             -0.400546115129538E+02
              0.147226892389217E+02
              0.660247295919661E+02
             -0.221051129447588E+02
              0.151428027880028E+02
              0.430805742184510E+02
              0.416822073028144E+02
             -0.774548763166574E+02
             -0.151943113956668E+02
             -0.352583247459508E+02
             -0.140337842404961E+01
             -0.755724747750192E+01
             -0.556027926097363E+01
             -0.179292867843061E+02
             -0.289377496838476E+02
              0.610132008057109E+01
              0.110997203855503E+02
              0.528381074110307E+02
             -0.383826354757628E+02
              0.367798768402932E+02
              0.431669244991522E+02
             -0.185499664954333E+02
              0.862030753194764E+02
             -0.688638213906314E+02
             -0.101772971948566E+03
             -0.646523915175463E+01
             -0.260208831617012E+01
              0.388162436847631E+01
              0.778719264568953E+02
             -0.106952000143294E+02
              0.410865320686961E+02
              0.435331496906748E+02
              0.380157985934621E+02
             -0.984772634704029E+01
              0.619789842595892E+02
             -0.131539262682534E+02
             -0.301955810511353E+02
             -0.474786971580501E+02
              0.571905837366641E+01
              0.365061414112542E+02
             -0.599598066720174E+01
              0.388590190319229E+02
             -0.176482352507418E+01
              0.647777256575586E+02
              0.185374684121645E+02
              0.987777538629796E+01
             -0.122027522089052E+02
              0.328235221081235E+02
              0.357158764730116E+02
              0.230777905878876E+02
             -0.469209710396001E+00
             -0.542956215875045E+02
              0.256624673590887E+02
              0.172346294876915E+02
              0.398200568192365E+02
              0.268215246531269E+02
              0.367450625534243E+02
             -0.592352107280141E+01
              0.246141546225416E+02
             -0.294614283134315E+02
             -0.194070967703385E+01
             -0.562147588066212E+02
             -0.303311281273416E+02
              0.372886218244523E+02
             -0.923651887647750E+02
              0.291322894347548E+02
              0.182053221296126E+02
              0.828380292649181E+02
             -0.299085183258165E+02
              0.324807061929068E+02
             -0.136364845936856E+02
             -0.457302571056633E+02
             -0.752899393424482E+02
             -0.504668252431102E+01
             -0.847569127836849E+02
              0.198827867076242E+02
             -0.244515923795588E+02
              0.301276415915553E+02
              0.233510979471944E+02
             -0.237016906932125E+02
             -0.261053295489319E+02
              0.385319207251058E+02
             -0.580163913449607E+02
             -0.114719000246777E+02
             -0.193850343150136E+02
              0.208771819417147E+02
             -0.901044892069098E+01
              0.358370558663594E+01
             -0.198683082488484E+02
              0.551490214290399E+02
             -0.431229874197539E+02
              0.779364979974787E+01
              0.577003815930906E+02
             -0.318138505931771E+02
              0.353500802024496E+01
             -0.886528861048214E+01
             -0.660834499546943E+02
             -0.477704797080517E+02
             -0.860021568298221E+01
              0.236523060164314E+02
              0.297581220777664E+02
              0.852963842109580E+01
             -0.398433238500581E+01
              0.149801105273445E+02
             -0.434664998559080E+02
              0.341469201395734E+01
             -0.523847241278142E+02
             -0.321114546560582E+02
              0.467836562465779E+02
             -0.290968147067591E+02
              0.612783727785583E+02
             -0.211371415551544E+02
              0.349294131204080E+02
              0.238330531029144E+02
             -0.635922190996026E+02
             -0.277149891550029E+02
              0.918151448586133E+01
             -0.365899972029063E+02
             -0.334210944361853E+02
             -0.817870011584509E+02
             -0.531946374308550E+02
             -0.503782126755384E+02
             -0.409323808020362E+02
             -0.979950741357669E+00
              0.963134611978825E+01
              0.869950537726965E+00
              0.149426004417570E+02
             -0.541468614153786E+02
              0.139876747512776E+02
              0.252490970806202E+02
             -0.657473363480140E+02
             -0.694155095888059E+02
             -0.425882610132901E+02
             -0.167335092188561E+02
              0.176724144925051E+02
              0.460154518033880E+01
             -0.420291227115829E+02
              0.362581386918579E+02
             -0.212827696495889E+02
              0.510453184254239E+02
             -0.875143931137372E+02
              0.588815351512361E+02
             -0.195487664550070E+01
             -0.362523651304744E+02
             -0.212795906390880E+02
              0.471323102341890E+01
              0.367882881414879E+02
             -0.746753774025915E+02
             -0.119080126051121E+02
             -0.214367514217182E+02
              0.505551496835888E+02
              0.853739135620656E+02
             -0.951572717551528E+02
              0.931677863966630E+02
              0.462590342135458E+02
             -0.715179651270774E+02
             -0.362344722880038E+02
              0.741111064645931E+02
              0.624380024578935E+02
             -0.178160776428635E+02
             -0.454012225775688E+01
              0.706322899363374E+01
              0.638475567803597E+02
             -0.500263573230812E+02
              0.156778537383246E+02
             -0.461545886093280E+01
              0.344269969889993E+02
             -0.737376141965336E+02
             -0.644860881891960E+01
             -0.347576116644404E+02
              0.453986764417616E+02
              0.463444554188123E+02
             -0.849749850626243E+02
             -0.480690663319897E+02
             -0.253462444926348E+02
             -0.333264129731942E+02
             -0.107734926130092E+02
             -0.240493864312627E+02
              0.421295064293033E+02
              0.395298915648377E+02
             -0.564739382227441E+01
             -0.410148492711088E+02
             -0.838653116411731E+02
              0.436137736381095E+02
             -0.517138524827281E+02
             -0.307688393378377E+02
              0.537295651515200E+01
             -0.317426447283297E+02
             -0.392455332400031E+02
             -0.235914640202613E+02
             -0.378329265228462E+02
             -0.267568388313838E+02
             -0.475794769349049E+02
              0.556608688755291E+02
              0.630251608845023E+02
             -0.155989392065624E+01
             -0.258357347832966E+02
             -0.630309906314892E+01
              0.435309063273489E+02
             -0.856457581475830E+02
             -0.143161590208402E+02
              0.517235306758453E+02
              0.653659309845432E+02
             -0.243197630026367E+02
              0.900338127822818E+01
              0.516235232191696E+02
              0.196011507883712E+02
             -0.831998616864263E+01
             -0.447690879996154E+02
              0.278383071453924E+02
             -0.348140150625459E+02
             -0.163948342032757E+02
             -0.150056233630611E+02
             -0.198328773575889E+02
              0.191557717805334E+02
              0.789584987386599E+02
              0.196085482335175E+01
              0.532751746914337E+01
             -0.875015440251177E+02
             -0.173331771900662E+02
             -0.347939305012177E+02
              0.278224443298484E+01
             -0.403125737964737E+02
              0.718164339039269E+02
              0.773107340327635E+02
              0.121694116522540E+02
             -0.138225765427657E+02
              0.141423609638742E+02
              0.257919858151301E+02
             -0.475562420333466E+02
             -0.860799914205768E+01
              0.135064029761744E+02
              0.162978648075281E+02
              0.556423942475382E+02
              0.416520203509035E+02
             -0.195006011059957E+02
              0.328079583519846E+02
             -0.955077555154310E+02
             -0.541396012658865E+00
              0.835471145109213E+02
              0.890577937156780E+01
              0.145122071046774E+01
              0.331552572690485E+02
             -0.294911228104290E+02
              0.946952318613606E+02
             -0.117833364357617E+02
              0.859357689505748E+02
              0.375025459066622E+02
             -0.386719792068839E+02
              0.310360497929354E+02
             -0.329769999478169E+02
             -0.709016099148857E+02
             -0.643579647140700E+01
             -0.535153786230827E+02
             -0.540943592010796E+02
             -0.679686756644654E+01
              0.290133882025127E+02
             -0.487959287060778E+01
             -0.355837313638229E+02
              0.113425415099156E+02
             -0.729011128357527E+02
             -0.100458030186474E+02
             -0.817704622133837E+02
              0.481981662121919E+02
              0.211102474563145E+01
             -0.477707800379806E+02
             -0.228388553101293E+02
              0.210027354007658E+02
             -0.295917349857288E+02
             -0.449600001311475E+02
              0.895440504153962E+02
             -0.194888373362813E+02
             -0.465591480385126E+02
              0.245520483101189E+02
             -0.102388411456282E+02
              0.478878056557930E+02
             -0.315300812581404E+01
              0.123097738760173E+02
              0.100193709484801E+03
             -0.199121895729633E+02
             -0.333578938195045E+02
             -0.304105701142814E+02
             -0.527496557262938E+02
             -0.320069264024609E+02
              0.226607105394042E+02
              0.202412683661753E+02
              0.183481671641104E+02
              0.731813468842004E+02
              0.147279861787297E+00
              0.177562272832863E+02
             -0.683583461566068E+02
              0.197899601526018E+01
[...]
              0.280488694462364E+02
              0.139967836169755E+03
              0.238001790383961E+02
              0.120121021139665E+02
             -0.458112074395115E+02
             -0.629978338617207E+02
             -0.187158834383221E+02
              0.325449832965675E+02
             -0.419207091617182E+01
              0.186275816421328E+02
              0.331359923082541E+02
             -0.578344966335032E+02
              0.218694710004437E+02
              0.577660363976844E+02
              0.545423496552552E+02
             -0.407158259710286E+01
             -0.145893029813169E+01
             -0.984420860658616E+01
             -0.476414472399481E+02
             -0.665014035453355E+02
              0.775280345309864E+02
             -0.508838817783908E+01
             -0.580580591024473E+02
              0.158544331231849E+01
             -0.201099812258880E+02
              0.926694458327469E+02
             -0.213331194899580E+02
             -0.348318021033076E+02
              0.330006718003691E+02
             -0.143418756469666E+02
              0.383228105410776E+02
             -0.242619872390742E+01
              0.998195205714586E+02
              0.482129528849297E+02
             -0.529013107496345E+01
             -0.316521581406725E+02
              0.228180959235256E+02
             -0.521068661624157E+02
             -0.127324727930655E+02
              0.576983480335766E+02
             -0.284130882743948E+02
             -0.432539400826004E+02
             -0.220014129425862E+02
              0.511729962939373E+02
              0.123279408575441E+02
             -0.837716095392085E+02
              0.299224021118930E+02
              0.151261090267704E+02
              0.560996337603854E+01
             -0.506861182920633E+02
             -0.390185657833410E+01
              0.318505440574740E+02
              0.506651961276459E+02
              0.623358834148262E+02
              0.224194699855544E+02
              0.674658034281521E+00
             -0.490287727801729E+02
             -0.504092022422766E+02
             -0.739182392926905E+02
             -0.594036516822894E+01
              0.304294803824306E+02
             -0.379288110265406E+01
              0.539825118856982E+02
             -0.313494748478081E+02
              0.164263149952531E+02
             -0.993554802409264E+01
             -0.285669629815219E+02
              0.577376543074459E+02
              0.785574209890387E+01
              0.595392078383600E+02
              0.499552943262847E+01
              0.262455037537895E+02
             -0.190380505744102E+02
              0.577856786891675E+02
             -0.108925383548680E+02
             -0.136244750621945E+00
             -0.779332263941920E+02
             -0.127452952560397E+02
              0.709535015417663E+02
              0.664538572204196E+02
              0.248150332148803E+02
             -0.128021140655451E+02
              0.334861224798507E+01
             -0.170137762972550E+02
             -0.176394218579000E+01
              0.895137154356491E+02
              0.113875205722877E+01
             -0.186283573629988E+02
             -0.109299813474822E+03
             -0.547001333863409E+02
             -0.369650004019239E+02
             -0.650134816734580E+02
             -0.547314177034451E+02
             -0.672964334575175E+02
             -0.440853835967935E+02
             -0.407166169378964E+02
             -0.445159321984067E+02
              0.477365816492540E+02
             -0.291988548015178E+02
             -0.984298438812980E+02
              0.413138032375827E+02
             -0.255444128614771E+02
             -0.779965984338410E+02
              0.930069579738809E+02
             -0.216180694402088E+02
              0.226085933663725E+02
              0.449972995273544E+02
             -0.154375894992614E+01
              0.250607124348508E+02
              0.467235412307443E+01
              0.399418030554578E+00
             -0.148720073497892E+02
             -0.705351831390336E+02
              0.131572497508786E+02
             -0.127752746530537E+03
              0.613956843105074E+02
             -0.434973869042588E+02
             -0.160168085490757E+02
             -0.155267622061884E+02
              0.682831330535853E+01
             -0.225621892050593E+02
              0.293297171255082E+02
             -0.512376259038122E+02
              0.362395806152623E+02
              0.364771484337132E+02
              0.167475634547734E+02
              0.991626797738934E+01
              0.194807808500083E+02
              0.605624869989879E+01
              0.306431877850986E+02
             -0.793442551141720E+01
             -0.581547452867381E+02
              0.744691435472458E+01
             -0.148013972606580E+02
             -0.187510394803547E+01
              0.498188050740264E+02
             -0.815941305579228E+02
             -0.153099711807312E+01
              0.515412824342661E+00
              0.982000995678425E+01
              0.314311146268695E+02
             -0.122031315079489E+02
              0.824275367722619E+02
              0.482891862517280E+02
             -0.181208961627089E+02
             -0.946814551313969E+01
              0.959073095942131E+00
              0.758880152820271E+02
             -0.579505889813718E+02
             -0.104371054239669E+03
              0.305165769705123E+02
             -0.161624376125319E+02
             -0.137222374009872E+02
              0.127957132667198E+02
              0.758088539417146E+02
              0.458346630771049E+02
             -0.151264042250477E+02
             -0.495496751629967E+02
             -0.531078738049884E+01
              0.302593389263838E+02
             -0.108982763678175E+02
             -0.745131523057271E+02
             -0.256374936184278E+01
             -0.876289714960855E+02
             -0.468286429028261E+02
              0.756284194701865E+02
             -0.476256698689545E+02
             -0.626450410433096E+02
             -0.507085409863984E+02
             -0.344175581815319E+02
              0.336024998859585E+02
              0.809592585771962E+02
             -0.341498674169003E+01
              0.272936810950901E+02
             -0.180707176419832E+02
             -0.684399883070459E+02
              0.458033615515918E+02
             -0.438123586714136E+02
              0.318447821833949E+02
              0.372222969171834E+02
             -0.631372472305731E+01
              0.385648545627840E+02
              0.433066300729724E+02
              0.989724433168682E+02
             -0.154866972687267E+02
             -0.447918282100219E+02
             -0.603695129653802E+02
             -0.121138837997017E+02
             -0.226896408496856E+02
              0.101747853399459E+03
             -0.442818899926471E+02
              0.103668477710465E+02
              0.970063054838369E+01
             -0.261989751523043E+02
             -0.786478020701450E+02
             -0.689904348375029E+01
              0.965844015310709E+02
              0.905728310702109E+01
              0.798664234799128E+01
             -0.518497474954484E+02
             -0.597783520580033E+02
             -0.537335106234117E+01
              0.494198296926652E+02
             -0.218170909754978E+02
              0.106576148874592E+03
             -0.428636584477394E+02
              0.143562526708036E+02
             -0.222552922275268E+02
             -0.709763955542372E+02
              0.158644459637219E+01
             -0.493847838207673E+02
             -0.750289378911003E+02
              0.597977706187334E+01
              0.235211628532628E+01
              0.507202550247773E+02
              0.183407020306871E+02
             -0.318703255564680E+02
              0.227026602147517E+02
             -0.798263812757438E+02
             -0.515304165011871E+02
              0.888881968892198E+02
              0.141881256849554E+02
             -0.187561490615179E+02
             -0.348890194244080E+02
             -0.267928719281701E+01
             -0.569640904568735E+01
              0.817023539316386E+02
              0.411848135666565E+02
             -0.165060728512013E+02
             -0.122169102186548E+02
             -0.422321319468278E+02
             -0.198892197511263E+02
             -0.661446296968030E+02
              0.452485388916549E+02
              0.537661419307241E+01
              0.143977966046822E+02
              0.153237754487186E+02
             -0.381612201233455E+00
             -0.165215566336899E+02
             -0.324123859151846E+01
             -0.988637877175678E+02
             -0.228324704619748E+02
             -0.750182477808528E+01
             -0.939794722869598E+01
              0.539913239896415E+02
              0.614643750069644E+02
              0.162314524651217E+02
             -0.957526426399970E+02
              0.638747132181250E+02
             -0.211768153539458E+02
             -0.371809049477522E+02
             -0.851938720417607E+02
             -0.383325499210912E+02
              0.555391487154374E+02
              0.239429342470618E+02
              0.491377768599943E+01
              0.287251931345482E+02
             -0.557157608487064E+02
             -0.415231312105608E+02
              0.506644566502114E+02
              0.381416389912615E+02
              0.512416479863310E+02
             -0.136934975896870E+01
              0.669845300201359E+01
              0.562063340898297E+02
              0.948863680492039E+02
             -0.297880579426167E+02
              0.317061662468393E+02
             -0.113973027172699E+02
             -0.405978515195232E+02
             -0.309346898002212E+02
             -0.295267009106619E+02
             -0.129393049606284E+02
             -0.516650146090140E+02
             -0.214749416142200E+02
             -0.139352782901344E+03
              0.364585194634438E+02
              0.202778603771287E+02
             -0.388180891836941E+01
             -0.374819656843108E+02
             -0.201637957304263E+02
             -0.518880202156249E+02
              0.150397628997506E+02
              0.808971728316618E+02
             -0.249569710348673E+02
             -0.160346180818238E+02
              0.235172945134551E+02
             -0.482184106561854E+02
              0.868553820901497E+02
              0.152329561000403E+02
              0.225454410941666E+02
              0.483152612131831E+02
              0.330501803085264E+01
              0.533966875215962E+02
              0.140198961947640E+02
             -0.106397913904891E+02
              0.714111444001395E+01
              0.945269292408284E+00
              0.718139392429530E+02
              0.999574904341563E+01
              0.117425117372823E+02
             -0.128691816224789E+02
              0.130760835045815E+02
             -0.898025211043369E+02
             -0.320984220871138E+02
             -0.450429678664506E+02
              0.478448408303203E+02
             -0.286187594730679E+02
             -0.650787313441812E+02
              0.529918173569673E+02
             -0.120158551627401E+02
              0.434372158142172E+02
             -0.886175132288239E+02
              0.229760838302494E+02
              0.851719335913242E+01
              0.572643783450224E+01
             -0.813286718419556E+01
             -0.892773045784247E+01
              0.472353071316268E+02
              0.195645553555414E+01
             -0.467393292143387E+02
             -0.173068847673287E+02
              0.274036903058374E+02
             -0.116316685987061E+03
             -0.917729315548202E+02
              0.396510541375966E+01
              0.115140469910774E+02
             -0.405989754856366E+02
             -0.390200955028894E+01
              0.110689934270739E+03
              0.302577216741267E+02
             -0.564132712985371E+02
              0.913902104145902E+01
             -0.948369500122556E+01
              0.103729979426603E+02
             -0.332460205516113E+02
              0.192002631886874E+02
              0.281291466299809E+02
             -0.288535383348471E+01
              0.106590675655137E+03
             -0.139871498313667E+02
             -0.311585887159580E+02
              0.138394916048142E+02
              0.460551310886050E+02
             -0.351476662524578E+02
             -0.315963147560477E+01
              0.951018798628075E+02
             -0.463164541830588E+01
              0.614128456932608E+02
              0.133101835384059E+02
             -0.894569274678055E+01
             -0.303174325915479E+02
              0.559962315492764E+02
             -0.505789395124212E+02
             -0.218814062729183E+01
             -0.167136974746331E+02
             -0.399666594987970E+02
              0.183122075268452E+02
              0.235601608023547E+02
              0.116243827998999E+02
              0.742616788923669E+00
             -0.378541015385159E+02
              0.213323878533058E+02
             -0.672985590895846E+01
             -0.243574309937080E+02
             -0.207849094655890E+02
              0.201226040354780E+02
             -0.596464607768053E+01
             -0.343774484497332E+02
             -0.105093123623514E+03
              0.101812840973601E+02
              0.246891856030901E+02
             -0.380348690575121E+02
             -0.207498308516180E+02
              0.795393856005156E+02
              0.630946384411561E+01
              0.304435783353287E+02
              0.373939234682027E+01
              0.316221663414901E+02
              0.642239761882678E+01
             -0.367455664648671E+02
             -0.212347334768958E+01
              0.868846047017428E+01
              0.269250372822432E+02
              0.771560832221136E+02
              0.500492966717479E+02
              0.119266102447511E+00
              0.167336890286601E+02
              0.604666472505501E+02
              0.231870255887045E+02
             -0.743367894433866E+02
             -0.269740307814259E+02
              0.149651877346796E+02
              0.548292940738281E+01
              0.251502123058302E+02
             -0.540673451203545E+02
              0.892781209280321E+01
              0.379902989263935E+02
              0.491129654111720E+02
             -0.429003650006563E+02
             -0.697682438736189E+01
             -0.203261038161577E+01
             -0.130818208311406E+02
             -0.362080881114053E+02
             -0.213608192131713E+02
             -0.181917388461051E+01
              0.775729173616116E+01
              0.415366887352275E+02
             -0.303633908919426E+02
              0.814837391640094E+02
              0.322695273075414E+02
              0.215965083785555E+02
              0.327746470882302E+02
              0.319858813444413E+02
              0.340938976421107E+02
              0.529459568177768E+02
             -0.427232827724466E+02
              0.610781110383229E+02
             -0.110649631568437E+03
              0.303051876109354E+02
             -0.105062437651916E+03
              0.843380478296762E+02
              0.679658573502705E+02
             -0.108722495393966E+02
             -0.486743624797663E+02
             -0.423459421932533E+02
             -0.615970977378281E+02
             -0.619472374100775E+02
              0.543944579104706E+02
              0.399625001705562E+02
              0.233405733709370E+02
              0.370488463229092E+02
              0.396572110142613E+02
             -0.376374531523518E+02
             -0.195857838120123E+02
              0.579129028788293E+02
             -0.114361968430286E+02
              0.544776970189443E+02
              0.688513430423556E+02
             -0.548650353830262E+01
             -0.695686507470673E+02
             -0.989198217563512E+00
             -0.247351002093719E+01
             -0.867645129569132E+01
             -0.184188409114950E+01
             -0.644110458584262E+02
             -0.209894664403558E+02
              0.519327450922048E+01
              0.876685196261644E+01
              0.461816933972259E+02
             -0.391768326821078E+02
              0.650571937749841E+02
             -0.419991556722326E+02
              0.206401986734745E+02
              0.344322576201033E+02
 
 BEEF-vdW xc energy contributions
           1 :   -773.083308079037     
           2 :    711.089847029787     
           3 :   -603.371567666933     
           4 :    476.022863609039     
           5 :   -355.957070115684     
           6 :    262.819744352136     
           7 :   -204.374940109061     
           8 :    176.364739750833     
           9 :   -166.409553508945     
          10 :    160.067950529489     
          11 :   -146.566278371501     
          12 :    122.041422489696     
          13 :   -89.4504698319473     
          14 :    55.7339527084064     
          15 :   -27.8713796451168     
          16 :    9.62548206218673     
          17 :  -0.249501437079971     
          18 :   -4.58068484498619     
          19 :    10.3057126127110     
          20 :   -20.7958952319166     
          21 :    36.6744422893852     
          22 :   -55.3125559627272     
          23 :    72.3319991403063     
          24 :   -83.7945531215415     
          25 :    88.0026111088415     
          26 :   -86.1160531238584     
          27 :    81.3915581764893     
          28 :   -77.5075583835944     
          29 :    76.8198712324719     
          30 :   -79.3695844822785     
          31 :   -84.5393886696016     
          32 :   -64.9693140332250     

     Writing output data file ./pwscf.save/
 
     init_run     :    270.58s CPU    274.46s WALL (       1 calls)
     electrons    :   9099.63s CPU   9192.23s WALL (       1 calls)
     forces       :     84.44s CPU     85.48s WALL (       1 calls)

     Called by init_run:
     wfcinit      :    223.38s CPU    226.38s WALL (       1 calls)
     potinit      :     44.70s CPU     44.98s WALL (       1 calls)
     hinit0       :      0.91s CPU      0.96s WALL (       1 calls)

     Called by electrons:
     c_bands      :   7663.17s CPU   7735.44s WALL (      17 calls)
     sum_band     :    973.47s CPU    982.51s WALL (      17 calls)
     v_of_rho     :    100.87s CPU    103.94s WALL (      17 calls)
     newd         :     21.67s CPU     30.00s WALL (      17 calls)
     PAW_pot      :    115.88s CPU    115.88s WALL (      17 calls)
     mix_rho      :    270.03s CPU    270.65s WALL (      17 calls)
     vdW_kernel   :     33.63s CPU     33.64s WALL (       1 calls)

     Called by c_bands:
     init_us_2    :     57.30s CPU     57.49s WALL (     468 calls)
     cegterg      :   7069.85s CPU   7141.28s WALL (     221 calls)

     Called by *egterg:
     cdiaghg      :     77.84s CPU     77.87s WALL (    1155 calls)
     h_psi        :   4360.44s CPU   4385.29s WALL (    1181 calls)
     s_psi        :    789.98s CPU    789.98s WALL (    1181 calls)
     g_psi        :     13.65s CPU     13.65s WALL (     947 calls)

     Called by h_psi:
     h_psi:calbec :    742.53s CPU    742.61s WALL (    1181 calls)
     vloc_psi     :   2805.65s CPU   2806.33s WALL (    1181 calls)
     add_vuspsi   :    790.76s CPU    790.78s WALL (    1181 calls)

     General routines
     calbec       :   1085.54s CPU   1085.84s WALL (    1454 calls)
     fft          :     38.11s CPU     38.14s WALL (    3037 calls)
     ffts         :     83.31s CPU     83.33s WALL (    7394 calls)
     fftw         :   2875.54s CPU   2875.92s WALL (  288906 calls)
 
     Parallel routines
 
     PWSCF        :      2h39m CPU      2h41m WALL

 
   This run was terminated on:  18:24:36  20Dec2022            

=------------------------------------------------------------------------------=
   JOB DONE.
=------------------------------------------------------------------------------=
