
     Program PWSCF v.6.7MaX starts on 20May2022 at 14:46:31 

     This program is part of the open-source Quantum ESPRESSO suite
     for quantum simulation of materials; please cite
         "P. Giannozzi et al., J. Phys.:Condens. Matter 21 395502 (2009);
         "P. Giannozzi et al., J. Phys.:Condens. Matter 29 465901 (2017);
          URL http://www.quantum-espresso.org", 
     in publications or presentations arising from this work. More details at
     http://www.quantum-espresso.org/quote

     Parallel version (MPI), running on     1 processors

     MPI processes distributed on     1 nodes
     Reading input from c2h2o-ensemble.in
Warning: card &CELL ignored
Warning: card / ignored

     Current dimensions of program PWSCF are:
     Max number of different atomic species (ntypx) = 10
     Max number of k-points (npk) =  40000
     Max angular momentum in pseudopotentials (lmaxx) =  3
     file Pt.pbe-n-kjpaw_psl.1.0.0.UPF: wavefunction(s)  6S 5D renormalized
     file C.pbe-n-kjpaw_psl.1.0.0.UPF: wavefunction(s)  2S 2P renormalized
     file O.pbe-nl-kjpaw_psl.1.0.0.UPF: wavefunction(s)  2S 2P renormalized
     file H.pbe-kjpaw_psl.1.0.0.UPF: wavefunction(s)  1S renormalized

     **************************************************************************
     Initializing libbeef V0.1.2 with the BEEF-vdW functional.
     Citation: Wellendorff et al., PRB 85, 235149 (2012).
     **************************************************************************


     IMPORTANT: XC functional enforced from input :
     Exchange-correlation= BEEF-VDW
                           (   1   4  43  14   2   0   0)
     Any further DFT definition will be discarded
     Please, verify this is what you really want


     Subspace diagonalization in iterative solution of the eigenvalue problem:
     a serial algorithm will be used

 
     G-vector sticks info
     --------------------
     sticks:   dense  smooth     PW     G-vecs:    dense   smooth      PW
     Sum        4267    4267   1159               719323   719323  101261
 


     bravais-lattice index     =            0
     lattice parameter (alat)  =      16.0349  a.u.
     unit-cell volume          =   11449.5662 (a.u.)^3
     number of atoms/cell      =           41
     number of atomic types    =            4
     number of electrons       =       376.00
     number of Kohn-Sham states=          226
     kinetic-energy cutoff     =      60.0000  Ry
     charge density cutoff     =     240.0000  Ry
     scf convergence threshold =      1.0E-06
     mixing beta               =       0.7000
     number of iterations used =            8  local-TF  mixing
     Exchange-correlation= BEEF-VDW
                           (   1   4  43  14   2   0   0)

     celldm(1)=  16.034858  celldm(2)=   0.000000  celldm(3)=   0.000000
     celldm(4)=   0.000000  celldm(5)=   0.000000  celldm(6)=   0.000000

     crystal axes: (cart. coord. in units of alat)
               a(1) = (   1.000000   0.000000   0.000000 )  
               a(2) = (   0.500000   0.866025   0.000000 )  
               a(3) = (   0.000000   0.000000   3.206735 )  

     reciprocal axes: (cart. coord. in units 2 pi/alat)
               b(1) = (  1.000000 -0.577350  0.000000 )  
               b(2) = (  0.000000  1.154701  0.000000 )  
               b(3) = (  0.000000  0.000000  0.311844 )  


     PseudoPot. # 1 for Pt read from file:
     /users/bkreitz1/quantum-espresso/potentials/Pt.pbe-n-kjpaw_psl.1.0.0.UPF
     MD5 check sum: 04dc8a03c51ece93fc7b5889c2958091
     Pseudo is Projector augmented-wave + core cor, Zval = 10.0
     Generated using 'atomic' code by A. Dal Corso  v.6.7MaX
     Shape of augmentation charge: PSQ
     Using radial grid of 1277 points,  6 beta functions with: 
                l(1) =   0
                l(2) =   0
                l(3) =   1
                l(4) =   1
                l(5) =   2
                l(6) =   2
     Q(r) pseudized with 0 coefficients 


     PseudoPot. # 2 for C  read from file:
     /users/bkreitz1/quantum-espresso/potentials/C.pbe-n-kjpaw_psl.1.0.0.UPF
     MD5 check sum: a169b0ebad56f5ec0d79c4633f80bf22
     Pseudo is Projector augmented-wave + core cor, Zval =  4.0
     Generated using 'atomic' code by A. Dal Corso  v.6.7MaX
     Shape of augmentation charge: PSQ
     Using radial grid of 1073 points,  4 beta functions with: 
                l(1) =   0
                l(2) =   0
                l(3) =   1
                l(4) =   1
     Q(r) pseudized with 0 coefficients 


     PseudoPot. # 3 for O  read from file:
     /users/bkreitz1/quantum-espresso/potentials/O.pbe-nl-kjpaw_psl.1.0.0.UPF
     MD5 check sum: eef08af8b58d9ec80f8fdb78829eb7cf
     Pseudo is Projector augmented-wave + core cor, Zval =  6.0
     Generated using 'atomic' code by A. Dal Corso  v.6.7MaX
     Shape of augmentation charge: PSQ
     Using radial grid of 1095 points,  4 beta functions with: 
                l(1) =   0
                l(2) =   0
                l(3) =   1
                l(4) =   1
     Q(r) pseudized with 0 coefficients 


     PseudoPot. # 4 for H  read from file:
     /users/bkreitz1/quantum-espresso/potentials/H.pbe-kjpaw_psl.1.0.0.UPF
     MD5 check sum: ae98473e6dc62675f0d0baffdab24f65
     Pseudo is Projector augmented-wave, Zval =  1.0
     Generated using 'atomic' code by A. Dal Corso  v.6.7MaX
     Shape of augmentation charge: PSQ
     Using radial grid of  929 points,  2 beta functions with: 
                l(1) =   0
                l(2) =   0
     Q(r) pseudized with 0 coefficients 


     atomic species   valence    mass     pseudopotential
        Pt            10.00   195.08400     Pt( 1.00)
        C              4.00    12.01100     C ( 1.00)
        O              6.00    15.99900     O ( 1.00)
        H              1.00     1.00800     H ( 1.00)

     No symmetry found



   Cartesian axes

     site n.     atom                  positions (alat units)
         1           Pt  tau(   1) = (   0.0000000   0.0000000   1.0017346  )
         2           Pt  tau(   2) = (   0.3333333   0.0000000   1.0017346  )
         3           Pt  tau(   3) = (   0.6666667   0.0000000   1.0017346  )
         4           Pt  tau(   4) = (   0.1666667   0.2886751   1.0017346  )
         5           Pt  tau(   5) = (   0.5000000   0.2886751   1.0017346  )
         6           Pt  tau(   6) = (   0.8333333   0.2886751   1.0017346  )
         7           Pt  tau(   7) = (   0.3333333   0.5773503   1.0017346  )
         8           Pt  tau(   8) = (   0.6666667   0.5773503   1.0017346  )
         9           Pt  tau(   9) = (   1.0000000   0.5773503   1.0017346  )
        10           Pt  tau(  10) = (   0.1666667   0.0962250   1.2739001  )
        11           Pt  tau(  11) = (   0.5000000   0.0962250   1.2739001  )
        12           Pt  tau(  12) = (   0.8333333   0.0962250   1.2739001  )
        13           Pt  tau(  13) = (   0.3333333   0.3849002   1.2739001  )
        14           Pt  tau(  14) = (   0.6666667   0.3849002   1.2739001  )
        15           Pt  tau(  15) = (   1.0000000   0.3849002   1.2739001  )
        16           Pt  tau(  16) = (   0.5000000   0.6735753   1.2739001  )
        17           Pt  tau(  17) = (   0.8333333   0.6735753   1.2739001  )
        18           Pt  tau(  18) = (   1.1666667   0.6735753   1.2739001  )
        19           Pt  tau(  19) = (  -0.0000576   0.1924333   1.5417184  )
        20           Pt  tau(  20) = (   0.3349336   0.1937198   1.5467125  )
        21           Pt  tau(  21) = (   0.6649043   0.1937493   1.5467715  )
        22           Pt  tau(  22) = (   0.1664443   0.4811506   1.5424891  )
        23           Pt  tau(  23) = (   0.4999622   0.4790048   1.5468321  )
        24           Pt  tau(  24) = (   0.8334338   0.4811699   1.5425578  )
        25           Pt  tau(  25) = (   0.3334988   0.7700756   1.5413025  )
        26           Pt  tau(  26) = (   0.6663874   0.7700049   1.5413711  )
        27           Pt  tau(  27) = (   0.9999535   0.7699244   1.5426317  )
        28           Pt  tau(  28) = (  -0.0001089   0.0003487   1.8173879  )
        29           Pt  tau(  29) = (   0.3319113  -0.0015065   1.8157288  )
        30           Pt  tau(  30) = (   0.6678679  -0.0014734   1.8157457  )
        31           Pt  tau(  31) = (   0.1641547   0.2892068   1.8166841  )
        32           Pt  tau(  32) = (   0.4998555   0.2891922   1.8360695  )
        33           Pt  tau(  33) = (   0.8355755   0.2892285   1.8166937  )
        34           Pt  tau(  34) = (   0.3313965   0.5798587   1.8151297  )
        35           Pt  tau(  35) = (   0.6682427   0.5797851   1.8155154  )
        36           Pt  tau(  36) = (   0.9998434   0.5777667   1.8180057  )
        37           C   tau(  37) = (   0.4999391   0.2608102   2.0908148  )
        38           C   tau(  38) = (   0.4948421   0.4111487   2.1506633  )
        39           O   tau(  39) = (   0.4907453   0.5357579   2.2050003  )
        40           H   tau(  40) = (   0.3945961   0.1939644   2.1222558  )
        41           H   tau(  41) = (   0.6093380   0.2012708   2.1241926  )

     number of k points=    13  Marzari-Vanderbilt smearing, width (Ry)=  0.0200
                       cart. coord. in units 2pi/alat
        k(    1) = (   0.0000000   0.0000000   0.0000000), wk =   0.0800000
        k(    2) = (   0.0000000   0.2309401   0.0000000), wk =   0.1600000
        k(    3) = (   0.0000000   0.4618802   0.0000000), wk =   0.1600000
        k(    4) = (   0.2000000  -0.1154701   0.0000000), wk =   0.1600000
        k(    5) = (   0.2000000   0.1154701   0.0000000), wk =   0.1600000
        k(    6) = (   0.2000000   0.3464102   0.0000000), wk =   0.1600000
        k(    7) = (   0.2000000  -0.5773503   0.0000000), wk =   0.1600000
        k(    8) = (   0.2000000  -0.3464102   0.0000000), wk =   0.1600000
        k(    9) = (   0.4000000  -0.2309401   0.0000000), wk =   0.1600000
        k(   10) = (   0.4000000  -0.0000000   0.0000000), wk =   0.1600000
        k(   11) = (   0.4000000   0.2309401   0.0000000), wk =   0.1600000
        k(   12) = (   0.4000000  -0.6928203   0.0000000), wk =   0.1600000
        k(   13) = (   0.4000000  -0.4618802   0.0000000), wk =   0.1600000

     Dense  grid:   719323 G-vectors     FFT dimensions: (  80,  80, 256)

     Estimated max dynamical RAM per process >       8.75 GB

     Check: negative core charge=   -0.000002

     Initial potential from superposition of free atoms

     starting charge  375.99379, renormalised to  376.00000

     negative rho (up, down):  1.197E-02 0.000E+00


     %%%%%%%%%%%%%%%%%%%%%%%%%%%%%%%%%%%%%%%%%%%%%%%%%%%%%%%%%%%%%%%%%%%%%%%%
     %                                                                      %
     % You are using vdW-DF, which was implemented by the Thonhauser group. %
     % Please cite the following two papers that made this development      %
     % possible and the two reviews that describe the various versions:     %
     %                                                                      %
     %   T. Thonhauser et al., PRL 115, 136402 (2015).                      %
     %   T. Thonhauser et al., PRB 76, 125112 (2007).                       %
     %   K. Berland et al., Rep. Prog. Phys. 78, 066501 (2015).             %
     %   D.C. Langreth et al., J. Phys.: Condens. Matter 21, 084203 (2009). %
     %                                                                      %
     %                                                                      %
     % If you are calculating the stress with vdW-DF, please also cite:     %
     %                                                                      %
     %   R. Sabatini et al., J. Phys.: Condens. Matter 24, 424209 (2012).   %
     %                                                                      %
     %%%%%%%%%%%%%%%%%%%%%%%%%%%%%%%%%%%%%%%%%%%%%%%%%%%%%%%%%%%%%%%%%%%%%%%%


     Starting wfcs are  338 randomized atomic wfcs
     Checking if some PAW data can be deallocated... 

     total cpu time spent up to now is      343.2 secs

     Self-consistent Calculation

     iteration #  1     ecut=    60.00 Ry     beta= 0.70
     Davidson diagonalization with overlap
     ethr =  1.00E-02,  avg # of iterations =  2.0

     Threshold (ethr) on eigenvalues was too large:
     Diagonalizing with lowered threshold

     Davidson diagonalization with overlap
     ethr =  4.96E-04,  avg # of iterations =  3.8

     negative rho (up, down):  1.238E-02 0.000E+00

     total cpu time spent up to now is     1749.4 secs

     total energy              =  -27836.90086404 Ry
     estimated scf accuracy    <       2.09648726 Ry

     iteration #  2     ecut=    60.00 Ry     beta= 0.70
     Davidson diagonalization with overlap
     ethr =  5.58E-04,  avg # of iterations =  2.0

     negative rho (up, down):  1.092E-02 0.000E+00

     total cpu time spent up to now is     2371.3 secs

     total energy              =  -27837.05087718 Ry
     estimated scf accuracy    <       1.00346217 Ry

     iteration #  3     ecut=    60.00 Ry     beta= 0.70
     Davidson diagonalization with overlap
     ethr =  2.67E-04,  avg # of iterations =  2.0

     negative rho (up, down):  7.885E-03 0.000E+00

     total cpu time spent up to now is     2972.8 secs

     total energy              =  -27837.09689930 Ry
     estimated scf accuracy    <       0.16225672 Ry

     iteration #  4     ecut=    60.00 Ry     beta= 0.70
     Davidson diagonalization with overlap
     c_bands:  2 eigenvalues not converged
     c_bands:  1 eigenvalues not converged
     c_bands:  3 eigenvalues not converged
     ethr =  4.32E-05,  avg # of iterations = 15.9

     negative rho (up, down):  5.761E-03 0.000E+00

     total cpu time spent up to now is     4061.4 secs

     total energy              =  -27837.14980264 Ry
     estimated scf accuracy    <       0.12972315 Ry

     iteration #  5     ecut=    60.00 Ry     beta= 0.70
     Davidson diagonalization with overlap
     ethr =  3.45E-05,  avg # of iterations =  1.5

     negative rho (up, down):  4.581E-03 0.000E+00

     total cpu time spent up to now is     4665.6 secs

     total energy              =  -27837.15278888 Ry
     estimated scf accuracy    <       0.09313677 Ry

     iteration #  6     ecut=    60.00 Ry     beta= 0.70
     Davidson diagonalization with overlap
     ethr =  2.48E-05,  avg # of iterations =  1.3

     negative rho (up, down):  3.230E-03 0.000E+00

     total cpu time spent up to now is     5247.1 secs

     total energy              =  -27837.15257331 Ry
     estimated scf accuracy    <       0.01997517 Ry

     iteration #  7     ecut=    60.00 Ry     beta= 0.70
     Davidson diagonalization with overlap
     c_bands:  1 eigenvalues not converged
     c_bands:  1 eigenvalues not converged
     c_bands:  1 eigenvalues not converged
     c_bands:  1 eigenvalues not converged
     c_bands:  1 eigenvalues not converged
     c_bands:  1 eigenvalues not converged
     c_bands:  1 eigenvalues not converged
     ethr =  5.31E-06,  avg # of iterations = 18.2

     negative rho (up, down):  3.037E-03 0.000E+00

     total cpu time spent up to now is     6058.7 secs

     total energy              =  -27837.15345132 Ry
     estimated scf accuracy    <       0.01314785 Ry

     iteration #  8     ecut=    60.00 Ry     beta= 0.70
     Davidson diagonalization with overlap
     ethr =  3.50E-06,  avg # of iterations =  4.6

     negative rho (up, down):  3.099E-03 0.000E+00

     total cpu time spent up to now is     6682.1 secs

     total energy              =  -27837.15321644 Ry
     estimated scf accuracy    <       0.00697375 Ry

     iteration #  9     ecut=    60.00 Ry     beta= 0.70
     Davidson diagonalization with overlap
     ethr =  1.85E-06,  avg # of iterations =  7.8

     negative rho (up, down):  4.014E-03 0.000E+00

     total cpu time spent up to now is     7374.7 secs

     total energy              =  -27837.15331729 Ry
     estimated scf accuracy    <       0.00536907 Ry

     iteration # 10     ecut=    60.00 Ry     beta= 0.70
     Davidson diagonalization with overlap
     c_bands:  1 eigenvalues not converged
     c_bands:  1 eigenvalues not converged
     c_bands:  1 eigenvalues not converged
     ethr =  1.43E-06,  avg # of iterations = 11.6

     negative rho (up, down):  5.441E-03 0.000E+00

     total cpu time spent up to now is     8102.8 secs

     total energy              =  -27837.15341517 Ry
     estimated scf accuracy    <       0.00210163 Ry

     iteration # 11     ecut=    60.00 Ry     beta= 0.70
     Davidson diagonalization with overlap
     c_bands:  1 eigenvalues not converged
     c_bands:  1 eigenvalues not converged
     c_bands:  1 eigenvalues not converged
     ethr =  5.59E-07,  avg # of iterations =  6.3

     negative rho (up, down):  6.451E-03 0.000E+00

     total cpu time spent up to now is     8748.2 secs

     total energy              =  -27837.15358529 Ry
     estimated scf accuracy    <       0.00084910 Ry

     iteration # 12     ecut=    60.00 Ry     beta= 0.70
     Davidson diagonalization with overlap
     ethr =  2.26E-07,  avg # of iterations =  7.8

     negative rho (up, down):  7.050E-03 0.000E+00

     total cpu time spent up to now is     9440.7 secs

     total energy              =  -27837.15370632 Ry
     estimated scf accuracy    <       0.00051961 Ry

     iteration # 13     ecut=    60.00 Ry     beta= 0.70
     Davidson diagonalization with overlap
     ethr =  1.38E-07,  avg # of iterations =  1.4

     negative rho (up, down):  8.242E-03 0.000E+00

     total cpu time spent up to now is    10024.7 secs

     total energy              =  -27837.15379508 Ry
     estimated scf accuracy    <       0.00046206 Ry

     iteration # 14     ecut=    60.00 Ry     beta= 0.70
     Davidson diagonalization with overlap
     ethr =  1.23E-07,  avg # of iterations =  2.8

     negative rho (up, down):  9.282E-03 0.000E+00

     total cpu time spent up to now is    10645.2 secs

     total energy              =  -27837.15383014 Ry
     estimated scf accuracy    <       0.00030161 Ry

     iteration # 15     ecut=    60.00 Ry     beta= 0.70
     Davidson diagonalization with overlap
     ethr =  8.02E-08,  avg # of iterations =  5.2

     negative rho (up, down):  1.193E-02 0.000E+00

     total cpu time spent up to now is    11290.9 secs

     total energy              =  -27837.15382566 Ry
     estimated scf accuracy    <       0.00014323 Ry

     iteration # 16     ecut=    60.00 Ry     beta= 0.70
     Davidson diagonalization with overlap
     ethr =  3.81E-08,  avg # of iterations =  2.0

     negative rho (up, down):  1.328E-02 0.000E+00

     total cpu time spent up to now is    11899.8 secs

     total energy              =  -27837.15382878 Ry
     estimated scf accuracy    <       0.00006884 Ry

     iteration # 17     ecut=    60.00 Ry     beta= 0.70
     Davidson diagonalization with overlap
     ethr =  1.83E-08,  avg # of iterations =  1.9

     negative rho (up, down):  1.326E-02 0.000E+00

     total cpu time spent up to now is    12524.5 secs

     total energy              =  -27837.15383270 Ry
     estimated scf accuracy    <       0.00001412 Ry

     iteration # 18     ecut=    60.00 Ry     beta= 0.70
     Davidson diagonalization with overlap
     ethr =  3.75E-09,  avg # of iterations =  4.0

     negative rho (up, down):  1.332E-02 0.000E+00

     total cpu time spent up to now is    13454.2 secs

     total energy              =  -27837.15383832 Ry
     estimated scf accuracy    <       0.00001623 Ry

     iteration # 19     ecut=    60.00 Ry     beta= 0.70
     Davidson diagonalization with overlap
     ethr =  3.75E-09,  avg # of iterations =  1.1

     negative rho (up, down):  1.350E-02 0.000E+00

     total cpu time spent up to now is    14029.0 secs

     total energy              =  -27837.15383881 Ry
     estimated scf accuracy    <       0.00000358 Ry

     iteration # 20     ecut=    60.00 Ry     beta= 0.70
     Davidson diagonalization with overlap
     ethr =  9.51E-10,  avg # of iterations =  1.9

     negative rho (up, down):  1.331E-02 0.000E+00

     total cpu time spent up to now is    14641.3 secs

     total energy              =  -27837.15383936 Ry
     estimated scf accuracy    <       0.00000114 Ry

     iteration # 21     ecut=    60.00 Ry     beta= 0.70
     Davidson diagonalization with overlap
     ethr =  3.03E-10,  avg # of iterations =  3.5

     negative rho (up, down):  1.324E-02 0.000E+00

     total cpu time spent up to now is    15335.8 secs

     End of self-consistent calculation

          k = 0.0000 0.0000 0.0000 ( 89827 PWs)   bands (ev):

   -23.1900 -14.1044  -7.8533  -6.6608  -6.4730  -6.4557  -5.8784  -5.3363
    -4.5400  -4.2921  -4.2483  -4.2455  -4.2442  -4.2393  -4.2226  -4.2087
    -4.2064  -3.7189  -3.6845  -3.6832  -3.6781  -3.6703  -3.6681  -3.2576
    -3.2245  -3.2221  -3.2105  -3.2027  -3.2019  -3.0865  -2.9951  -2.9943
    -2.9931  -2.9909  -2.9892  -2.8068  -2.7729  -2.7704  -2.7660  -2.7602
    -2.7597  -2.7505  -2.7489  -2.7368  -2.7260  -2.7258  -2.6928  -2.5127
    -2.1507  -2.1499  -2.1233  -2.1208  -2.0878  -2.0686  -2.0677  -2.0661
    -2.0649  -2.0333  -1.9191  -1.8970  -1.8353  -1.7079  -1.3712  -1.3335
    -1.3304  -1.3232  -1.3192  -1.3185  -1.2508  -1.1571  -1.1565  -1.1484
    -1.1472  -1.1266  -1.1254  -1.1088  -1.1062  -1.1032  -1.0796  -1.0771
    -1.0758  -1.0452  -1.0442  -1.0220  -0.9242  -0.9232  -0.9097  -0.9050
    -0.9043  -0.7845  -0.7546  -0.7413  -0.7402  -0.7094  -0.7073  -0.7067
    -0.6797  -0.6788  -0.6158  -0.6132  -0.5515  -0.5494  -0.4865  -0.4862
    -0.4575  -0.4489  -0.4404  -0.4326  -0.3187  -0.3147  -0.3101  -0.2876
    -0.2868  -0.2831  -0.0576   0.1665   0.1690   0.1723   0.1999   0.2126
     0.2134   0.2203   0.2669   0.2781   0.2803   0.2917   0.3036   0.3453
     0.3752   0.4741   0.5090   0.5108   0.5309   0.5461   0.5726   0.6181
     0.6199   0.6922   0.6946   0.7034   0.7037   0.9071   0.9112   0.9477
     0.9486   0.9513   0.9719   1.0199   1.0220   1.1846   1.1881   1.1963
     1.2126   1.2160   1.2480   1.3505   1.3556   1.3772   1.3803   1.3811
     1.3991   1.4006   1.4067   1.4134   1.4139   1.4185   1.5013   1.5178
     1.5179   1.5344   1.5350   1.5356   1.5782   1.5870   1.5981   1.6262
     1.6300   1.6550   1.6562   1.6754   1.6877   1.6994   1.7031   1.7673
     1.7691   1.7849   1.7944   1.7984   1.8098   1.8319   1.8845   1.8877
     1.8879   1.9142   1.9148   2.0939   2.0961   2.1896   2.1900   2.2225
     2.2242   2.2252   2.2382   2.2427   2.9572   3.0268   3.0623   3.0842
     3.0892   3.0956   3.5916   3.6143   4.9301   5.3421   5.3524   5.3711
     5.3950   5.4335   5.6023   6.3215   6.6415   6.9747   6.9890   7.0231
     7.0250   7.0354

          k = 0.0000 0.2309 0.0000 ( 89884 PWs)   bands (ev):

   -23.1900 -14.1044  -7.8529  -6.5175  -6.4732  -6.4549  -5.8688  -5.2005
    -4.7464  -4.5388  -4.3505  -4.3436  -4.1457  -4.0969  -4.0412  -3.9984
    -3.9927  -3.8176  -3.7683  -3.6351  -3.6143  -3.6059  -3.5982  -3.3231
    -3.2060  -3.1832  -3.1781  -3.1642  -3.1089  -3.0938  -3.0633  -3.0342
    -3.0139  -2.9927  -2.9585  -2.9177  -2.9023  -2.8425  -2.7968  -2.7885
    -2.7562  -2.7487  -2.6175  -2.5635  -2.5581  -2.5355  -2.5337  -2.4623
    -2.2753  -2.2563  -2.2147  -2.1954  -2.1773  -2.1526  -2.1239  -1.9756
    -1.9658  -1.8997  -1.8924  -1.8542  -1.8317  -1.7574  -1.5942  -1.5136
    -1.4979  -1.4511  -1.4466  -1.4102  -1.3483  -1.3268  -1.3190  -1.2947
    -1.2942  -1.2703  -1.2226  -1.1726  -1.1521  -1.1340  -1.1200  -1.0461
    -1.0339  -1.0276  -0.9692  -0.9634  -0.9439  -0.8834  -0.8558  -0.8553
    -0.8408  -0.8207  -0.7619  -0.7562  -0.7494  -0.7366  -0.7126  -0.7119
    -0.6784  -0.6311  -0.6003  -0.5709  -0.5707  -0.5476  -0.5290  -0.5262
    -0.4899  -0.4691  -0.4602  -0.3740  -0.3272  -0.3204  -0.3027  -0.2922
    -0.2847  -0.2636  -0.2425  -0.2072  -0.1995  -0.1821  -0.1522  -0.1298
     0.0587   0.1232   0.1674   0.1998   0.2129   0.2397   0.2546   0.2723
     0.2744   0.4028   0.4273   0.4523   0.5421   0.5724   0.6015   0.6232
     0.6259   0.6753   0.6858   0.7083   0.7191   0.7954   0.8088   0.8277
     0.8421   0.8491   0.9936   1.0235   1.0513   1.0556   1.0833   1.0880
     1.1124   1.1725   1.2012   1.2056   1.2381   1.2430   1.3031   1.3173
     1.3305   1.3489   1.4282   1.4308   1.4624   1.4765   1.5442   1.5852
     1.5880   1.6061   1.6089   1.6318   1.6708   1.7133   1.7433   1.7565
     1.8063   1.8163   1.8240   1.8602   1.8651   1.8681   1.8782   1.8825
     1.9339   1.9471   2.0052   2.0818   2.0866   2.1165   2.1319   2.1510
     2.1550   2.1781   2.2112   2.2258   2.2317   2.3319   2.3340   2.3596
     2.5007   2.5169   2.5208   2.5348   2.7157   2.9401   3.1137   3.4799
     3.6316   3.7530   3.7734   3.9181   4.6640   4.9745   5.0839   5.3449
     5.8465   5.8500   5.8987   5.9494   6.1101   6.4719   6.7097   6.7874
     6.7952   6.9275

          k = 0.0000 0.4619 0.0000 ( 89842 PWs)   bands (ev):

   -23.1900 -14.1044  -7.8522  -6.4745  -6.4602  -6.1015  -5.8532  -5.4411
    -4.8075  -4.5367  -4.3839  -4.3768  -4.2617  -4.0152  -3.8582  -3.7511
    -3.7128  -3.6615  -3.6534  -3.5145  -3.4957  -3.4505  -3.4337  -3.4196
    -3.3252  -3.2795  -3.2661  -3.2284  -3.2121  -3.1900  -3.1572  -3.0899
    -3.0805  -3.0802  -2.8992  -2.8191  -2.8125  -2.8117  -2.7976  -2.7832
    -2.6916  -2.5703  -2.5505  -2.5338  -2.5332  -2.5022  -2.4195  -2.3173
    -2.2422  -2.2218  -2.2080  -2.1904  -2.1623  -2.1367  -2.0869  -2.0703
    -2.0460  -2.0218  -1.9737  -1.8695  -1.8634  -1.8302  -1.8227  -1.7139
    -1.6711  -1.6486  -1.6457  -1.6054  -1.4925  -1.4413  -1.4135  -1.4098
    -1.4055  -1.3366  -1.3051  -1.2895  -1.2132  -1.1797  -1.1631  -1.1611
    -1.0682  -1.0392  -1.0387  -1.0308  -1.0142  -0.9667  -0.9405  -0.9404
    -0.9163  -0.9133  -0.9039  -0.9011  -0.8791  -0.8474  -0.7769  -0.7629
    -0.7474  -0.7411  -0.7339  -0.7156  -0.6504  -0.5821  -0.5590  -0.5256
    -0.5031  -0.4843  -0.4667  -0.4504  -0.4366  -0.3864  -0.3040  -0.2790
    -0.2596  -0.2386  -0.1992  -0.1797  -0.0622  -0.0490  -0.0256   0.0486
     0.0841   0.1221   0.1348   0.1550   0.1658   0.1787   0.1867   0.2572
     0.2637   0.2750   0.2829   0.3004   0.3304   0.3399   0.3493   0.3700
     0.4512   0.5108   0.5200   0.5424   0.6018   0.6603   0.7126   0.7151
     0.8209   0.8272   0.9023   0.9477   0.9865   1.0166   1.0304   1.0567
     1.0856   1.1064   1.1498   1.1602   1.2060   1.2270   1.2508   1.3162
     1.3355   1.3602   1.3699   1.3928   1.3943   1.4658   1.5604   1.5974
     1.6011   1.6390   1.6668   1.6763   1.7488   1.7689   1.7837   1.8532
     1.8662   1.8706   1.9213   1.9437   1.9657   1.9874   2.0199   2.0848
     2.1061   2.1074   2.1295   2.1403   2.1573   2.1629   2.3001   2.3362
     2.3622   2.3796   2.3819   2.4526   2.5503   2.5983   2.9548   3.0082
     3.0322   3.3595   3.4247   3.4257   3.5305   3.8066   3.8143   4.0126
     4.1396   4.5444   4.6345   4.6402   4.6906   4.8331   4.8934   4.9746
     5.0312   5.2526   5.2857   5.4924   5.7684   5.9486   6.2965   6.4435
     6.5722   6.8219

          k = 0.2000-0.1155 0.0000 ( 89884 PWs)   bands (ev):

   -23.1900 -14.1044  -7.8529  -6.5174  -6.4723  -6.4554  -5.8696  -5.2001
    -4.7465  -4.5404  -4.3519  -4.3421  -4.1449  -4.0968  -4.0424  -3.9984
    -3.9911  -3.8136  -3.7674  -3.6391  -3.6136  -3.6069  -3.5994  -3.3182
    -3.2083  -3.1829  -3.1786  -3.1627  -3.1141  -3.0918  -3.0671  -3.0341
    -3.0145  -2.9932  -2.9603  -2.9156  -2.9009  -2.8450  -2.7987  -2.7881
    -2.7554  -2.7470  -2.6084  -2.5651  -2.5563  -2.5343  -2.5296  -2.4672
    -2.2745  -2.2542  -2.2278  -2.1953  -2.1796  -2.1531  -2.1217  -1.9727
    -1.9635  -1.8951  -1.8919  -1.8569  -1.8315  -1.7574  -1.5951  -1.5141
    -1.4966  -1.4517  -1.4448  -1.4042  -1.3488  -1.3294  -1.3206  -1.2953
    -1.2943  -1.2752  -1.2229  -1.1685  -1.1473  -1.1331  -1.1187  -1.0470
    -1.0371  -1.0310  -0.9688  -0.9634  -0.9395  -0.8839  -0.8539  -0.8521
    -0.8420  -0.8183  -0.7606  -0.7573  -0.7510  -0.7371  -0.7147  -0.7113
    -0.6788  -0.6289  -0.6022  -0.5717  -0.5678  -0.5470  -0.5315  -0.5221
    -0.4926  -0.4699  -0.4585  -0.3675  -0.3364  -0.3157  -0.3060  -0.2933
    -0.2731  -0.2633  -0.2486  -0.2123  -0.2002  -0.1838  -0.1660  -0.1346
     0.0707   0.1211   0.1661   0.1996   0.2137   0.2384   0.2515   0.2724
     0.2782   0.4018   0.4270   0.4459   0.5424   0.5727   0.6062   0.6223
     0.6245   0.6749   0.6853   0.7070   0.7177   0.7943   0.8092   0.8273
     0.8418   0.8512   1.0016   1.0207   1.0493   1.0527   1.0839   1.0949
     1.1129   1.1722   1.1980   1.2050   1.2366   1.2388   1.2992   1.3210
     1.3306   1.3482   1.4299   1.4319   1.4643   1.4800   1.5411   1.5819
     1.5860   1.6070   1.6102   1.6323   1.6713   1.7181   1.7439   1.7586
     1.8069   1.8155   1.8238   1.8609   1.8665   1.8686   1.8777   1.8828
     1.9328   1.9460   2.0063   2.0824   2.0880   2.1171   2.1330   2.1515
     2.1536   2.1802   2.2120   2.2250   2.2338   2.3290   2.3333   2.3591
     2.5009   2.5180   2.5197   2.5338   2.7152   2.9487   3.1061   3.5095
     3.6353   3.6795   3.7998   3.9338   4.6907   4.9671   5.0849   5.3300
     5.8428   5.8496   5.8816   5.9323   6.1600   6.4622   6.7326   6.7486
     6.8071   6.9041

          k = 0.2000 0.1155 0.0000 ( 89884 PWs)   bands (ev):

   -23.1900 -14.1044  -7.8530  -6.5177  -6.4717  -6.4557  -5.8696  -5.2000
    -4.7462  -4.5404  -4.3522  -4.3422  -4.1448  -4.0967  -4.0420  -3.9987
    -3.9912  -3.8134  -3.7675  -3.6396  -3.6133  -3.6066  -3.5995  -3.3182
    -3.2082  -3.1829  -3.1787  -3.1625  -3.1144  -3.0917  -3.0673  -3.0340
    -3.0145  -2.9931  -2.9602  -2.9157  -2.9011  -2.8449  -2.7985  -2.7881
    -2.7557  -2.7471  -2.6085  -2.5652  -2.5562  -2.5344  -2.5298  -2.4672
    -2.2746  -2.2543  -2.2273  -2.1951  -2.1793  -2.1535  -2.1220  -1.9729
    -1.9637  -1.8951  -1.8919  -1.8568  -1.8315  -1.7574  -1.5954  -1.5142
    -1.4966  -1.4521  -1.4452  -1.4045  -1.3490  -1.3293  -1.3204  -1.2949
    -1.2941  -1.2749  -1.2228  -1.1687  -1.1479  -1.1333  -1.1187  -1.0467
    -1.0364  -1.0300  -0.9691  -0.9632  -0.9396  -0.8841  -0.8548  -0.8523
    -0.8416  -0.8186  -0.7604  -0.7572  -0.7507  -0.7374  -0.7146  -0.7112
    -0.6787  -0.6287  -0.6016  -0.5718  -0.5681  -0.5475  -0.5314  -0.5216
    -0.4924  -0.4698  -0.4586  -0.3673  -0.3363  -0.3155  -0.3059  -0.2932
    -0.2726  -0.2632  -0.2495  -0.2123  -0.2006  -0.1836  -0.1667  -0.1342
     0.0699   0.1204   0.1662   0.2000   0.2136   0.2385   0.2514   0.2728
     0.2783   0.4020   0.4272   0.4453   0.5426   0.5728   0.6053   0.6228
     0.6251   0.6748   0.6854   0.7071   0.7174   0.7943   0.8091   0.8272
     0.8419   0.8511   1.0018   1.0211   1.0495   1.0527   1.0838   1.0951
     1.1129   1.1719   1.1983   1.2048   1.2362   1.2388   1.2991   1.3209
     1.3306   1.3483   1.4295   1.4320   1.4640   1.4805   1.5415   1.5817
     1.5859   1.6071   1.6102   1.6322   1.6713   1.7184   1.7438   1.7587
     1.8068   1.8158   1.8238   1.8607   1.8665   1.8687   1.8779   1.8828
     1.9330   1.9463   2.0066   2.0820   2.0883   2.1172   2.1329   2.1510
     2.1534   2.1799   2.2117   2.2249   2.2336   2.3291   2.3334   2.3592
     2.5010   2.5178   2.5197   2.5337   2.7158   2.9467   3.1078   3.5050
     3.6365   3.6889   3.7944   3.9344   4.6895   4.9674   5.0860   5.3273
     5.8427   5.8502   5.8820   5.9353   6.1586   6.4612   6.7327   6.7492
     6.8070   6.9015

          k = 0.2000 0.3464 0.0000 ( 89850 PWs)   bands (ev):

   -23.1900 -14.1044  -7.8525  -6.4754  -6.4582  -6.2331  -5.8580  -5.0025
    -4.9834  -4.9318  -4.5383  -3.9300  -3.9197  -3.9140  -3.9052  -3.8643
    -3.8566  -3.8372  -3.8289  -3.7293  -3.7217  -3.3789  -3.3501  -3.3362
    -3.3274  -3.2658  -3.2490  -3.1149  -3.0974  -3.0875  -3.0840  -3.0737
    -3.0078  -2.9504  -2.9308  -2.9215  -2.9201  -2.8708  -2.8356  -2.8160
    -2.8065  -2.7676  -2.6891  -2.5532  -2.4264  -2.3362  -2.3303  -2.3092
    -2.2844  -2.2773  -2.2677  -2.2305  -2.2048  -2.1280  -2.0467  -2.0391
    -2.0126  -1.9409  -1.9139  -1.8623  -1.8533  -1.8325  -1.7653  -1.7323
    -1.6080  -1.5912  -1.5498  -1.5108  -1.4860  -1.4597  -1.4489  -1.4165
    -1.3930  -1.3731  -1.2359  -1.2169  -1.2041  -1.1878  -1.1500  -1.1359
    -1.1045  -1.0833  -1.0618  -1.0473  -0.9357  -0.9308  -0.9104  -0.8845
    -0.8779  -0.8738  -0.8673  -0.8185  -0.8067  -0.7753  -0.7463  -0.7351
    -0.6942  -0.6473  -0.6364  -0.6212  -0.5714  -0.5559  -0.5285  -0.5230
    -0.5072  -0.4859  -0.4683  -0.4624  -0.4419  -0.4385  -0.4263  -0.3774
    -0.3726  -0.3412  -0.2629  -0.2307  -0.2196  -0.1583  -0.1380  -0.1359
    -0.0757   0.0627   0.0833   0.1707   0.2051   0.2191   0.2287   0.2524
     0.2812   0.3008   0.3167   0.3401   0.3500   0.4000   0.4127   0.4610
     0.5590   0.6243   0.6414   0.6625   0.6920   0.7215   0.7315   0.7716
     0.8554   0.8742   0.8955   0.9367   0.9581   1.0007   1.0584   1.0855
     1.0950   1.1177   1.1644   1.1743   1.1897   1.1969   1.2108   1.2230
     1.2344   1.2597   1.3071   1.3863   1.4375   1.4672   1.5645   1.5749
     1.6421   1.7416   1.7536   1.7574   1.7854   1.8563   1.8797   1.8943
     1.9156   1.9281   1.9496   1.9595   1.9695   1.9827   2.0155   2.0231
     2.0369   2.1027   2.1382   2.1501   2.1804   2.1883   2.2142   2.2413
     2.3734   2.4112   2.4259   2.4742   2.4977   2.5144   2.6132   2.6379
     2.6878   3.1540   3.1622   3.2147   3.5150   3.6928   3.7207   3.7380
     3.8246   4.3534   4.3797   4.5341   4.6240   4.6570   4.7002   5.1725
     5.4044   5.8344   5.8446   5.9200   6.0747   6.2000   6.4002   6.4710
     6.5566   6.6418

          k = 0.2000-0.5774 0.0000 ( 89886 PWs)   bands (ev):

   -23.1900 -14.1044  -7.8521  -6.4749  -6.4598  -5.8977  -5.6924  -5.6458
    -5.0734  -4.5406  -4.4508  -4.4425  -3.9363  -3.9155  -3.7773  -3.7446
    -3.6474  -3.6302  -3.5292  -3.5171  -3.4277  -3.4207  -3.4005  -3.3733
    -3.3610  -3.3534  -3.3413  -3.2501  -3.1957  -3.1931  -3.1579  -3.1445
    -3.0787  -2.9964  -2.9409  -2.9103  -2.8475  -2.7986  -2.7887  -2.7717
    -2.7641  -2.7000  -2.6654  -2.6143  -2.5521  -2.4500  -2.3543  -2.3492
    -2.2843  -2.2194  -2.2057  -2.1596  -2.1312  -2.0328  -1.9842  -1.9598
    -1.9420  -1.9210  -1.8724  -1.8547  -1.8389  -1.7529  -1.7457  -1.7220
    -1.7128  -1.7015  -1.6928  -1.6720  -1.6387  -1.6004  -1.5126  -1.4828
    -1.4382  -1.4195  -1.3315  -1.2862  -1.2772  -1.2574  -1.2218  -1.1943
    -1.1914  -1.1528  -1.1044  -1.0836  -1.0582  -1.0491  -1.0184  -0.9731
    -0.9472  -0.8985  -0.8623  -0.8554  -0.8425  -0.7984  -0.7221  -0.6830
    -0.6691  -0.6532  -0.6382  -0.5986  -0.5941  -0.5761  -0.5637  -0.5408
    -0.5355  -0.5025  -0.4956  -0.4559  -0.4495  -0.4315  -0.4246  -0.4202
    -0.3951  -0.3905  -0.3433  -0.3296  -0.2911  -0.1243  -0.0876  -0.0212
    -0.0066   0.0851   0.0923   0.1025   0.1301   0.1622   0.1759   0.1944
     0.2177   0.2441   0.3074   0.3261   0.3404   0.3828   0.3972   0.4558
     0.4859   0.5087   0.5851   0.6663   0.7161   0.7317   0.7554   0.7772
     0.8328   0.8479   0.8713   0.8938   0.8990   0.9257   0.9530   0.9702
     1.0409   1.0529   1.1008   1.1279   1.1409   1.1480   1.1695   1.1824
     1.2504   1.3266   1.3803   1.4344   1.4947   1.5297   1.5851   1.5984
     1.6645   1.7131   1.7200   1.7508   1.8173   1.8609   1.8931   1.9234
     1.9401   1.9455   1.9581   1.9861   2.0167   2.0787   2.1003   2.1054
     2.1362   2.1501   2.1592   2.1631   2.2301   2.3195   2.3458   2.3706
     2.3801   2.3876   2.4160   2.4516   2.5674   2.6470   2.7195   3.5127
     3.5303   3.5348   3.6811   3.7494   3.8542   3.8881   3.9177   3.9635
     4.3753   4.5355   4.5471   4.7492   5.0061   5.0115   5.1135   5.1337
     5.3351   5.3602   5.4034   5.4397   5.5185   5.8669   5.9585   6.0329
     6.2850   6.5895

          k = 0.2000-0.3464 0.0000 ( 89850 PWs)   bands (ev):

   -23.1900 -14.1044  -7.8524  -6.4740  -6.4599  -6.2330  -5.8580  -5.0022
    -4.9839  -4.9318  -4.5384  -3.9302  -3.9200  -3.9139  -3.9051  -3.8642
    -3.8560  -3.8373  -3.8291  -3.7292  -3.7218  -3.3790  -3.3503  -3.3364
    -3.3274  -3.2659  -3.2487  -3.1148  -3.0973  -3.0874  -3.0844  -3.0736
    -3.0077  -2.9498  -2.9310  -2.9216  -2.9201  -2.8703  -2.8359  -2.8162
    -2.8066  -2.7672  -2.6897  -2.5531  -2.4262  -2.3366  -2.3300  -2.3088
    -2.2845  -2.2775  -2.2679  -2.2304  -2.2048  -2.1279  -2.0469  -2.0389
    -2.0121  -1.9410  -1.9141  -1.8622  -1.8532  -1.8327  -1.7652  -1.7326
    -1.6075  -1.5909  -1.5495  -1.5107  -1.4853  -1.4594  -1.4485  -1.4174
    -1.3929  -1.3731  -1.2360  -1.2171  -1.2044  -1.1879  -1.1499  -1.1363
    -1.1047  -1.0828  -1.0618  -1.0478  -0.9349  -0.9311  -0.9103  -0.8846
    -0.8782  -0.8736  -0.8673  -0.8185  -0.8066  -0.7759  -0.7465  -0.7358
    -0.6948  -0.6471  -0.6363  -0.6211  -0.5718  -0.5560  -0.5286  -0.5229
    -0.5073  -0.4858  -0.4683  -0.4619  -0.4416  -0.4385  -0.4263  -0.3776
    -0.3727  -0.3413  -0.2630  -0.2300  -0.2195  -0.1590  -0.1378  -0.1360
    -0.0757   0.0631   0.0833   0.1702   0.2053   0.2187   0.2290   0.2522
     0.2814   0.3012   0.3164   0.3405   0.3500   0.4001   0.4129   0.4617
     0.5584   0.6243   0.6413   0.6627   0.6920   0.7215   0.7311   0.7715
     0.8554   0.8743   0.8953   0.9365   0.9582   1.0003   1.0580   1.0860
     1.0950   1.1178   1.1646   1.1741   1.1900   1.1968   1.2111   1.2232
     1.2345   1.2595   1.3070   1.3863   1.4376   1.4672   1.5646   1.5748
     1.6419   1.7415   1.7536   1.7578   1.7851   1.8561   1.8801   1.8942
     1.9157   1.9281   1.9491   1.9595   1.9693   1.9824   2.0152   2.0238
     2.0365   2.1027   2.1383   2.1499   2.1805   2.1885   2.2140   2.2411
     2.3740   2.4117   2.4262   2.4740   2.4978   2.5142   2.6135   2.6383
     2.6874   3.1534   3.1615   3.2159   3.5145   3.6915   3.7214   3.7390
     3.8222   4.3545   4.3808   4.5309   4.6253   4.6583   4.6976   5.1717
     5.4078   5.8347   5.8451   5.9219   6.0740   6.1964   6.3976   6.4790
     6.5552   6.6423

          k = 0.4000-0.2309 0.0000 ( 89842 PWs)   bands (ev):

   -23.1900 -14.1044  -7.8524  -6.4744  -6.4586  -6.1037  -5.8542  -5.4395
    -4.8077  -4.5418  -4.3858  -4.3751  -4.2564  -4.0164  -3.8569  -3.7495
    -3.7130  -3.6604  -3.6519  -3.5218  -3.4948  -3.4495  -3.4323  -3.4207
    -3.3248  -3.2781  -3.2650  -3.2318  -3.2127  -3.1880  -3.1567  -3.0936
    -3.0815  -3.0798  -2.9017  -2.8186  -2.8128  -2.8103  -2.7992  -2.7819
    -2.6907  -2.5690  -2.5476  -2.5338  -2.5318  -2.5020  -2.4070  -2.3292
    -2.2416  -2.2226  -2.2072  -2.1961  -2.1613  -2.1328  -2.0867  -2.0713
    -2.0511  -2.0208  -1.9676  -1.8677  -1.8630  -1.8301  -1.8206  -1.7121
    -1.6685  -1.6498  -1.6448  -1.6126  -1.4924  -1.4382  -1.4133  -1.4091
    -1.4037  -1.3361  -1.3068  -1.2811  -1.2206  -1.1815  -1.1624  -1.1584
    -1.0692  -1.0421  -1.0347  -1.0310  -1.0131  -0.9647  -0.9408  -0.9372
    -0.9170  -0.9147  -0.9047  -0.9034  -0.8789  -0.8438  -0.7804  -0.7626
    -0.7481  -0.7401  -0.7331  -0.7141  -0.6522  -0.5843  -0.5583  -0.5315
    -0.5073  -0.4852  -0.4659  -0.4495  -0.4392  -0.3890  -0.3038  -0.2791
    -0.2606  -0.2412  -0.1954  -0.1797  -0.0616  -0.0491  -0.0225   0.0474
     0.0787   0.1224   0.1320   0.1574   0.1665   0.1801   0.1872   0.2556
     0.2637   0.2731   0.2830   0.2975   0.3244   0.3369   0.3571   0.3735
     0.4557   0.5090   0.5182   0.5401   0.6009   0.6680   0.7103   0.7131
     0.8214   0.8252   0.8986   0.9467   0.9846   1.0166   1.0292   1.0552
     1.0853   1.1076   1.1509   1.1587   1.2082   1.2250   1.2490   1.3200
     1.3337   1.3568   1.3719   1.3924   1.3951   1.4693   1.5603   1.5925
     1.6063   1.6353   1.6680   1.6777   1.7480   1.7679   1.7863   1.8575
     1.8671   1.8693   1.9159   1.9417   1.9652   1.9868   2.0192   2.0839
     2.1069   2.1089   2.1296   2.1432   2.1582   2.1643   2.2948   2.3365
     2.3649   2.3807   2.3840   2.4470   2.5508   2.5983   2.9610   3.0159
     3.0488   3.3596   3.4146   3.4259   3.5530   3.7994   3.8129   4.0275
     4.1467   4.5483   4.6351   4.6427   4.7163   4.7916   4.8886   4.9737
     5.0347   5.2429   5.2887   5.4868   5.7893   5.9469   6.2683   6.4314
     6.5648   6.7737

          k = 0.4000-0.0000 0.0000 ( 89850 PWs)   bands (ev):

   -23.1900 -14.1044  -7.8526  -6.4753  -6.4571  -6.2344  -5.8582  -5.0025
    -4.9839  -4.9311  -4.5404  -3.9281  -3.9194  -3.9143  -3.9065  -3.8629
    -3.8575  -3.8368  -3.8265  -3.7296  -3.7201  -3.3823  -3.3502  -3.3356
    -3.3262  -3.2705  -3.2470  -3.1117  -3.0978  -3.0884  -3.0836  -3.0731
    -3.0114  -2.9530  -2.9320  -2.9206  -2.9197  -2.8731  -2.8387  -2.8150
    -2.8069  -2.7671  -2.6893  -2.5392  -2.4237  -2.3347  -2.3296  -2.3097
    -2.2823  -2.2767  -2.2672  -2.2407  -2.2050  -2.1422  -2.0470  -2.0389
    -1.9956  -1.9435  -1.9131  -1.8617  -1.8514  -1.8329  -1.7665  -1.7378
    -1.6090  -1.5883  -1.5491  -1.5060  -1.4811  -1.4619  -1.4469  -1.4148
    -1.3943  -1.3732  -1.2347  -1.2162  -1.2052  -1.1862  -1.1522  -1.1320
    -1.1033  -1.0844  -1.0644  -1.0461  -0.9334  -0.9300  -0.9090  -0.8852
    -0.8774  -0.8731  -0.8681  -0.8194  -0.8073  -0.7781  -0.7457  -0.7390
    -0.6979  -0.6481  -0.6363  -0.6197  -0.5743  -0.5587  -0.5302  -0.5218
    -0.5035  -0.4836  -0.4680  -0.4647  -0.4430  -0.4375  -0.4341  -0.3760
    -0.3701  -0.3477  -0.2624  -0.2316  -0.2269  -0.1552  -0.1409  -0.1360
    -0.0685   0.0613   0.0848   0.1741   0.2057   0.2121   0.2286   0.2538
     0.2807   0.3018   0.3139   0.3386   0.3505   0.3972   0.4143   0.4636
     0.5609   0.6273   0.6369   0.6632   0.6912   0.7205   0.7330   0.7718
     0.8550   0.8774   0.8940   0.9377   0.9593   1.0015   1.0552   1.0788
     1.0953   1.1181   1.1654   1.1779   1.1890   1.1992   1.2109   1.2247
     1.2333   1.2612   1.3037   1.3945   1.4374   1.4643   1.5660   1.5763
     1.6430   1.7448   1.7511   1.7571   1.7850   1.8536   1.8806   1.8948
     1.9157   1.9270   1.9487   1.9602   1.9685   1.9816   2.0130   2.0222
     2.0377   2.1001   2.1371   2.1512   2.1783   2.1881   2.2153   2.2413
     2.3735   2.4139   2.4273   2.4754   2.4971   2.5106   2.6064   2.6393
     2.6950   3.1527   3.1741   3.2217   3.5232   3.7069   3.7160   3.7425
     3.7890   4.3566   4.3998   4.5581   4.6346   4.6487   4.7114   5.1583
     5.3496   5.8386   5.8415   5.8933   6.0834   6.2505   6.3773   6.4579
     6.5525   6.6560

          k = 0.4000 0.2309 0.0000 ( 89842 PWs)   bands (ev):

   -23.1900 -14.1044  -7.8525  -6.4761  -6.4566  -6.1039  -5.8543  -5.4392
    -4.8077  -4.5416  -4.3860  -4.3752  -4.2561  -4.0159  -3.8569  -3.7494
    -3.7128  -3.6608  -3.6520  -3.5224  -3.4945  -3.4495  -3.4321  -3.4206
    -3.3246  -3.2782  -3.2651  -3.2316  -3.2126  -3.1881  -3.1563  -3.0936
    -3.0816  -3.0800  -2.9020  -2.8184  -2.8127  -2.8105  -2.7999  -2.7822
    -2.6907  -2.5690  -2.5479  -2.5339  -2.5319  -2.5021  -2.4070  -2.3287
    -2.2416  -2.2228  -2.2071  -2.1955  -2.1615  -2.1328  -2.0873  -2.0714
    -2.0509  -2.0209  -1.9674  -1.8681  -1.8631  -1.8303  -1.8206  -1.7123
    -1.6693  -1.6501  -1.6451  -1.6125  -1.4924  -1.4383  -1.4131  -1.4087
    -1.4037  -1.3358  -1.3069  -1.2813  -1.2203  -1.1805  -1.1621  -1.1577
    -1.0691  -1.0429  -1.0344  -1.0313  -1.0132  -0.9649  -0.9410  -0.9375
    -0.9170  -0.9146  -0.9048  -0.9038  -0.8791  -0.8436  -0.7808  -0.7625
    -0.7482  -0.7402  -0.7331  -0.7141  -0.6519  -0.5840  -0.5581  -0.5313
    -0.5067  -0.4856  -0.4660  -0.4492  -0.4386  -0.3882  -0.3037  -0.2793
    -0.2608  -0.2412  -0.1952  -0.1798  -0.0614  -0.0494  -0.0224   0.0473
     0.0781   0.1222   0.1321   0.1581   0.1665   0.1795   0.1870   0.2557
     0.2633   0.2734   0.2832   0.2969   0.3241   0.3371   0.3576   0.3731
     0.4559   0.5092   0.5186   0.5399   0.6010   0.6684   0.7104   0.7131
     0.8218   0.8251   0.8985   0.9464   0.9845   1.0161   1.0292   1.0561
     1.0849   1.1075   1.1505   1.1585   1.2079   1.2248   1.2491   1.3198
     1.3337   1.3568   1.3715   1.3929   1.3950   1.4694   1.5598   1.5925
     1.6067   1.6354   1.6679   1.6780   1.7482   1.7678   1.7864   1.8568
     1.8676   1.8697   1.9162   1.9421   1.9652   1.9872   2.0195   2.0836
     2.1068   2.1093   2.1296   2.1430   2.1579   2.1637   2.2945   2.3365
     2.3644   2.3804   2.3837   2.4466   2.5508   2.5983   2.9598   3.0196
     3.0485   3.3587   3.4149   3.4258   3.5521   3.8001   3.8133   4.0272
     4.1471   4.5537   4.6347   4.6423   4.7177   4.7910   4.8897   4.9722
     5.0322   5.2417   5.2897   5.4838   5.7910   5.9449   6.2670   6.4337
     6.5641   6.7715

          k = 0.4000-0.6928 0.0000 ( 89886 PWs)   bands (ev):

   -23.1900 -14.1044  -7.8523  -6.4758  -6.4577  -5.9022  -5.6936  -5.6403
    -5.0746  -4.5514  -4.4481  -4.4321  -3.9403  -3.9163  -3.7761  -3.7443
    -3.6467  -3.6297  -3.5296  -3.5193  -3.4240  -3.4181  -3.4006  -3.3726
    -3.3602  -3.3512  -3.3404  -3.2576  -3.1969  -3.1924  -3.1603  -3.1440
    -3.0764  -2.9991  -2.9411  -2.9145  -2.8450  -2.8025  -2.7872  -2.7716
    -2.7648  -2.6928  -2.6650  -2.6118  -2.5491  -2.4560  -2.3548  -2.3393
    -2.3011  -2.2215  -2.2013  -2.1592  -2.1268  -2.0312  -1.9826  -1.9603
    -1.9429  -1.9154  -1.8709  -1.8575  -1.8394  -1.7512  -1.7483  -1.7215
    -1.7160  -1.6990  -1.6945  -1.6725  -1.6376  -1.6055  -1.5056  -1.4786
    -1.4374  -1.4174  -1.3314  -1.2848  -1.2707  -1.2640  -1.2209  -1.1934
    -1.1904  -1.1633  -1.1073  -1.0814  -1.0591  -1.0472  -1.0186  -0.9670
    -0.9531  -0.8998  -0.8667  -0.8532  -0.8435  -0.7975  -0.7226  -0.6798
    -0.6698  -0.6473  -0.6374  -0.6020  -0.5914  -0.5764  -0.5645  -0.5439
    -0.5334  -0.5044  -0.4971  -0.4585  -0.4498  -0.4330  -0.4235  -0.4204
    -0.3953  -0.3902  -0.3521  -0.3285  -0.2933  -0.1300  -0.0815  -0.0216
    -0.0063   0.0877   0.0927   0.1051   0.1322   0.1616   0.1774   0.1967
     0.2181   0.2449   0.3076   0.3257   0.3408   0.3826   0.3944   0.4578
     0.4854   0.5064   0.5888   0.6684   0.7163   0.7261   0.7541   0.7775
     0.8347   0.8447   0.8703   0.8925   0.8998   0.9221   0.9489   0.9716
     1.0404   1.0547   1.0988   1.1264   1.1368   1.1447   1.1698   1.1831
     1.2536   1.3272   1.3880   1.4340   1.4940   1.5295   1.5865   1.5980
     1.6673   1.7136   1.7220   1.7513   1.8199   1.8597   1.8916   1.9228
     1.9401   1.9461   1.9602   1.9822   2.0150   2.0782   2.1003   2.1064
     2.1347   2.1503   2.1595   2.1642   2.2289   2.3156   2.3460   2.3721
     2.3812   2.3888   2.4124   2.4528   2.5669   2.6421   2.7265   3.5024
     3.5300   3.5371   3.6705   3.7814   3.8641   3.9093   3.9212   3.9719
     4.3787   4.4995   4.5424   4.8071   4.9896   5.0011   5.1028   5.1317
     5.2563   5.3882   5.4210   5.4583   5.5082   5.8656   5.9627   6.0309
     6.2677   6.6053

          k = 0.4000-0.4619 0.0000 ( 89886 PWs)   bands (ev):

   -23.1900 -14.1044  -7.8523  -6.4747  -6.4589  -5.9017  -5.6940  -5.6404
    -5.0745  -4.5510  -4.4494  -4.4317  -3.9399  -3.9167  -3.7761  -3.7442
    -3.6464  -3.6296  -3.5298  -3.5193  -3.4246  -3.4184  -3.4000  -3.3728
    -3.3605  -3.3510  -3.3401  -3.2576  -3.1971  -3.1923  -3.1603  -3.1442
    -3.0764  -2.9993  -2.9410  -2.9142  -2.8451  -2.8023  -2.7873  -2.7713
    -2.7649  -2.6925  -2.6648  -2.6118  -2.5495  -2.4555  -2.3546  -2.3396
    -2.3018  -2.2209  -2.2012  -2.1596  -2.1268  -2.0316  -1.9831  -1.9604
    -1.9426  -1.9152  -1.8704  -1.8571  -1.8391  -1.7512  -1.7481  -1.7215
    -1.7159  -1.6989  -1.6944  -1.6726  -1.6382  -1.6052  -1.5053  -1.4787
    -1.4378  -1.4171  -1.3316  -1.2847  -1.2705  -1.2642  -1.2210  -1.1941
    -1.1911  -1.1635  -1.1070  -1.0814  -1.0590  -1.0470  -1.0186  -0.9673
    -0.9523  -0.9003  -0.8658  -0.8527  -0.8436  -0.7975  -0.7232  -0.6799
    -0.6696  -0.6473  -0.6374  -0.6018  -0.5914  -0.5767  -0.5650  -0.5441
    -0.5338  -0.5047  -0.4976  -0.4572  -0.4501  -0.4332  -0.4234  -0.4204
    -0.3956  -0.3898  -0.3518  -0.3290  -0.2932  -0.1298  -0.0818  -0.0219
    -0.0062   0.0870   0.0929   0.1053   0.1321   0.1614   0.1777   0.1968
     0.2185   0.2449   0.3078   0.3257   0.3403   0.3821   0.3948   0.4578
     0.4856   0.5060   0.5886   0.6684   0.7163   0.7264   0.7541   0.7778
     0.8347   0.8447   0.8704   0.8923   0.8996   0.9222   0.9494   0.9717
     1.0407   1.0549   1.0991   1.1264   1.1368   1.1448   1.1698   1.1825
     1.2532   1.3274   1.3875   1.4338   1.4944   1.5293   1.5865   1.5983
     1.6671   1.7140   1.7222   1.7509   1.8200   1.8596   1.8915   1.9224
     1.9399   1.9461   1.9596   1.9822   2.0152   2.0787   2.1005   2.1064
     2.1343   2.1501   2.1595   2.1642   2.2287   2.3160   2.3462   2.3722
     2.3814   2.3891   2.4130   2.4528   2.5670   2.6423   2.7259   3.5011
     3.5299   3.5373   3.6699   3.7842   3.8634   3.9079   3.9195   3.9734
     4.3801   4.4991   4.5423   4.8017   4.9901   5.0014   5.1027   5.1311
     5.2538   5.3891   5.4224   5.4574   5.5133   5.8693   5.9621   6.0295
     6.2709   6.6066

     the Fermi energy is     2.1510 ev

!    total energy              =  -27837.15383895 Ry

     total all-electron energy =  -1326948.294341 Ry
     estimated scf accuracy    <       0.00000088 Ry
     smearing contrib. (-TS)   =       0.00153526 Ry
     internal energy E=F+TS    =  -27837.15537421 Ry

     The total energy is F=E-TS. E is the sum of the following terms:
     one-electron contribution =  -27397.34859289 Ry
     hartree contribution      =   14006.21156293 Ry
     xc contribution           =    -908.68381474 Ry
     ewald contribution        =   11959.87857365 Ry
     one-center paw contrib.   =  -25497.21310316 Ry

     convergence has been achieved in  21 iterations

     negative rho (up, down):  1.324E-02 0.000E+00

     Forces acting on atoms (cartesian axes, Ry/au):

     atom    1 type  1   force =     0.00002037    0.00015068   -0.00864250
     atom    2 type  1   force =    -0.00089835    0.00012545   -0.00329450
     atom    3 type  1   force =     0.00088809    0.00012311   -0.00329099
     atom    4 type  1   force =    -0.00045477   -0.00085168   -0.00325958
     atom    5 type  1   force =     0.00000541    0.00003086   -0.00388717
     atom    6 type  1   force =     0.00045398   -0.00083502   -0.00323667
     atom    7 type  1   force =     0.00069293    0.00071749   -0.00322080
     atom    8 type  1   force =    -0.00068871    0.00071878   -0.00320731
     atom    9 type  1   force =    -0.00000298   -0.00005886   -0.00328080
     atom   10 type  1   force =     0.00015463    0.00026147    0.00184166
     atom   11 type  1   force =    -0.00002744    0.00223035    0.00845348
     atom   12 type  1   force =    -0.00024496    0.00033818    0.00185561
     atom   13 type  1   force =     0.00199054   -0.00084143    0.00840091
     atom   14 type  1   force =    -0.00202508   -0.00084072    0.00851414
     atom   15 type  1   force =    -0.00004457    0.00042692    0.00191470
     atom   16 type  1   force =    -0.00001332   -0.00023495    0.00150149
     atom   17 type  1   force =     0.00035203   -0.00021961    0.00183337
     atom   18 type  1   force =    -0.00043434   -0.00021135    0.00170713
     atom   19 type  1   force =    -0.00005817    0.00009719   -0.00025578
     atom   20 type  1   force =     0.00001838    0.00005155    0.00005538
     atom   21 type  1   force =    -0.00000844    0.00006097    0.00000161
     atom   22 type  1   force =    -0.00004286    0.00004931   -0.00019080
     atom   23 type  1   force =     0.00001133    0.00005831    0.00016928
     atom   24 type  1   force =    -0.00008297    0.00005910   -0.00021461
     atom   25 type  1   force =    -0.00006453   -0.00002373   -0.00023229
     atom   26 type  1   force =     0.00006263   -0.00006521   -0.00022159
     atom   27 type  1   force =    -0.00002293    0.00001132   -0.00029030
     atom   28 type  1   force =     0.00001100   -0.00002527   -0.00019874
     atom   29 type  1   force =    -0.00001214   -0.00003186   -0.00003100
     atom   30 type  1   force =    -0.00008081   -0.00003842   -0.00006842
     atom   31 type  1   force =     0.00000154   -0.00002646   -0.00021044
     atom   32 type  1   force =     0.00023343   -0.00012490    0.00103021
     atom   33 type  1   force =    -0.00003517   -0.00005303   -0.00018588
     atom   34 type  1   force =     0.00007285   -0.00006545    0.00006988
     atom   35 type  1   force =    -0.00004905   -0.00009919    0.00010244
     atom   36 type  1   force =    -0.00002829    0.00000814   -0.00013822
     atom   37 type  2   force =     0.00275827   -0.00182280    0.00173852
     atom   38 type  2   force =    -0.00013439    0.00006643    0.00075677
     atom   39 type  3   force =     0.00013015   -0.00020158   -0.00001204
     atom   40 type  4   force =    -0.00060187    0.00016013   -0.00045698
     atom   41 type  4   force =    -0.00180142    0.00092575   -0.00191917

     Total force =     0.004973     Total SCF correction =     0.002360
     SCF correction compared to forces is large: reduce conv_thr to get better values

     negative rho (up, down):  1.324E-02 0.000E+00

     negative rho (up, down):  1.324E-02 0.000E+00

     negative rho (up, down):  1.324E-02 0.000E+00

     negative rho (up, down):  1.324E-02 0.000E+00

     negative rho (up, down):  1.324E-02 0.000E+00

     negative rho (up, down):  1.324E-02 0.000E+00

     negative rho (up, down):  1.324E-02 0.000E+00

     negative rho (up, down):  1.324E-02 0.000E+00

     negative rho (up, down):  1.324E-02 0.000E+00

     negative rho (up, down):  1.324E-02 0.000E+00

     negative rho (up, down):  1.324E-02 0.000E+00

     negative rho (up, down):  1.324E-02 0.000E+00

     negative rho (up, down):  1.324E-02 0.000E+00

     negative rho (up, down):  1.324E-02 0.000E+00

     negative rho (up, down):  1.324E-02 0.000E+00

     negative rho (up, down):  1.324E-02 0.000E+00

     negative rho (up, down):  1.324E-02 0.000E+00

     negative rho (up, down):  1.324E-02 0.000E+00

     negative rho (up, down):  1.324E-02 0.000E+00

     negative rho (up, down):  1.324E-02 0.000E+00

     negative rho (up, down):  1.324E-02 0.000E+00

     negative rho (up, down):  1.324E-02 0.000E+00

     negative rho (up, down):  1.324E-02 0.000E+00

     negative rho (up, down):  1.324E-02 0.000E+00

     negative rho (up, down):  1.324E-02 0.000E+00

     negative rho (up, down):  1.324E-02 0.000E+00

     negative rho (up, down):  1.324E-02 0.000E+00

     negative rho (up, down):  1.324E-02 0.000E+00

     negative rho (up, down):  1.324E-02 0.000E+00

     negative rho (up, down):  1.324E-02 0.000E+00

     negative rho (up, down):  1.324E-02 0.000E+00

     negative rho (up, down):  1.324E-02 0.000E+00

     negative rho (up, down):  1.324E-02 0.000E+00

     negative rho (up, down):  1.324E-02 0.000E+00
 BEEFens 2000 ensemble energies
             -0.608369824730182E+02
             -0.362359811905256E+01
             -0.158748892797882E+02
              0.430562037641996E+02
             -0.221779772958832E+02
             -0.205833578215507E+02
             -0.353271444534087E+02
             -0.867308523629674E+02
             -0.466293440296521E+02
             -0.473837424168512E+02
             -0.370270983924660E+02
              0.229506608908801E+01
              0.408047179961147E+01
              0.764140267570423E+01
              0.266305239054051E+01
              0.476084426565803E+02
             -0.209331173203645E+02
             -0.230669699496938E+02
              0.193377318149115E+02
             -0.112680832530438E+03
              0.537794391263306E+02
             -0.290439561941445E+02
             -0.334966911494675E+01
             -0.114400703481978E+02
             -0.884753951707023E+01
             -0.463959186759826E+01
              0.885031550109570E+02
             -0.187548016693361E+02
             -0.902424272990061E+01
             -0.519710403050013E+02
              0.817455165184570E+02
             -0.187712634646577E+02
             -0.375871750725270E+02
              0.249874808680484E+02
             -0.285115615757758E+01
              0.164572243310084E+02
             -0.485669011906339E+01
              0.108323676727950E+02
              0.289154394428350E+02
             -0.103528262253056E+03
              0.559850738973437E+02
              0.142715553953894E+02
             -0.172854753060244E+01
             -0.362443985724949E+02
              0.123442293261876E+02
             -0.147284186949745E+02
              0.399425820784837E+02
              0.365760179258706E+02
             -0.308777914977047E+02
             -0.275800818326433E+02
             -0.329158174310686E+02
             -0.353049192018182E+02
              0.136776538046796E+02
             -0.492115784438204E+02
              0.115939994166456E+02
              0.624804855770881E+02
              0.637079230282300E+02
              0.356848097096410E+02
              0.154475786081149E+02
              0.271297529205442E+02
              0.893733662161103E+02
              0.213104965722733E+02
             -0.549946820287754E+02
             -0.157470264545907E+02
             -0.236580549699766E+02
              0.631396223455663E+02
             -0.775454911043269E+02
             -0.673516059929590E+02
             -0.260241246236262E+02
             -0.651322109853652E+01
             -0.471901633899499E+02
              0.271382967729845E+02
              0.803169470997989E+01
              0.869818764606299E+01
             -0.398325684461498E+02
             -0.347753326857821E+02
             -0.543257390096524E+02
              0.391221138091889E+02
             -0.296787418375513E+02
              0.265991787190339E+02
             -0.717902773071295E+01
             -0.318800256650480E+02
             -0.577683900646441E+02
             -0.177011316730041E+02
             -0.907432232107521E+01
             -0.124996591685936E+02
              0.413306707144107E+02
              0.684709225627949E+02
             -0.386676359583416E+02
             -0.796698182140885E+02
             -0.220194362488094E+02
              0.111791395357337E+03
             -0.594009449253683E+02
              0.356968985273583E+02
             -0.959960804992056E+01
             -0.664893461219332E+02
              0.255108588791722E+02
              0.398955894001359E+02
             -0.199303625657349E+02
              0.401258220802821E+02
             -0.296709449874440E+02
             -0.479564867969366E+02
              0.868094096745854E+02
              0.455010537027817E+02
              0.337353128810581E+02
              0.146788431035578E+02
              0.206187135482729E+02
              0.858710552278265E+02
             -0.257383138428139E+02
              0.790020581945060E+01
             -0.142761601495951E+03
              0.181528521625183E+02
             -0.718008488497722E+02
              0.151424025495760E+02
              0.205160399904416E+02
             -0.333806818735535E+02
             -0.558609872422302E+02
              0.655077867232683E+01
             -0.305005944761310E+02
              0.308654445958999E+02
             -0.531209471825539E+02
              0.171971331112570E+01
             -0.357875166030320E+02
             -0.425069022450316E+01
             -0.103155320158052E+01
              0.181766023868114E+02
              0.142268816523506E+01
             -0.653500759784833E+01
              0.592021298308544E+02
              0.910649982579808E+02
              0.485366926575378E+02
              0.832362773639467E+02
             -0.115482261723338E+02
              0.143354110894030E+02
              0.542515990176049E+02
             -0.111028045679686E+02
             -0.737796555809257E+02
             -0.385258421600171E+02
             -0.523167178004657E+02
             -0.277469390207235E+02
              0.328100406382343E+02
             -0.117082043760156E+03
             -0.187593995549454E+02
              0.415139778530080E+02
             -0.387257409263752E+02
             -0.366215252208253E+02
              0.545622393205190E+02
              0.401719307535355E+02
             -0.354895772463320E+02
              0.138132653141268E+02
             -0.273980679152945E+02
              0.344061397557882E+02
              0.446633263466703E+01
              0.211618952878057E+02
             -0.887038782516291E+02
             -0.481470731432612E+02
             -0.999220364923508E+01
              0.322391742939288E+01
             -0.367732550675445E+02
              0.106292001407274E+03
             -0.231464231399872E+02
             -0.399754998968278E+02
              0.389715306970243E+02
             -0.495384825952033E+02
             -0.364276466991939E+02
              0.325760934313150E+02
              0.124806913119904E+02
              0.165174993367482E+02
              0.116884894050057E+02
             -0.133148844805166E+02
              0.225697412752854E+02
              0.591571181589916E+02
             -0.312380023065757E+02
              0.162846016145598E+02
              0.936850424102428E+02
              0.341598086733092E+02
             -0.730310773707401E+01
             -0.189121878836855E+02
              0.153736830368248E+03
             -0.164510891441217E+02
              0.364280242716050E+02
              0.194966901496019E+02
              0.362414780732784E+02
              0.894209108317776E+02
              0.544236158846396E+02
             -0.240238169505400E+01
              0.228354248013736E+02
              0.486055737131194E+02
              0.364418374549419E+02
             -0.526895564165267E+02
              0.938424463922474E+02
             -0.827785549535355E+02
             -0.198503936948793E+02
              0.584269063692007E+02
              0.679451935452536E+01
              0.790648233480147E+01
              0.341615842554591E+02
              0.299893773907675E+02
              0.354472251344110E+02
             -0.639133144284142E+02
              0.286955159460376E+01
             -0.298304781328115E+02
             -0.871518964370945E+01
             -0.146284120758617E+01
             -0.724985837165200E+01
             -0.416477442404829E+01
              0.861555719561906E+02
             -0.101356283411699E+02
             -0.277100623108797E+02
             -0.497852757532402E+01
              0.140312120415379E+02
             -0.565397471434270E+02
             -0.408467845778542E+02
             -0.383012797932274E+02
             -0.631819619215289E+02
             -0.170089971693339E+02
             -0.448535057001424E+02
              0.163744936361067E+02
             -0.239167706762434E+01
             -0.104716514627329E+02
             -0.936001138342326E+01
              0.809421598805721E+01
             -0.243251909854660E+02
              0.691149755001507E+02
             -0.809265570989024E+02
             -0.141451839688407E+02
             -0.174478454409171E+02
              0.182469090232430E+02
              0.215124292663556E+02
             -0.464970765275120E+02
             -0.202192092311838E+02
              0.442056290585121E+02
             -0.276891210630762E+02
              0.187527457292413E+02
              0.383848616946153E+02
             -0.322465694401774E+01
              0.114420300028120E+03
             -0.230447794118982E+02
             -0.341743894446456E+02
              0.579612633993321E+01
             -0.228840754370331E+02
              0.528952578519690E+02
             -0.338197334810438E+02
              0.106775188573805E+02
              0.642015597077367E+02
             -0.126637058905229E+02
              0.120539756403806E+03
              0.126190344680549E+03
             -0.651504898551409E+02
              0.592018499538352E+02
              0.166963782675513E+02
             -0.519094616931841E+02
              0.216590105960063E+02
              0.354858408019617E+02
              0.363703781996705E+02
              0.135215291081624E+01
              0.160148533952590E+02
              0.697700589372959E+02
             -0.247572901626000E+02
              0.181832780457877E+02
              0.740836153071893E+02
             -0.373519412726645E+02
             -0.130204173571601E+02
              0.509921917695144E+02
              0.298213755459815E+02
              0.782085130167070E+02
              0.223406363571264E+02
              0.627618785612668E+01
              0.281070978624656E+02
              0.384317226411692E+02
             -0.473179501954103E+02
              0.333493894556904E+01
              0.130290298879570E+02
              0.114046041568262E+02
              0.221172682666718E+02
             -0.576410758857849E+02
              0.366895973456016E+02
             -0.444985900601447E+02
             -0.348289535242465E+02
              0.178530602366238E+02
             -0.181838929535820E+02
              0.556451928313577E+02
             -0.256505858244889E+02
              0.267382887078646E+02
              0.369032955454702E+02
              0.831229655375548E+02
              0.576146974632717E+02
              0.463043754039552E+02
             -0.105610293087512E+02
             -0.392438297106781E+01
             -0.333002384973153E+02
              0.752600890327458E+02
              0.799192818038032E+02
              0.362793875124025E+02
             -0.192549510905218E+02
              0.513069360841499E+02
             -0.163100284894908E+02
              0.215237796994839E+02
              0.616138137060948E+02
              0.214065751087008E+01
             -0.104728731731753E+02
             -0.283535512429494E+02
             -0.513124860053226E+02
              0.947736040466997E+02
              0.441042328665139E+02
             -0.560519794478574E+02
             -0.965923606493203E+01
              0.250461050479736E+02
             -0.998415897210654E+01
              0.593684240228939E+02
              0.152432583718970E+02
              0.801208836953385E+02
              0.280283284109276E+02
             -0.264462001133760E+02
              0.249368217456036E+02
             -0.502572974329365E+01
             -0.324371546310587E+02
              0.133402594754514E+02
              0.206026345658810E+02
              0.935267797307378E+02
              0.799413228292458E+02
              0.552494662161334E+02
              0.732470599583392E+02
              0.802582981680962E+01
             -0.274369347471517E+02
              0.163568653484273E+02
             -0.368868303479021E+02
             -0.477645982446430E+02
             -0.565004447200356E+02
             -0.267210936769239E+02
             -0.109981894538494E+03
             -0.292211377731662E+02
             -0.839571354535406E+02
              0.210642737963820E+02
             -0.478282699651715E+02
              0.397931816620377E+02
             -0.943964130630510E+02
             -0.330873697142410E+02
              0.549741661954596E+02
              0.208162465472725E+02
             -0.832810998538250E+02
              0.632506043906849E+02
             -0.257509856375584E+02
              0.513807019593842E+02
             -0.243129629760424E+02
             -0.753323155996720E+02
              0.112220592631494E+02
             -0.612954351181796E+02
             -0.168549799635717E+02
             -0.150284158988882E+01
              0.419275833106899E+02
              0.127338036457602E+03
             -0.462844993422860E+02
             -0.363435576669659E+02
             -0.980068276947065E+00
             -0.130675870756611E+02
             -0.824652037085990E+02
             -0.598308251418359E+02
              0.518461015360548E+02
             -0.289707907954285E+02
              0.169770644466818E+02
             -0.490676113657528E+02
             -0.132260275964717E+02
             -0.438302190345433E+02
              0.566994338527784E+02
              0.151308021969835E+02
             -0.232291756096485E+02
             -0.127438023433545E+02
              0.669570017303516E+01
             -0.621266692281000E+01
              0.442706672649257E+02
             -0.252652052411855E+02
              0.279792108579545E+01
              0.340280316194095E+02
              0.171624744470103E+02
             -0.160357363165327E+02
              0.156668074078004E+03
              0.539569028738664E+02
              0.117391673002246E+01
              0.161882577367373E+02
             -0.616483024847681E+02
              0.315756927233727E+02
             -0.723641955582504E+02
             -0.252713083420470E+02
             -0.524099854108711E+02
             -0.220654976783954E+02
              0.570652735520631E+02
             -0.538425441878836E+02
              0.161419787405991E+02
             -0.410200234053445E+01
              0.387902369276364E+01
             -0.434972757304601E+02
             -0.479426025202205E+02
             -0.403283021722689E+01
             -0.425888699553890E+02
             -0.217659374297933E+02
             -0.439724472628175E+02
             -0.119499954377842E+02
             -0.359932285474948E+02
             -0.517853221567188E+02
              0.213315033766340E+02
             -0.209735199100938E+02
              0.188283898996120E+02
              0.977050262129008E+01
             -0.739937719523377E+02
             -0.549400805816453E+02
             -0.399342278855002E+02
              0.355102454112091E+02
              0.271076374448700E+01
             -0.628259309199898E+02
              0.587277314711666E+02
             -0.402230604624150E+02
              0.546375429858533E+02
             -0.290408062836348E+02
             -0.447100529248121E+02
              0.299166677061870E+02
             -0.659418829833921E+02
             -0.380982412541020E+02
              0.674393126144737E+02
              0.204606185141225E+02
             -0.361248809064903E+02
              0.490864224022611E+02
             -0.174483578320588E+02
             -0.323752720385145E+02
             -0.302634029458454E+02
             -0.501986052714880E+02
              0.250074128312884E+02
             -0.935445169991864E+02
             -0.842423724193534E+02
             -0.735460646301715E+01
             -0.307492309574777E+02
             -0.577201961781605E+02
              0.723777894151597E+02
              0.131873845946170E+03
             -0.361803519642188E+02
             -0.256098271604969E+01
             -0.638798526600658E+02
              0.652182343158294E+02
              0.171249257250965E+02
             -0.182298660286600E+02
             -0.411037292313204E+02
              0.148992410786442E+02
             -0.587621756909690E+02
             -0.198313996346399E+02
             -0.907009102701364E+02
              0.337910790654871E+02
              0.169336164557360E+02
              0.184131296091016E+01
             -0.708774286491996E+01
             -0.330743053897040E+02
             -0.761086229569923E+01
              0.125872620894215E+03
             -0.199377340858031E+02
             -0.438704057901545E+02
             -0.685729497931257E+02
              0.109549265982783E+02
             -0.343152240896842E+02
              0.592970184003309E+01
              0.262250407880290E+02
              0.102407155519870E+02
              0.278715604125101E+02
              0.120313069016584E+02
              0.631248915392099E+02
              0.317441861459764E+02
             -0.327485686369988E+02
              0.356662604795557E+02
              0.380464121146189E+02
              0.121156064753402E+02
              0.488349950170755E+02
             -0.225499160158803E+02
              0.767777026699115E+02
              0.172839726749254E+02
             -0.272917967265065E+02
             -0.725833531634407E+01
             -0.186866025615334E+02
              0.262417924320352E+02
             -0.234914429566697E+02
             -0.138887583275022E+00
             -0.852145839839591E+01
              0.811737546498108E+02
              0.501426991179874E+02
             -0.688739406423140E+02
             -0.478558478780295E+01
             -0.556781466841015E+02
             -0.159795817062394E+02
             -0.269019453780693E+02
              0.377856885546737E+01
              0.598584532113549E+00
             -0.258367777862517E+02
              0.816211444002897E+01
             -0.604773308000026E+01
             -0.128844001500154E+02
              0.861203982142036E+02
              0.182268016102150E+02
             -0.809135143254315E+02
             -0.459566599804962E+02
              0.947474481184463E+02
              0.278572392694422E+02
             -0.107088354903220E+02
              0.104842339867826E+03
             -0.195223954994456E+02
             -0.123289915971978E+02
             -0.541376019828158E+01
              0.107740073795580E+02
              0.273260912308544E+02
              0.782820064410021E+01
              0.306144678083605E+02
             -0.188339615222585E+02
             -0.304786016459045E+02
             -0.419046689936448E+02
             -0.478182734323109E+02
              0.465244038412198E+02
              0.127143310709703E+02
              0.388694182488515E+02
              0.133904306263991E+02
              0.857898683139260E+02
              0.156907651709098E+02
             -0.848296496841263E+02
             -0.335313661536912E+02
              0.134051858275849E+02
             -0.303626958502049E+02
              0.628304102875210E+02
             -0.889150419951648E+01
              0.149125947452593E+02
              0.498587659627340E+02
             -0.709279879089460E+02
              0.150133364615678E+03
              0.209220564570757E+02
              0.272032332385382E+02
              0.348598402568006E+02
              0.104026437628240E+02
             -0.156232569805968E+01
              0.359339491467304E+02
             -0.358187067241882E+02
              0.775463604056694E+02
              0.686725592480041E+02
             -0.407136022331429E+02
              0.149982743921946E+02
              0.672029176127796E+02
             -0.224475913121352E+02
              0.154832471784041E+02
              0.436188483314705E+02
              0.423279283460760E+02
             -0.786955820446132E+02
             -0.153062209537420E+02
             -0.357009083846667E+02
             -0.150070000847614E+01
             -0.768459599534646E+01
             -0.544066932737780E+01
             -0.181065756207736E+02
             -0.294738094197130E+02
              0.636484005389815E+01
              0.111989354183268E+02
              0.537108468348835E+02
             -0.391453124241446E+02
              0.375567128582871E+02
              0.439796914423654E+02
             -0.187046639256429E+02
              0.874559959099105E+02
             -0.699748395881661E+02
             -0.103464210352594E+03
             -0.661409350557551E+01
             -0.269705867030780E+01
              0.386105055665348E+01
              0.791650283522575E+02
             -0.107289658530205E+02
              0.417762368071232E+02
              0.445062921039567E+02
              0.386301231684173E+02
             -0.997767172996896E+01
              0.629142854414824E+02
             -0.133916865359643E+02
             -0.308374593363261E+02
             -0.480627256396109E+02
              0.589762121042548E+01
              0.370511287384783E+02
             -0.604744400069492E+01
              0.394029099854891E+02
             -0.175881607956694E+01
              0.656850687774494E+02
              0.187754887090511E+02
              0.100057812858526E+02
             -0.121998506772027E+02
              0.333016154211382E+02
              0.363497735293695E+02
              0.233256396568382E+02
             -0.511224786161307E+00
             -0.552108277360963E+02
              0.261438116331248E+02
              0.175697593447634E+02
              0.403701892773115E+02
              0.272955038751801E+02
              0.373438222179664E+02
             -0.604942085846588E+01
              0.251902674831854E+02
             -0.299367001308135E+02
             -0.199122731108548E+01
             -0.570769083056337E+02
             -0.308693247034497E+02
              0.379874890421691E+02
             -0.938166756689865E+02
              0.295129218810514E+02
              0.184602156557850E+02
              0.842596418220619E+02
             -0.301080991107510E+02
              0.330411401848001E+02
             -0.137999786112935E+02
             -0.465184036074430E+02
             -0.763570746646352E+02
             -0.528376528694336E+01
             -0.862385060793030E+02
              0.200149596181236E+02
             -0.248233396287058E+02
              0.306639662871359E+02
              0.237646248092217E+02
             -0.241910566762120E+02
             -0.266270778418914E+02
              0.391937319243153E+02
             -0.589991412030046E+02
             -0.117120116975516E+02
             -0.196599226050519E+02
              0.213436559458614E+02
             -0.891628902423139E+01
              0.362956271407592E+01
             -0.201115713162686E+02
              0.560291472163465E+02
             -0.440911031389450E+02
              0.790115376880158E+01
              0.587172426191973E+02
             -0.324334742327774E+02
              0.362300243681895E+01
             -0.882472661690417E+01
             -0.671186920804498E+02
             -0.483737387782575E+02
             -0.862346963199636E+01
              0.241509354825423E+02
              0.303198871189834E+02
              0.862313287120315E+01
             -0.416117181334835E+01
              0.152279921591931E+02
             -0.441015245727760E+02
              0.331787494537895E+01
             -0.532646335467035E+02
             -0.325667362069852E+02
              0.476015223633490E+02
             -0.296007107711403E+02
              0.624239812646275E+02
             -0.215393826716396E+02
              0.354588047758217E+02
              0.242440375969628E+02
             -0.645767032881881E+02
             -0.281140932219442E+02
              0.935195563723005E+01
             -0.372864265310028E+02
             -0.340550385011524E+02
             -0.832185829993525E+02
             -0.540800734271622E+02
             -0.511809925770394E+02
             -0.416770065834403E+02
             -0.988527226082880E+00
              0.998850110137906E+01
              0.105304907963830E+01
              0.153732780088664E+02
             -0.550867528635644E+02
              0.142306503249971E+02
              0.257687953692059E+02
             -0.668650438347397E+02
             -0.703839832505290E+02
             -0.432523032576975E+02
             -0.172687201802037E+02
              0.178881879547509E+02
              0.456260857552422E+01
             -0.427074412920647E+02
              0.367170723578531E+02
             -0.216811218772050E+02
              0.518858375927144E+02
             -0.889671958276194E+02
              0.599397204569528E+02
             -0.213972734647642E+01
             -0.369609769577815E+02
             -0.216916804329351E+02
              0.472236712279052E+01
              0.375757489618359E+02
             -0.758412932550442E+02
             -0.121092937988601E+02
             -0.217264982875288E+02
              0.512453676654049E+02
              0.867201623112989E+02
             -0.967971806089513E+02
              0.946560791906561E+02
              0.468874886406706E+02
             -0.727457087764867E+02
             -0.367612348553473E+02
              0.754092964419348E+02
              0.633632711951227E+02
             -0.181784257678430E+02
[...]
              0.284296163581118E+02
              0.142159071711206E+03
              0.243090753015207E+02
              0.122927556527026E+02
             -0.465477674055001E+02
             -0.639255146257000E+02
             -0.189497068798534E+02
              0.330595491554001E+02
             -0.428950858893791E+01
              0.190615451180984E+02
              0.336996561872692E+02
             -0.587905837557791E+02
              0.223077460415874E+02
              0.583202748146276E+02
              0.554228083308275E+02
             -0.420264023402405E+01
             -0.136757700117789E+01
             -0.995932578576938E+01
             -0.483482667197681E+02
             -0.676626203506147E+02
              0.787373100123486E+02
             -0.524592228759684E+01
             -0.589340457210097E+02
              0.172234977456216E+01
             -0.205904378765717E+02
              0.940816835451681E+02
             -0.217108982790536E+02
             -0.354477723829496E+02
              0.336184040918050E+02
             -0.146192472194151E+02
              0.390631645113857E+02
             -0.236921735690578E+01
              0.101328440026484E+03
              0.490931343680172E+02
             -0.510139890619801E+01
             -0.322805635266085E+02
              0.232984950209881E+02
             -0.529848895641921E+02
             -0.128104442925454E+02
              0.587197843749618E+02
             -0.288393417810595E+02
             -0.439373815117218E+02
             -0.223727061203269E+02
              0.519922398123169E+02
              0.125057697623513E+02
             -0.850955457506428E+02
              0.304710113129008E+02
              0.152474172615015E+02
              0.579447226761016E+01
             -0.514717965201075E+02
             -0.377585357077805E+01
              0.323867084218785E+02
              0.514037772785276E+02
              0.634281529279373E+02
              0.229685350288064E+02
              0.761041682360514E+00
             -0.499335262281226E+02
             -0.511291718276989E+02
             -0.749607921245581E+02
             -0.617624622025289E+01
              0.309840602573424E+02
             -0.379676067366077E+01
              0.548191910168991E+02
             -0.318792214341490E+02
              0.166749497906395E+02
             -0.103061045242823E+02
             -0.290346044405472E+02
              0.587174821401751E+02
              0.793941896158208E+01
              0.605859316659464E+02
              0.511735881500738E+01
              0.265571112849779E+02
             -0.193159041846301E+02
              0.587614855498133E+02
             -0.111876333970661E+02
             -0.116733802468520E+00
             -0.792119328629202E+02
             -0.128598035003678E+02
              0.720851732928849E+02
              0.674792434201332E+02
              0.252515436719155E+02
             -0.130700689801039E+02
              0.345440312613863E+01
             -0.174030300624165E+02
             -0.208020602542632E+01
              0.910094838667876E+02
              0.125012027562195E+01
             -0.190959748293433E+02
             -0.111016857989844E+03
             -0.553816530003946E+02
             -0.376029870389921E+02
             -0.660178394195437E+02
             -0.556972176847506E+02
             -0.684307648533768E+02
             -0.448247390941413E+02
             -0.411776711111414E+02
             -0.453005218519118E+02
              0.484704902779688E+02
             -0.294758622809704E+02
             -0.997651189666822E+02
              0.420049659567660E+02
             -0.260709281585673E+02
             -0.792727562878586E+02
              0.946199274125038E+02
             -0.220167541757435E+02
              0.228559565185118E+02
              0.456206631027977E+02
             -0.133283540539253E+01
              0.255011509040850E+02
              0.471698029853820E+01
              0.412429660679571E+00
             -0.151061381352049E+02
             -0.717601048219871E+02
              0.133558784250635E+02
             -0.129695618611916E+03
              0.625789709109501E+02
             -0.441671403936173E+02
             -0.163311720218063E+02
             -0.158504166391119E+02
              0.717879534317025E+01
             -0.228208429339688E+02
              0.297793490164595E+02
             -0.521843083113588E+02
              0.368112452022408E+02
              0.371922515497609E+02
              0.168645893840342E+02
              0.100838014890330E+02
              0.198340658046296E+02
              0.624406323935733E+01
              0.311054632402499E+02
             -0.801368117105250E+01
             -0.593901817711927E+02
              0.759170426767508E+01
             -0.153133157481345E+02
             -0.194474567492466E+01
              0.507597867269322E+02
             -0.828870631510172E+02
             -0.148484093641031E+01
              0.584443583227142E+00
              0.998114962529934E+01
              0.319189670482097E+02
             -0.123847564830859E+02
              0.837622619401917E+02
              0.488691639746914E+02
             -0.183690930908814E+02
             -0.957301389571887E+01
              0.107320452767948E+01
              0.771366093812703E+02
             -0.587516366492312E+02
             -0.106023081138504E+03
              0.309973393488963E+02
             -0.163613782939369E+02
             -0.139899642599827E+02
              0.130829991643215E+02
              0.770359107706552E+02
              0.465318703632022E+02
             -0.153813644063463E+02
             -0.504202147674441E+02
             -0.551063135494195E+01
              0.307122394431286E+02
             -0.111920380103534E+02
             -0.757637897070022E+02
             -0.273108023449811E+01
             -0.892110064134896E+02
             -0.476734260031684E+02
              0.770484902221769E+02
             -0.484746788542389E+02
             -0.638187139329418E+02
             -0.515627822529834E+02
             -0.350679330087510E+02
              0.341874953578642E+02
              0.823668250344063E+02
             -0.359301414134757E+01
              0.277202262309274E+02
             -0.184323418060991E+02
             -0.695609397886090E+02
              0.466210327020007E+02
             -0.446169421311114E+02
              0.322418374435031E+02
              0.377130257806047E+02
             -0.658800013375026E+01
              0.391296201659356E+02
              0.439341227512629E+02
              0.100918528180697E+03
             -0.156279612796982E+02
             -0.457280787803296E+02
             -0.614240430921820E+02
             -0.124204379353260E+02
             -0.233757793179644E+02
              0.103259836831705E+03
             -0.450163735898020E+02
              0.105398283790512E+02
              0.972797355761810E+01
             -0.265217626893022E+02
             -0.800915943572545E+02
             -0.701152228764596E+01
              0.982300233796619E+02
              0.941083550232401E+01
              0.810302324902210E+01
             -0.528312815953066E+02
             -0.606851728236622E+02
             -0.564574308548904E+01
              0.501522837748340E+02
             -0.222466224145753E+02
              0.108223700951799E+03
             -0.436768441609975E+02
              0.146735849880745E+02
             -0.224587069327733E+02
             -0.720185794343157E+02
              0.168228739402741E+01
             -0.502832923326694E+02
             -0.762444240768709E+02
              0.618374846090978E+01
              0.236032582101933E+01
              0.515359824491910E+02
              0.187780198716905E+02
             -0.324384331322414E+02
              0.230524720611675E+02
             -0.813045975567627E+02
             -0.522886612257821E+02
              0.903919785648909E+02
              0.142575208755158E+02
             -0.188260393359117E+02
             -0.353220468095873E+02
             -0.270801829490745E+01
             -0.588816137943729E+01
              0.832459723265307E+02
              0.418784447311656E+02
             -0.166323202327859E+02
             -0.121976114932293E+02
             -0.428636752874485E+02
             -0.201105698980794E+02
             -0.671553501938134E+02
              0.460870336623051E+02
              0.548151675509158E+01
              0.145151786828424E+02
              0.156565644369331E+02
             -0.573312521708285E+00
             -0.168877063288567E+02
             -0.307067552384119E+01
             -0.100674028163627E+03
             -0.230421286190343E+02
             -0.767337759015533E+01
             -0.950118865291637E+01
              0.547536238455907E+02
              0.625329444695103E+02
              0.165178231210840E+02
             -0.972843978343555E+02
              0.648960188249085E+02
             -0.215441006027742E+02
             -0.377899332736424E+02
             -0.866254248082927E+02
             -0.387774121488937E+02
              0.565975536648677E+02
              0.244999236805857E+02
              0.516655370239494E+01
              0.293000253708337E+02
             -0.566194577165628E+02
             -0.423367801379581E+02
              0.516596154566973E+02
              0.388097529140408E+02
              0.520028380503753E+02
             -0.120193026822116E+01
              0.687968710805609E+01
              0.570765695581650E+02
              0.965054299943424E+02
             -0.300816838429263E+02
              0.323702447050418E+02
             -0.119093767341434E+02
             -0.413158057797851E+02
             -0.315095074074508E+02
             -0.300971163032529E+02
             -0.131660334780206E+02
             -0.524623957026338E+02
             -0.217636746258630E+02
             -0.141492231646613E+03
              0.369797676723973E+02
              0.207296186738164E+02
             -0.395221908235267E+01
             -0.380903716681954E+02
             -0.204716245338782E+02
             -0.528041674456351E+02
              0.151610191506526E+02
              0.821955299275153E+02
             -0.252736178762791E+02
             -0.163432780318541E+02
              0.238668070072677E+02
             -0.490600279183681E+02
              0.882553811951271E+02
              0.154772306631780E+02
              0.226692358044736E+02
              0.491315479938945E+02
              0.319980212090661E+01
              0.543266398283179E+02
              0.143366903163947E+02
             -0.106735531440822E+02
              0.733275722609298E+01
              0.763356226443989E+00
              0.728732311378805E+02
              0.101475457629440E+02
              0.120925122785567E+02
             -0.130436942136731E+02
              0.132712701844891E+02
             -0.913318817190672E+02
             -0.326616756394263E+02
             -0.458407941566306E+02
              0.486321216086756E+02
             -0.291761929213402E+02
             -0.659899304027606E+02
              0.539784571994027E+02
             -0.122296270866049E+02
              0.441050043207152E+02
             -0.900814698813419E+02
              0.232552732824582E+02
              0.858863844133884E+01
              0.584090784660339E+01
             -0.833910637086746E+01
             -0.906304219017761E+01
              0.480643573664334E+02
              0.200779896868232E+01
             -0.476309000160870E+02
             -0.176610923505050E+02
              0.277202821297426E+02
             -0.118210131542534E+03
             -0.931905451574117E+02
              0.396315485949435E+01
              0.117971873717719E+02
             -0.414321939405985E+02
             -0.390328368456528E+01
              0.112357598320925E+03
              0.307156484014644E+02
             -0.572892473504189E+02
              0.927072429403222E+01
             -0.966878075736500E+01
              0.106032858548422E+02
             -0.338548821363983E+02
              0.195920657091977E+02
              0.285241367628510E+02
             -0.299271920695190E+01
              0.108429153175871E+03
             -0.140534723195070E+02
             -0.316737285873580E+02
              0.143457114647440E+02
              0.467661820616886E+02
             -0.356686788394824E+02
             -0.318447096645388E+01
              0.967101970376623E+02
             -0.465599545420105E+01
              0.623077850708963E+02
              0.135848069788890E+02
             -0.902808351287999E+01
             -0.305965304124761E+02
              0.567794874496899E+02
             -0.515481097218552E+02
             -0.221580304578060E+01
             -0.170468212088832E+02
             -0.406207381948276E+02
              0.185441707176461E+02
              0.239891234010794E+02
              0.116341278094709E+02
              0.721577516410207E+00
             -0.385444553881305E+02
              0.215765474024936E+02
             -0.675873496371619E+01
             -0.246988609308001E+02
             -0.211112980150416E+02
              0.203677134407179E+02
             -0.599318453301009E+01
             -0.350016287291768E+02
             -0.106899196274629E+03
              0.103152013042276E+02
              0.249222746159521E+02
             -0.388259373046930E+02
             -0.211412577762250E+02
              0.809012170379025E+02
              0.653881854865608E+01
              0.311566035972245E+02
              0.392527795264741E+01
              0.322615314882459E+02
              0.648238560051470E+01
             -0.373776945501888E+02
             -0.234125131835148E+01
              0.878418515169170E+01
              0.274526653737276E+02
              0.783703714738859E+02
              0.508603796083850E+02
              0.192170936288790E+00
              0.169629397578003E+02
              0.614641115787075E+02
              0.236506798615867E+02
             -0.754529977836580E+02
             -0.274459235472546E+02
              0.151415883167108E+02
              0.563364409955187E+01
              0.255554656723608E+02
             -0.549047472289287E+02
              0.900796672091336E+01
              0.386982026609964E+02
              0.499156666745472E+02
             -0.435878200597460E+02
             -0.691000691913285E+01
             -0.208651755250969E+01
             -0.134150488336274E+02
             -0.366286179434992E+02
             -0.215723689864081E+02
             -0.204630270140640E+01
              0.795920065065701E+01
              0.422399173450693E+02
             -0.309038951352668E+02
              0.828102632182797E+02
              0.328305654698675E+02
              0.220396908415424E+02
              0.333928358576115E+02
              0.323835233906194E+02
              0.347060855742806E+02
              0.538398996017864E+02
             -0.434950932683038E+02
              0.621107155767796E+02
             -0.112539756012247E+03
              0.308038564296999E+02
             -0.106773731693510E+03
              0.856635119391309E+02
              0.692360115893997E+02
             -0.110101000810449E+02
             -0.494376532682670E+02
             -0.430569551132754E+02
             -0.624988100639462E+02
             -0.630202496085320E+02
              0.553249861764853E+02
              0.406367505457622E+02
              0.237375371459588E+02
              0.374590449521459E+02
              0.404155874152418E+02
             -0.383036262822451E+02
             -0.198264244884935E+02
              0.587916600461238E+02
             -0.116350650285672E+02
              0.553076157729222E+02
              0.701051770961388E+02
             -0.555593854137244E+01
             -0.707993005759621E+02
             -0.885024393249410E+00
             -0.247382319867430E+01
             -0.884579434009549E+01
             -0.180540941369640E+01
             -0.654444186631653E+02
             -0.211099822144134E+02
              0.541569613041780E+01
              0.902569671369713E+01
              0.469996265061447E+02
             -0.398626304978081E+02
              0.658862437159941E+02
             -0.426253471120840E+02
              0.210922759546997E+02
              0.351188114971671E+02
 
 BEEF-vdW xc energy contributions
           1 :   -784.643277230950     
           2 :    720.745804074787     
           3 :   -610.173690364078     
           4 :    480.061186902292     
           5 :   -357.912015181596     
           6 :    263.538618762466     
           7 :   -204.602018590460     
           8 :    176.590105604599     
           9 :   -166.821082485941     
          10 :    160.597321496338     
          11 :   -147.014738212169     
          12 :    122.226220272204     
          13 :   -89.3012893087903     
          14 :    55.3178332946713     
          15 :   -27.3611484520467     
          16 :    9.22783392585018     
          17 :  -0.119910491342694     
          18 :   -4.39862922756811     
          19 :    9.89265759567036     
          20 :   -20.3144026799802     
          21 :    36.2905109475315     
          22 :   -55.1223923641084     
          23 :    72.3279484520612     
          24 :   -83.8800691497860     
          25 :    88.0465496349099     
          26 :   -86.0184578928399     
          27 :    81.1280941325633     
          28 :   -77.1351665509889     
          29 :    76.4478791843968     
          30 :   -79.1125082988868     
          31 :   -86.0117036379916     
          32 :   -65.8960492573666     

     Writing output data file ./pwscf.save/
 
     init_run     :    338.53s CPU    343.04s WALL (       1 calls)
     electrons    :  14851.08s CPU  14992.64s WALL (       1 calls)
     forces       :    102.38s CPU    103.65s WALL (       1 calls)

     Called by init_run:
     wfcinit      :    289.79s CPU    293.27s WALL (       1 calls)
     potinit      :     45.40s CPU     45.73s WALL (       1 calls)
     hinit0       :      1.45s CPU      1.48s WALL (       1 calls)

     Called by electrons:
     c_bands      :  12286.43s CPU  12394.66s WALL (      22 calls)
     sum_band     :   1801.87s CPU   1816.83s WALL (      22 calls)
     v_of_rho     :    139.41s CPU    143.96s WALL (      22 calls)
     newd         :     35.63s CPU     49.66s WALL (      22 calls)
     PAW_pot      :    148.77s CPU    148.78s WALL (      22 calls)
     mix_rho      :    485.02s CPU    485.71s WALL (      22 calls)
     vdW_kernel   :     33.53s CPU     33.53s WALL (       1 calls)

     Called by c_bands:
     init_us_2    :     83.48s CPU     83.73s WALL (     598 calls)
     cegterg      :  11405.97s CPU  11513.92s WALL (     286 calls)

     Called by *egterg:
     cdiaghg      :     99.84s CPU     99.88s WALL (    1685 calls)
     h_psi        :   7462.14s CPU   7499.61s WALL (    1711 calls)
     s_psi        :   1179.74s CPU   1179.78s WALL (    1711 calls)
     g_psi        :     17.01s CPU     17.03s WALL (    1412 calls)

     Called by h_psi:
     h_psi:calbec :   1100.43s CPU   1100.54s WALL (    1711 calls)
     vloc_psi     :   5154.16s CPU   5155.71s WALL (    1711 calls)
     add_vuspsi   :   1179.41s CPU   1179.48s WALL (    1711 calls)

     General routines
     calbec       :   1619.16s CPU   1619.32s WALL (    2049 calls)
     fft          :     51.02s CPU     51.03s WALL (    3342 calls)
     ffts         :    159.56s CPU    159.58s WALL (   10742 calls)
     fftw         :   5276.13s CPU   5277.03s WALL (  363438 calls)
 
     Parallel routines
 
     PWSCF        :      4h17m CPU      4h19m WALL

 
   This run was terminated on:  19: 6:28  20May2022            

=------------------------------------------------------------------------------=
   JOB DONE.
=------------------------------------------------------------------------------=
