
     Program PWSCF v.6.7MaX starts on 20May2022 at 14:47:24 

     This program is part of the open-source Quantum ESPRESSO suite
     for quantum simulation of materials; please cite
         "P. Giannozzi et al., J. Phys.:Condens. Matter 21 395502 (2009);
         "P. Giannozzi et al., J. Phys.:Condens. Matter 29 465901 (2017);
          URL http://www.quantum-espresso.org", 
     in publications or presentations arising from this work. More details at
     http://www.quantum-espresso.org/quote

     Parallel version (MPI), running on     1 processors

     MPI processes distributed on     1 nodes
     Reading input from c2h3o-ensemble.in
Warning: card &CELL ignored
Warning: card / ignored

     Current dimensions of program PWSCF are:
     Max number of different atomic species (ntypx) = 10
     Max number of k-points (npk) =  40000
     Max angular momentum in pseudopotentials (lmaxx) =  3
     file Pt.pbe-n-kjpaw_psl.1.0.0.UPF: wavefunction(s)  6S 5D renormalized
     file C.pbe-n-kjpaw_psl.1.0.0.UPF: wavefunction(s)  2S 2P renormalized
     file O.pbe-nl-kjpaw_psl.1.0.0.UPF: wavefunction(s)  2S 2P renormalized
     file H.pbe-kjpaw_psl.1.0.0.UPF: wavefunction(s)  1S renormalized

     **************************************************************************
     Initializing libbeef V0.1.2 with the BEEF-vdW functional.
     Citation: Wellendorff et al., PRB 85, 235149 (2012).
     **************************************************************************


     IMPORTANT: XC functional enforced from input :
     Exchange-correlation= BEEF-VDW
                           (   1   4  43  14   2   0   0)
     Any further DFT definition will be discarded
     Please, verify this is what you really want


     Subspace diagonalization in iterative solution of the eigenvalue problem:
     a serial algorithm will be used

 
     G-vector sticks info
     --------------------
     sticks:   dense  smooth     PW     G-vecs:    dense   smooth      PW
     Sum        4267    4267   1159               743141   743141  104771
 


     bravais-lattice index     =            0
     lattice parameter (alat)  =      16.0349  a.u.
     unit-cell volume          =   11830.6828 (a.u.)^3
     number of atoms/cell      =           42
     number of atomic types    =            4
     number of electrons       =       377.00
     number of Kohn-Sham states=          227
     kinetic-energy cutoff     =      60.0000  Ry
     charge density cutoff     =     240.0000  Ry
     scf convergence threshold =      1.0E-06
     mixing beta               =       0.7000
     number of iterations used =            8  local-TF  mixing
     Exchange-correlation= BEEF-VDW
                           (   1   4  43  14   2   0   0)

     celldm(1)=  16.034858  celldm(2)=   0.000000  celldm(3)=   0.000000
     celldm(4)=   0.000000  celldm(5)=   0.000000  celldm(6)=   0.000000

     crystal axes: (cart. coord. in units of alat)
               a(1) = (   1.000000   0.000000   0.000000 )  
               a(2) = (   0.500000   0.866025   0.000000 )  
               a(3) = (   0.000000   0.000000   3.313476 )  

     reciprocal axes: (cart. coord. in units 2 pi/alat)
               b(1) = (  1.000000 -0.577350  0.000000 )  
               b(2) = (  0.000000  1.154701  0.000000 )  
               b(3) = (  0.000000  0.000000  0.301798 )  


     PseudoPot. # 1 for Pt read from file:
     /users/bkreitz1/quantum-espresso/potentials/Pt.pbe-n-kjpaw_psl.1.0.0.UPF
     MD5 check sum: 04dc8a03c51ece93fc7b5889c2958091
     Pseudo is Projector augmented-wave + core cor, Zval = 10.0
     Generated using 'atomic' code by A. Dal Corso  v.6.7MaX
     Shape of augmentation charge: PSQ
     Using radial grid of 1277 points,  6 beta functions with: 
                l(1) =   0
                l(2) =   0
                l(3) =   1
                l(4) =   1
                l(5) =   2
                l(6) =   2
     Q(r) pseudized with 0 coefficients 


     PseudoPot. # 2 for C  read from file:
     /users/bkreitz1/quantum-espresso/potentials/C.pbe-n-kjpaw_psl.1.0.0.UPF
     MD5 check sum: a169b0ebad56f5ec0d79c4633f80bf22
     Pseudo is Projector augmented-wave + core cor, Zval =  4.0
     Generated using 'atomic' code by A. Dal Corso  v.6.7MaX
     Shape of augmentation charge: PSQ
     Using radial grid of 1073 points,  4 beta functions with: 
                l(1) =   0
                l(2) =   0
                l(3) =   1
                l(4) =   1
     Q(r) pseudized with 0 coefficients 


     PseudoPot. # 3 for O  read from file:
     /users/bkreitz1/quantum-espresso/potentials/O.pbe-nl-kjpaw_psl.1.0.0.UPF
     MD5 check sum: eef08af8b58d9ec80f8fdb78829eb7cf
     Pseudo is Projector augmented-wave + core cor, Zval =  6.0
     Generated using 'atomic' code by A. Dal Corso  v.6.7MaX
     Shape of augmentation charge: PSQ
     Using radial grid of 1095 points,  4 beta functions with: 
                l(1) =   0
                l(2) =   0
                l(3) =   1
                l(4) =   1
     Q(r) pseudized with 0 coefficients 


     PseudoPot. # 4 for H  read from file:
     /users/bkreitz1/quantum-espresso/potentials/H.pbe-kjpaw_psl.1.0.0.UPF
     MD5 check sum: ae98473e6dc62675f0d0baffdab24f65
     Pseudo is Projector augmented-wave, Zval =  1.0
     Generated using 'atomic' code by A. Dal Corso  v.6.7MaX
     Shape of augmentation charge: PSQ
     Using radial grid of  929 points,  2 beta functions with: 
                l(1) =   0
                l(2) =   0
     Q(r) pseudized with 0 coefficients 


     atomic species   valence    mass     pseudopotential
        Pt            10.00   195.08400     Pt( 1.00)
        C              4.00    12.01100     C ( 1.00)
        O              6.00    15.99900     O ( 1.00)
        H              1.00     1.00800     H ( 1.00)

     No symmetry found



   Cartesian axes

     site n.     atom                  positions (alat units)
         1           Pt  tau(   1) = (   0.0000000   0.0000000   1.0017346  )
         2           Pt  tau(   2) = (   0.3333333   0.0000000   1.0017346  )
         3           Pt  tau(   3) = (   0.6666667   0.0000000   1.0017346  )
         4           Pt  tau(   4) = (   0.1666667   0.2886751   1.0017346  )
         5           Pt  tau(   5) = (   0.5000000   0.2886751   1.0017346  )
         6           Pt  tau(   6) = (   0.8333333   0.2886751   1.0017346  )
         7           Pt  tau(   7) = (   0.3333333   0.5773503   1.0017346  )
         8           Pt  tau(   8) = (   0.6666667   0.5773503   1.0017346  )
         9           Pt  tau(   9) = (   1.0000000   0.5773503   1.0017346  )
        10           Pt  tau(  10) = (   0.1666667   0.0962250   1.2739001  )
        11           Pt  tau(  11) = (   0.5000000   0.0962250   1.2739001  )
        12           Pt  tau(  12) = (   0.8333333   0.0962250   1.2739001  )
        13           Pt  tau(  13) = (   0.3333333   0.3849002   1.2739001  )
        14           Pt  tau(  14) = (   0.6666667   0.3849002   1.2739001  )
        15           Pt  tau(  15) = (   1.0000000   0.3849002   1.2739001  )
        16           Pt  tau(  16) = (   0.5000000   0.6735753   1.2739001  )
        17           Pt  tau(  17) = (   0.8333333   0.6735753   1.2739001  )
        18           Pt  tau(  18) = (   1.1666667   0.6735753   1.2739001  )
        19           Pt  tau(  19) = (  -0.0008195   0.1914940   1.5415421  )
        20           Pt  tau(  20) = (   0.3349372   0.1928060   1.5468345  )
        21           Pt  tau(  21) = (   0.6634750   0.1927437   1.5476341  )
        22           Pt  tau(  22) = (   0.1663478   0.4800460   1.5423995  )
        23           Pt  tau(  23) = (   0.4991072   0.4772280   1.5473798  )
        24           Pt  tau(  24) = (   0.8324805   0.4798320   1.5424529  )
        25           Pt  tau(  25) = (   0.3325986   0.7685092   1.5414896  )
        26           Pt  tau(  26) = (   0.6659288   0.7685593   1.5412942  )
        27           Pt  tau(  27) = (   0.9993345   0.7690004   1.5424655  )
        28           Pt  tau(  28) = (  -0.0016449  -0.0023508   1.8156590  )
        29           Pt  tau(  29) = (   0.3309325  -0.0029951   1.8151330  )
        30           Pt  tau(  30) = (   0.6664090  -0.0031666   1.8158687  )
        31           Pt  tau(  31) = (   0.1636128   0.2865983   1.8153973  )
        32           Pt  tau(  32) = (   0.4983571   0.2855290   1.8502227  )
        33           Pt  tau(  33) = (   0.8322568   0.2860643   1.8165187  )
        34           Pt  tau(  34) = (   0.3317872   0.5754813   1.8168588  )
        35           Pt  tau(  35) = (   0.6649141   0.5752001   1.8153462  )
        36           Pt  tau(  36) = (   0.9983671   0.5748567   1.8158820  )
        37           C   tau(  37) = (   0.5686762   0.3850998   2.1877129  )
        38           C   tau(  38) = (   0.4849995   0.2625400   2.0880092  )
        39           O   tau(  39) = (   0.4121227   0.1535622   2.1432066  )
        40           H   tau(  40) = (   0.5557551   0.3539827   2.3117414  )
        41           H   tau(  41) = (   0.6927016   0.3903624   2.1544606  )
        42           H   tau(  42) = (   0.5173511   0.5006517   2.1653914  )

     number of k points=    13  Marzari-Vanderbilt smearing, width (Ry)=  0.0200
                       cart. coord. in units 2pi/alat
        k(    1) = (   0.0000000   0.0000000   0.0000000), wk =   0.0800000
        k(    2) = (   0.0000000   0.2309401   0.0000000), wk =   0.1600000
        k(    3) = (   0.0000000   0.4618802   0.0000000), wk =   0.1600000
        k(    4) = (   0.2000000  -0.1154701   0.0000000), wk =   0.1600000
        k(    5) = (   0.2000000   0.1154701   0.0000000), wk =   0.1600000
        k(    6) = (   0.2000000   0.3464102   0.0000000), wk =   0.1600000
        k(    7) = (   0.2000000  -0.5773503   0.0000000), wk =   0.1600000
        k(    8) = (   0.2000000  -0.3464102   0.0000000), wk =   0.1600000
        k(    9) = (   0.4000000  -0.2309401   0.0000000), wk =   0.1600000
        k(   10) = (   0.4000000  -0.0000000   0.0000000), wk =   0.1600000
        k(   11) = (   0.4000000   0.2309401   0.0000000), wk =   0.1600000
        k(   12) = (   0.4000000  -0.6928203   0.0000000), wk =   0.1600000
        k(   13) = (   0.4000000  -0.4618802   0.0000000), wk =   0.1600000

     Dense  grid:   743141 G-vectors     FFT dimensions: (  80,  80, 270)

     Estimated max dynamical RAM per process >       9.06 GB

     Check: negative core charge=   -0.000002

     Initial potential from superposition of free atoms

     starting charge  376.99378, renormalised to  377.00000

     negative rho (up, down):  1.199E-02 0.000E+00


     %%%%%%%%%%%%%%%%%%%%%%%%%%%%%%%%%%%%%%%%%%%%%%%%%%%%%%%%%%%%%%%%%%%%%%%%
     %                                                                      %
     % You are using vdW-DF, which was implemented by the Thonhauser group. %
     % Please cite the following two papers that made this development      %
     % possible and the two reviews that describe the various versions:     %
     %                                                                      %
     %   T. Thonhauser et al., PRL 115, 136402 (2015).                      %
     %   T. Thonhauser et al., PRB 76, 125112 (2007).                       %
     %   K. Berland et al., Rep. Prog. Phys. 78, 066501 (2015).             %
     %   D.C. Langreth et al., J. Phys.: Condens. Matter 21, 084203 (2009). %
     %                                                                      %
     %                                                                      %
     % If you are calculating the stress with vdW-DF, please also cite:     %
     %                                                                      %
     %   R. Sabatini et al., J. Phys.: Condens. Matter 24, 424209 (2012).   %
     %                                                                      %
     %%%%%%%%%%%%%%%%%%%%%%%%%%%%%%%%%%%%%%%%%%%%%%%%%%%%%%%%%%%%%%%%%%%%%%%%


     Starting wfcs are  339 randomized atomic wfcs
     Checking if some PAW data can be deallocated... 

     total cpu time spent up to now is      370.0 secs

     Self-consistent Calculation

     iteration #  1     ecut=    60.00 Ry     beta= 0.70
     Davidson diagonalization with overlap
     ethr =  1.00E-02,  avg # of iterations =  2.5

     Threshold (ethr) on eigenvalues was too large:
     Diagonalizing with lowered threshold

     Davidson diagonalization with overlap
     ethr =  7.72E-04,  avg # of iterations =  2.7

     negative rho (up, down):  1.223E-02 0.000E+00

     total cpu time spent up to now is     1835.8 secs

     total energy              =  -27838.13303202 Ry
     estimated scf accuracy    <       3.11254372 Ry

     iteration #  2     ecut=    60.00 Ry     beta= 0.70
     Davidson diagonalization with overlap
     ethr =  8.26E-04,  avg # of iterations =  2.0

     negative rho (up, down):  1.052E-02 0.000E+00

     total cpu time spent up to now is     2527.0 secs

     total energy              =  -27838.33605858 Ry
     estimated scf accuracy    <       1.12215720 Ry

     iteration #  3     ecut=    60.00 Ry     beta= 0.70
     Davidson diagonalization with overlap
     ethr =  2.98E-04,  avg # of iterations =  4.8

     negative rho (up, down):  7.840E-03 0.000E+00

     total cpu time spent up to now is     3261.5 secs

     total energy              =  -27838.39319211 Ry
     estimated scf accuracy    <       0.37091121 Ry

     iteration #  4     ecut=    60.00 Ry     beta= 0.70
     Davidson diagonalization with overlap
     ethr =  9.84E-05,  avg # of iterations =  9.2

     negative rho (up, down):  6.063E-03 0.000E+00

     total cpu time spent up to now is     4147.2 secs

     total energy              =  -27838.44251125 Ry
     estimated scf accuracy    <       0.24349397 Ry

     iteration #  5     ecut=    60.00 Ry     beta= 0.70
     Davidson diagonalization with overlap
     ethr =  6.46E-05,  avg # of iterations =  2.0

     negative rho (up, down):  4.723E-03 0.000E+00

     total cpu time spent up to now is     4830.3 secs

     total energy              =  -27838.45031502 Ry
     estimated scf accuracy    <       0.04428872 Ry

     iteration #  6     ecut=    60.00 Ry     beta= 0.70
     Davidson diagonalization with overlap
     c_bands:  1 eigenvalues not converged
     c_bands:  2 eigenvalues not converged
     c_bands:  1 eigenvalues not converged
     ethr =  1.17E-05,  avg # of iterations = 11.0

     negative rho (up, down):  4.023E-03 0.000E+00

     total cpu time spent up to now is     5850.6 secs

     total energy              =  -27838.45890344 Ry
     estimated scf accuracy    <       0.02086684 Ry

     iteration #  7     ecut=    60.00 Ry     beta= 0.70
     Davidson diagonalization with overlap
     c_bands:  2 eigenvalues not converged
     ethr =  5.53E-06,  avg # of iterations =  8.2

     negative rho (up, down):  4.207E-03 0.000E+00

     total cpu time spent up to now is     6606.6 secs

     total energy              =  -27838.45980051 Ry
     estimated scf accuracy    <       0.01230560 Ry

     iteration #  8     ecut=    60.00 Ry     beta= 0.70
     Davidson diagonalization with overlap
     c_bands:  1 eigenvalues not converged
     ethr =  3.26E-06,  avg # of iterations =  8.4

     negative rho (up, down):  4.926E-03 0.000E+00

     total cpu time spent up to now is     7353.0 secs

     total energy              =  -27838.46023047 Ry
     estimated scf accuracy    <       0.00789129 Ry

     iteration #  9     ecut=    60.00 Ry     beta= 0.70
     Davidson diagonalization with overlap
     ethr =  2.09E-06,  avg # of iterations =  5.2

     negative rho (up, down):  7.115E-03 0.000E+00

     total cpu time spent up to now is     8052.3 secs

     total energy              =  -27838.46045133 Ry
     estimated scf accuracy    <       0.00249504 Ry

     iteration # 10     ecut=    60.00 Ry     beta= 0.70
     Davidson diagonalization with overlap
     ethr =  6.62E-07,  avg # of iterations =  6.7

     negative rho (up, down):  8.328E-03 0.000E+00

     total cpu time spent up to now is     8778.0 secs

     total energy              =  -27838.46059249 Ry
     estimated scf accuracy    <       0.00100767 Ry

     iteration # 11     ecut=    60.00 Ry     beta= 0.70
     Davidson diagonalization with overlap
     ethr =  2.67E-07,  avg # of iterations =  3.1

     negative rho (up, down):  9.359E-03 0.000E+00

     total cpu time spent up to now is     9492.8 secs

     total energy              =  -27838.46067744 Ry
     estimated scf accuracy    <       0.00043098 Ry

     iteration # 12     ecut=    60.00 Ry     beta= 0.70
     Davidson diagonalization with overlap
     ethr =  1.14E-07,  avg # of iterations =  3.2

     negative rho (up, down):  9.757E-03 0.000E+00

     total cpu time spent up to now is    10229.0 secs

     total energy              =  -27838.46073272 Ry
     estimated scf accuracy    <       0.00022692 Ry

     iteration # 13     ecut=    60.00 Ry     beta= 0.70
     Davidson diagonalization with overlap
     ethr =  6.02E-08,  avg # of iterations =  2.3

     negative rho (up, down):  1.085E-02 0.000E+00

     total cpu time spent up to now is    10932.2 secs

     total energy              =  -27838.46074976 Ry
     estimated scf accuracy    <       0.00013133 Ry

     iteration # 14     ecut=    60.00 Ry     beta= 0.70
     Davidson diagonalization with overlap
     ethr =  3.48E-08,  avg # of iterations =  2.0

     negative rho (up, down):  1.049E-02 0.000E+00

     total cpu time spent up to now is    11640.3 secs

     total energy              =  -27838.46075845 Ry
     estimated scf accuracy    <       0.00009273 Ry

     iteration # 15     ecut=    60.00 Ry     beta= 0.70
     Davidson diagonalization with overlap
     ethr =  2.46E-08,  avg # of iterations =  1.8

     negative rho (up, down):  1.141E-02 0.000E+00

     total cpu time spent up to now is    12297.6 secs

     total energy              =  -27838.46075377 Ry
     estimated scf accuracy    <       0.00004863 Ry

     iteration # 16     ecut=    60.00 Ry     beta= 0.70
     Davidson diagonalization with overlap
     ethr =  1.29E-08,  avg # of iterations =  2.0

     negative rho (up, down):  1.254E-02 0.000E+00

     total cpu time spent up to now is    12991.4 secs

     total energy              =  -27838.46075293 Ry
     estimated scf accuracy    <       0.00001685 Ry

     iteration # 17     ecut=    60.00 Ry     beta= 0.70
     Davidson diagonalization with overlap
     ethr =  4.47E-09,  avg # of iterations =  4.7

     negative rho (up, down):  1.273E-02 0.000E+00

     total cpu time spent up to now is    13907.1 secs

     total energy              =  -27838.46075745 Ry
     estimated scf accuracy    <       0.00001210 Ry

     iteration # 18     ecut=    60.00 Ry     beta= 0.70
     Davidson diagonalization with overlap
     ethr =  3.21E-09,  avg # of iterations =  2.0

     negative rho (up, down):  1.301E-02 0.000E+00

     total cpu time spent up to now is    14577.9 secs

     total energy              =  -27838.46075707 Ry
     estimated scf accuracy    <       0.00000499 Ry

     iteration # 19     ecut=    60.00 Ry     beta= 0.70
     Davidson diagonalization with overlap
     ethr =  1.32E-09,  avg # of iterations =  2.0

     negative rho (up, down):  1.330E-02 0.000E+00

     total cpu time spent up to now is    15270.3 secs

     total energy              =  -27838.46075669 Ry
     estimated scf accuracy    <       0.00000244 Ry

     iteration # 20     ecut=    60.00 Ry     beta= 0.70
     Davidson diagonalization with overlap
     ethr =  6.49E-10,  avg # of iterations =  2.2

     negative rho (up, down):  1.353E-02 0.000E+00

     total cpu time spent up to now is    15935.9 secs

     End of self-consistent calculation

          k = 0.0000 0.0000 0.0000 ( 92939 PWs)   bands (ev):

   -20.6472 -12.3965  -7.4123  -7.1645  -5.9305  -5.3556  -4.8219  -4.8048
    -4.7874  -4.7825  -4.7752  -4.7627  -4.7462  -4.7336  -4.7051  -4.6507
    -4.2248  -4.2210  -4.2204  -4.2011  -4.1986  -4.1860  -3.7590  -3.7566
    -3.7488  -3.7384  -3.7325  -3.7094  -3.5662  -3.5358  -3.5309  -3.5284
    -3.5211  -3.5048  -3.3575  -3.3152  -3.3056  -3.3022  -3.2971  -3.2926
    -3.2838  -3.2810  -3.2777  -3.2545  -3.2429  -3.2268  -3.1709  -3.0065
    -2.6872  -2.6859  -2.6534  -2.6507  -2.6440  -2.5957  -2.5933  -2.5928
    -2.5751  -2.5677  -2.4567  -2.4382  -2.3759  -2.3009  -1.9566  -1.8807
    -1.8747  -1.8513  -1.8476  -1.8368  -1.7928  -1.7131  -1.7039  -1.6881
    -1.6869  -1.6644  -1.6611  -1.6529  -1.6364  -1.6341  -1.6155  -1.6102
    -1.6068  -1.5815  -1.5784  -1.5639  -1.4786  -1.4704  -1.4605  -1.4512
    -1.4418  -1.3708  -1.2966  -1.2839  -1.2803  -1.2489  -1.2366  -1.2363
    -1.2052  -1.1944  -1.1562  -1.1474  -1.0822  -1.0797  -1.0243  -1.0239
    -0.9861  -0.9847  -0.9492  -0.9314  -0.9001  -0.8613  -0.8490  -0.8149
    -0.8104  -0.7978  -0.6813  -0.4193  -0.4086  -0.3802  -0.3407  -0.3294
    -0.3256  -0.3188  -0.2663  -0.2642  -0.2621  -0.2240  -0.2173  -0.1851
    -0.1620  -0.0757  -0.0342  -0.0251  -0.0237   0.0095   0.0504   0.0628
     0.1070   0.1457   0.1607   0.1670   0.1760   0.2919   0.3523   0.3700
     0.4041   0.4090   0.4098   0.4412   0.4714   0.4773   0.6513   0.6601
     0.6641   0.6823   0.6868   0.7480   0.8124   0.8198   0.8362   0.8379
     0.8436   0.8596   0.8629   0.8776   0.8797   0.8886   0.8974   0.9653
     0.9700   0.9886   0.9988   1.0043   1.0094   1.0347   1.0639   1.0975
     1.0983   1.1066   1.1120   1.1387   1.1481   1.1536   1.1559   1.2255
     1.2258   1.2477   1.2511   1.2525   1.2721   1.2762   1.3443   1.3492
     1.3517   1.3761   1.3789   1.3961   1.5430   1.5613   1.6441   1.6515
     1.6864   1.6889   1.6917   1.7050   2.0879   2.4963   2.5457   2.5673
     2.5729   2.5801   2.6453   3.9355   4.6473   4.8503   4.8609   4.9077
     4.9176   4.9406   5.7754   5.9260   6.4313   6.4497   6.4712   6.4866
     6.4978   6.5085   6.5301

          k = 0.0000 0.2309 0.0000 ( 92856 PWs)   bands (ev):

   -20.6472 -12.3966  -7.4023  -7.0272  -5.7978  -5.3635  -5.2524  -4.8775
    -4.8692  -4.8131  -4.6656  -4.6585  -4.6185  -4.5716  -4.5218  -4.5175
    -4.3262  -4.2994  -4.1549  -4.1504  -4.1317  -4.1110  -3.8450  -3.7197
    -3.7170  -3.7060  -3.6896  -3.6285  -3.6165  -3.5711  -3.5608  -3.5457
    -3.5260  -3.4889  -3.4468  -3.4323  -3.3762  -3.3365  -3.3206  -3.2934
    -3.2737  -3.2250  -3.1085  -3.0951  -3.0885  -3.0579  -3.0380  -2.9911
    -2.8094  -2.7974  -2.7525  -2.7267  -2.7033  -2.6832  -2.6656  -2.5193
    -2.4884  -2.4360  -2.4232  -2.3877  -2.3685  -2.3234  -2.1350  -2.0571
    -2.0475  -1.9963  -1.9752  -1.9454  -1.8952  -1.8723  -1.8599  -1.8363
    -1.8206  -1.8043  -1.7574  -1.7188  -1.6851  -1.6721  -1.6495  -1.5935
    -1.5824  -1.5771  -1.5065  -1.4984  -1.4875  -1.4425  -1.3981  -1.3941
    -1.3838  -1.3741  -1.3152  -1.2996  -1.2877  -1.2805  -1.2490  -1.2325
    -1.1991  -1.1665  -1.1437  -1.1126  -1.1043  -1.0900  -1.0689  -1.0553
    -1.0376  -1.0141  -0.9790  -0.9150  -0.8612  -0.8464  -0.8397  -0.8323
    -0.8090  -0.8001  -0.7720  -0.7472  -0.7326  -0.7178  -0.6824  -0.6225
    -0.5157  -0.4331  -0.3799  -0.3455  -0.3297  -0.3088  -0.2853  -0.2751
    -0.2647  -0.1549  -0.1192  -0.0836  -0.0391   0.0161   0.0257   0.0763
     0.0881   0.1195   0.1347   0.1677   0.1881   0.2492   0.2590   0.2907
     0.2947   0.3156   0.3510   0.4605   0.4665   0.5129   0.5411   0.5496
     0.5680   0.6023   0.6365   0.6681   0.6905   0.7025   0.7164   0.7688
     0.7899   0.7969   0.8175   0.8971   0.9015   0.9330   0.9656   1.0196
     1.0268   1.0529   1.0746   1.0967   1.1261   1.1376   1.1805   1.2118
     1.2271   1.2701   1.2806   1.2884   1.3266   1.3320   1.3338   1.3438
     1.3457   1.3963   1.4067   1.5288   1.5349   1.5815   1.5950   1.6020
     1.6170   1.6473   1.6721   1.6828   1.6991   1.7797   1.7919   1.8193
     1.8657   1.9733   1.9799   1.9983   2.0461   2.3380   2.4508   2.8644
     3.1416   3.1764   3.2940   3.8679   4.3436   4.5802   4.7175   4.9991
     5.3116   5.3264   5.4442   5.6273   5.9296   6.0382   6.2736   6.3141
     6.6054   6.6803   6.6992

          k = 0.0000 0.4619 0.0000 ( 92878 PWs)   bands (ev):

   -20.6472 -12.3966  -7.3939  -6.6137  -5.9848  -5.4981  -5.2303  -4.9101
    -4.9026  -4.8182  -4.7508  -4.6649  -4.5446  -4.3907  -4.2749  -4.2405
    -4.1846  -4.1819  -4.0335  -4.0060  -3.9751  -3.9572  -3.9536  -3.8501
    -3.8001  -3.7979  -3.7521  -3.7466  -3.7136  -3.6848  -3.6164  -3.6126
    -3.6055  -3.4114  -3.3558  -3.3470  -3.3426  -3.3299  -3.3113  -3.2783
    -3.1094  -3.0944  -3.0827  -3.0638  -3.0498  -3.0085  -2.9801  -2.8413
    -2.7728  -2.7537  -2.7421  -2.7285  -2.6902  -2.6815  -2.6153  -2.6051
    -2.5914  -2.5516  -2.5317  -2.4010  -2.3925  -2.3720  -2.3508  -2.2509
    -2.2075  -2.1833  -2.1716  -2.1422  -2.0328  -1.9748  -1.9563  -1.9492
    -1.9399  -1.8805  -1.8456  -1.8267  -1.7903  -1.7271  -1.7106  -1.6951
    -1.6165  -1.5787  -1.5765  -1.5632  -1.5512  -1.5120  -1.4838  -1.4722
    -1.4557  -1.4532  -1.4365  -1.4232  -1.4103  -1.3915  -1.3279  -1.3013
    -1.2907  -1.2720  -1.2523  -1.2275  -1.1961  -1.1231  -1.1043  -1.0737
    -1.0496  -1.0159  -1.0101  -0.9854  -0.9796  -0.9406  -0.8382  -0.8228
    -0.8133  -0.7821  -0.7271  -0.7122  -0.5851  -0.5820  -0.5515  -0.5021
    -0.4798  -0.4315  -0.4068  -0.3903  -0.3686  -0.3502  -0.3395  -0.3165
    -0.2777  -0.2747  -0.2634  -0.2406  -0.2176  -0.2044  -0.1860  -0.1633
    -0.0940  -0.0381  -0.0285   0.0085   0.0635   0.1250   0.1672   0.1745
     0.2464   0.2835   0.3092   0.3786   0.4280   0.4343   0.4899   0.5033
     0.5111   0.5554   0.5728   0.6214   0.6279   0.6688   0.7004   0.7116
     0.7926   0.8063   0.8244   0.8393   0.8598   0.8798   0.9749   1.0283
     1.0422   1.0861   1.1248   1.1299   1.1419   1.2162   1.2436   1.2561
     1.3228   1.3341   1.3405   1.3910   1.4060   1.4247   1.4489   1.5330
     1.5402   1.5722   1.5881   1.6084   1.6149   1.6250   1.6332   1.7987
     1.8080   1.8251   1.8500   1.8591   2.0054   2.0581   2.2999   2.4562
     2.4972   2.6360   2.8763   2.8848   3.2044   3.2564   3.3015   3.6122
     3.7417   4.0562   4.0967   4.1138   4.2792   4.3285   4.4223   4.4981
     4.6470   4.7485   4.9481   5.0365   5.4199   5.6013   5.9410   6.0249
     6.3087   6.4121   6.5763

          k = 0.2000-0.1155 0.0000 ( 92856 PWs)   bands (ev):

   -20.6472 -12.3965  -7.4023  -7.0276  -5.7997  -5.3745  -5.2362  -4.8799
    -4.8721  -4.8187  -4.6621  -4.6576  -4.6172  -4.5661  -4.5255  -4.5185
    -4.3194  -4.2982  -4.1552  -4.1508  -4.1298  -4.1150  -3.8444  -3.7203
    -3.7171  -3.7009  -3.6796  -3.6335  -3.6164  -3.5806  -3.5663  -3.5449
    -3.5236  -3.4843  -3.4391  -3.4343  -3.3797  -3.3299  -3.3210  -3.2921
    -3.2868  -3.2164  -3.1144  -3.1005  -3.0819  -3.0698  -3.0336  -2.9933
    -2.8111  -2.7983  -2.7597  -2.7246  -2.7021  -2.6816  -2.6636  -2.5192
    -2.4853  -2.4366  -2.4221  -2.3918  -2.3672  -2.3223  -2.1388  -2.0583
    -2.0444  -2.0014  -1.9766  -1.9460  -1.8980  -1.8690  -1.8531  -1.8346
    -1.8189  -1.8119  -1.7576  -1.7177  -1.6894  -1.6715  -1.6513  -1.5850
    -1.5772  -1.5694  -1.5085  -1.4973  -1.4879  -1.4422  -1.4013  -1.3988
    -1.3798  -1.3731  -1.3174  -1.2973  -1.2876  -1.2789  -1.2508  -1.2236
    -1.2094  -1.1666  -1.1390  -1.1151  -1.1033  -1.0920  -1.0652  -1.0527
    -1.0391  -1.0113  -0.9780  -0.9104  -0.8724  -0.8463  -0.8401  -0.8303
    -0.8085  -0.8033  -0.7704  -0.7536  -0.7340  -0.7246  -0.6996  -0.6181
    -0.4864  -0.4240  -0.3768  -0.3697  -0.3301  -0.3174  -0.2855  -0.2801
    -0.2624  -0.1669  -0.1198  -0.0720  -0.0235   0.0112   0.0280   0.0694
     0.0962   0.1231   0.1352   0.1668   0.1981   0.2520   0.2562   0.2929
     0.2999   0.3179   0.3395   0.4433   0.4751   0.5114   0.5409   0.5523
     0.5693   0.5912   0.6394   0.6656   0.6893   0.6995   0.7262   0.7709
     0.7925   0.7977   0.8182   0.8952   0.9076   0.9310   0.9747   1.0126
     1.0289   1.0501   1.0822   1.0982   1.1277   1.1363   1.1850   1.2112
     1.2268   1.2731   1.2766   1.2885   1.3274   1.3319   1.3342   1.3434
     1.3442   1.3983   1.4098   1.5327   1.5336   1.5823   1.5956   1.5990
     1.6138   1.6439   1.6716   1.6779   1.6974   1.7787   1.7939   1.8192
     1.8849   1.9652   1.9827   1.9948   2.0284   2.3167   2.4592   2.8561
     3.1609   3.1921   3.2854   3.8537   4.3319   4.6014   4.6855   4.9970
     5.3149   5.3377   5.4581   5.6353   5.9141   6.0422   6.2678   6.3373
     6.5349   6.6440   6.6902

          k = 0.2000 0.1155 0.0000 ( 92856 PWs)   bands (ev):

   -20.6472 -12.3966  -7.4024  -7.0271  -5.7974  -5.3625  -5.2492  -4.8820
    -4.8709  -4.8126  -4.6650  -4.6584  -4.6183  -4.5648  -4.5268  -4.5206
    -4.3279  -4.3007  -4.1528  -4.1499  -4.1293  -4.1081  -3.8462  -3.7188
    -3.7170  -3.7061  -3.6882  -3.6307  -3.6153  -3.5786  -3.5644  -3.5436
    -3.5237  -3.4955  -3.4382  -3.4304  -3.3725  -3.3319  -3.3195  -3.2879
    -3.2816  -3.2097  -3.1097  -3.0983  -3.0840  -3.0734  -3.0457  -2.9908
    -2.8108  -2.7987  -2.7726  -2.7239  -2.7082  -2.6741  -2.6617  -2.5161
    -2.4878  -2.4316  -2.4239  -2.3925  -2.3677  -2.3213  -2.1457  -2.0541
    -2.0487  -2.0016  -1.9870  -1.9425  -1.8986  -1.8697  -1.8589  -1.8314
    -1.8171  -1.8111  -1.7563  -1.7077  -1.6873  -1.6723  -1.6564  -1.5818
    -1.5682  -1.5657  -1.5103  -1.4976  -1.4785  -1.4465  -1.4110  -1.4005
    -1.3889  -1.3721  -1.3249  -1.3065  -1.2835  -1.2774  -1.2456  -1.2328
    -1.2028  -1.1642  -1.1308  -1.1216  -1.1050  -1.0962  -1.0679  -1.0543
    -1.0321  -1.0083  -0.9816  -0.9094  -0.8662  -0.8475  -0.8401  -0.8221
    -0.8055  -0.7968  -0.7734  -0.7596  -0.7340  -0.7202  -0.6854  -0.6559
    -0.4782  -0.4367  -0.3813  -0.3480  -0.3299  -0.2996  -0.2823  -0.2778
    -0.2643  -0.1213  -0.1148  -0.0842  -0.0445   0.0199   0.0330   0.0618
     0.1010   0.1296   0.1469   0.1701   0.1861   0.2269   0.2571   0.2863
     0.2977   0.3106   0.3243   0.4582   0.4751   0.5139   0.5269   0.5481
     0.5826   0.6048   0.6333   0.6672   0.6815   0.6975   0.7428   0.7690
     0.7867   0.7959   0.8182   0.8956   0.8987   0.9272   0.9789   1.0156
     1.0196   1.0556   1.0728   1.0970   1.1306   1.1352   1.1845   1.2145
     1.2250   1.2723   1.2819   1.2892   1.3277   1.3309   1.3341   1.3421
     1.3498   1.4014   1.4134   1.5276   1.5432   1.5811   1.5957   1.5995
     1.6104   1.6393   1.6686   1.6708   1.6931   1.7845   1.7918   1.8191
     1.8641   1.9673   1.9808   1.9974   2.0530   2.3301   2.4355   2.8722
     3.1455   3.1719   3.2967   3.8781   4.3489   4.5746   4.7017   4.9932
     5.3133   5.3281   5.4477   5.6262   5.9330   6.0386   6.2831   6.3165
     6.6095   6.6752   6.6946

          k = 0.2000 0.3464 0.0000 ( 92852 PWs)   bands (ev):

   -20.6472 -12.3966  -7.3953  -6.7484  -5.5953  -5.5359  -5.5104  -5.2512
    -4.8155  -4.6650  -4.4612  -4.4475  -4.4411  -4.4216  -4.3938  -4.3814
    -4.3618  -4.3226  -4.2637  -4.2491  -3.8904  -3.8782  -3.8637  -3.8607
    -3.7912  -3.7698  -3.6433  -3.6255  -3.6197  -3.6067  -3.5988  -3.5238
    -3.4803  -3.4637  -3.4545  -3.4489  -3.3998  -3.3751  -3.3527  -3.3265
    -3.2997  -3.2347  -3.1681  -3.0414  -2.9491  -2.8722  -2.8660  -2.8413
    -2.8207  -2.8075  -2.7932  -2.7626  -2.7361  -2.6978  -2.5843  -2.5710
    -2.5453  -2.4754  -2.4447  -2.4004  -2.3841  -2.3758  -2.3067  -2.2837
    -2.1541  -2.1189  -2.0960  -2.0439  -2.0175  -2.0053  -1.9884  -1.9593
    -1.9249  -1.9043  -1.7798  -1.7616  -1.7514  -1.7292  -1.6927  -1.6685
    -1.6513  -1.6212  -1.5990  -1.5720  -1.4986  -1.4742  -1.4418  -1.4283
    -1.4204  -1.4117  -1.3997  -1.3679  -1.3453  -1.3383  -1.2795  -1.2585
    -1.2389  -1.1870  -1.1727  -1.1582  -1.1170  -1.0969  -1.0635  -1.0544
    -1.0376  -1.0337  -1.0081  -0.9983  -0.9723  -0.9698  -0.9440  -0.9236
    -0.8923  -0.8700  -0.8014  -0.7611  -0.7515  -0.6950  -0.6752  -0.6654
    -0.6136  -0.4786  -0.4640  -0.3870  -0.3452  -0.3238  -0.3154  -0.2933
    -0.2620  -0.2332  -0.2272  -0.2128  -0.1855  -0.1566  -0.1279  -0.0813
     0.0184   0.0706   0.0840   0.1184   0.1501   0.1639   0.1869   0.2325
     0.2710   0.3196   0.3426   0.3566   0.4047   0.4259   0.4761   0.5188
     0.5555   0.5662   0.5890   0.6300   0.6480   0.6647   0.6715   0.6836
     0.6910   0.7101   0.7267   0.8062   0.8725   0.9039   0.9556   1.0197
     1.0440   1.1376   1.2041   1.2192   1.2301   1.2565   1.3292   1.3521
     1.3568   1.3764   1.3959   1.4219   1.4261   1.4332   1.4502   1.4767
     1.5001   1.5177   1.5751   1.6040   1.6208   1.6473   1.6590   1.7030
     1.7883   1.8537   1.8934   1.9283   1.9494   1.9718   1.9779   2.0965
     2.1182   2.4246   2.6281   2.6509   3.0236   3.1635   3.1719   3.2145
     3.4837   3.8798   3.9160   4.0942   4.1108   4.1331   4.6796   4.7488
     4.8631   5.3048   5.3329   5.5591   5.5691   6.0033   6.0512   6.1220
     6.1523   6.1667   6.2446

          k = 0.2000-0.5774 0.0000 ( 92850 PWs)   bands (ev):

   -20.6472 -12.3966  -7.3924  -6.2321  -6.2073  -5.6271  -5.4045  -4.9916
    -4.8944  -4.8083  -4.6643  -4.4562  -4.4296  -4.3099  -4.2740  -4.1692
    -4.1598  -4.0626  -4.0512  -3.9637  -3.9453  -3.9313  -3.9061  -3.8914
    -3.8699  -3.8601  -3.7532  -3.7272  -3.7165  -3.6811  -3.6758  -3.6070
    -3.5242  -3.4706  -3.4303  -3.3803  -3.3359  -3.3228  -3.3102  -3.2947
    -3.2462  -3.1861  -3.1738  -3.0896  -3.0395  -3.0187  -2.8989  -2.8834
    -2.8109  -2.7516  -2.7357  -2.6887  -2.6762  -2.5760  -2.5266  -2.4964
    -2.4819  -2.4581  -2.4072  -2.3953  -2.3805  -2.2878  -2.2780  -2.2516
    -2.2430  -2.2368  -2.2275  -2.2164  -2.1806  -2.1281  -2.0493  -2.0183
    -1.9766  -1.9540  -1.8638  -1.8403  -1.8169  -1.8002  -1.7824  -1.7473
    -1.7375  -1.7094  -1.6243  -1.6167  -1.6020  -1.5700  -1.5594  -1.5235
    -1.4699  -1.4373  -1.3982  -1.3899  -1.3686  -1.3564  -1.2786  -1.2216
    -1.2020  -1.1788  -1.1749  -1.1491  -1.1323  -1.1232  -1.0963  -1.0850
    -1.0641  -1.0449  -1.0248  -0.9889  -0.9837  -0.9712  -0.9624  -0.9445
    -0.9371  -0.9128  -0.8798  -0.8653  -0.8189  -0.6761  -0.6468  -0.5556
    -0.5466  -0.4761  -0.4566  -0.4290  -0.4148  -0.3877  -0.3722  -0.3382
    -0.3109  -0.2890  -0.2373  -0.2056  -0.2015  -0.1760  -0.1460  -0.0804
    -0.0608  -0.0265   0.0172   0.1157   0.1301   0.1716   0.2056   0.2311
     0.2694   0.2999   0.3141   0.3458   0.3590   0.3752   0.4032   0.4247
     0.4498   0.5038   0.5272   0.5760   0.5952   0.6119   0.6216   0.6431
     0.6572   0.7554   0.7940   0.8653   0.8924   0.9727   1.0209   1.0576
     1.0667   1.1356   1.1846   1.1915   1.2229   1.2913   1.3316   1.3636
     1.3796   1.4048   1.4103   1.4330   1.4626   1.4872   1.5640   1.5662
     1.5862   1.5991   1.6228   1.6263   1.6499   1.6960   1.7970   1.8187
     1.8410   1.8491   1.8620   1.9105   1.9689   2.0300   2.1513   2.8013
     2.9882   2.9939   3.1869   3.2563   3.3545   3.3710   3.3854   3.6490
     3.9717   4.0012   4.1556   4.3034   4.4799   4.5231   4.5927   4.6282
     4.7615   4.8679   4.9893   5.0258   5.2215   5.4178   5.4739   5.6337
     6.0538   6.0851   6.1540

          k = 0.2000-0.3464 0.0000 ( 92852 PWs)   bands (ev):

   -20.6472 -12.3966  -7.3952  -6.7496  -5.6040  -5.5367  -5.5106  -5.2447
    -4.8184  -4.6632  -4.4579  -4.4517  -4.4447  -4.4157  -4.3941  -4.3807
    -4.3532  -4.3204  -4.2623  -4.2492  -3.8934  -3.8811  -3.8669  -3.8584
    -3.7939  -3.7720  -3.6388  -3.6264  -3.6207  -3.6061  -3.5912  -3.5194
    -3.4805  -3.4563  -3.4523  -3.4424  -3.4041  -3.3665  -3.3537  -3.3365
    -3.3062  -3.2401  -3.1860  -3.0576  -2.9504  -2.8674  -2.8635  -2.8380
    -2.8178  -2.8039  -2.7803  -2.7584  -2.7378  -2.6901  -2.5838  -2.5704
    -2.5566  -2.4707  -2.4458  -2.4000  -2.3887  -2.3739  -2.3026  -2.2807
    -2.1534  -2.1140  -2.0934  -2.0423  -2.0182  -2.0045  -1.9832  -1.9536
    -1.9272  -1.9057  -1.7813  -1.7687  -1.7561  -1.7349  -1.6989  -1.6730
    -1.6422  -1.6206  -1.5985  -1.5744  -1.4896  -1.4693  -1.4413  -1.4331
    -1.4149  -1.4121  -1.3987  -1.3661  -1.3460  -1.3363  -1.2839  -1.2693
    -1.2428  -1.1908  -1.1705  -1.1548  -1.1158  -1.0994  -1.0667  -1.0551
    -1.0427  -1.0241  -1.0095  -0.9939  -0.9734  -0.9706  -0.9439  -0.9123
    -0.8994  -0.8742  -0.8001  -0.7638  -0.7367  -0.7010  -0.6790  -0.6556
    -0.6322  -0.4777  -0.4677  -0.4081  -0.3491  -0.3426  -0.3069  -0.2862
    -0.2594  -0.2368  -0.2191  -0.2142  -0.1877  -0.1626  -0.1254  -0.0725
     0.0101   0.0553   0.0840   0.1126   0.1598   0.1761   0.1887   0.2306
     0.2593   0.3235   0.3358   0.3720   0.4176   0.4230   0.4831   0.5292
     0.5534   0.5680   0.5890   0.6289   0.6407   0.6601   0.6724   0.6828
     0.6939   0.7048   0.7298   0.8141   0.8734   0.9050   0.9477   1.0173
     1.0436   1.1341   1.2075   1.2215   1.2315   1.2586   1.3247   1.3507
     1.3575   1.3782   1.3912   1.4201   1.4272   1.4296   1.4476   1.4753
     1.5000   1.5260   1.5751   1.6056   1.6139   1.6476   1.6593   1.7001
     1.8044   1.8642   1.8996   1.9211   1.9542   1.9751   1.9864   2.1019
     2.1109   2.4175   2.6214   2.6444   2.9978   3.1514   3.1933   3.2254
     3.5147   3.8749   3.9145   4.0299   4.1102   4.1626   4.5893   4.7896
     4.9463   5.3025   5.3535   5.5484   5.5728   5.9932   6.0680   6.1074
     6.1218   6.1651   6.2567

          k = 0.4000-0.2309 0.0000 ( 92878 PWs)   bands (ev):

   -20.6472 -12.3965  -7.3940  -6.6144  -5.9873  -5.5063  -5.2232  -4.9114
    -4.9069  -4.8307  -4.7333  -4.6594  -4.5393  -4.3899  -4.2718  -4.2339
    -4.1882  -4.1828  -4.0346  -4.0073  -3.9751  -3.9586  -3.9518  -3.8452
    -3.8013  -3.7975  -3.7546  -3.7432  -3.7089  -3.6751  -3.6175  -3.6138
    -3.5970  -3.4164  -3.3566  -3.3526  -3.3438  -3.3295  -3.3161  -3.2756
    -3.1292  -3.1007  -3.0850  -3.0699  -3.0373  -3.0199  -2.9821  -2.8473
    -2.7719  -2.7556  -2.7404  -2.7282  -2.6877  -2.6733  -2.6198  -2.6094
    -2.5977  -2.5461  -2.5249  -2.4046  -2.3939  -2.3738  -2.3457  -2.2516
    -2.2138  -2.1887  -2.1744  -2.1504  -2.0316  -1.9724  -1.9550  -1.9474
    -1.9325  -1.8727  -1.8488  -1.8239  -1.7864  -1.7169  -1.7005  -1.6887
    -1.6172  -1.5899  -1.5761  -1.5624  -1.5516  -1.5137  -1.4890  -1.4724
    -1.4566  -1.4489  -1.4375  -1.4197  -1.4109  -1.3888  -1.3251  -1.3055
    -1.2972  -1.2725  -1.2529  -1.2268  -1.2063  -1.1206  -1.1025  -1.0626
    -1.0451  -1.0194  -1.0096  -0.9835  -0.9681  -0.9390  -0.8377  -0.8202
    -0.8149  -0.7784  -0.7298  -0.7109  -0.5934  -0.5850  -0.5642  -0.5050
    -0.4920  -0.4304  -0.4095  -0.3936  -0.3805  -0.3573  -0.3483  -0.3037
    -0.2771  -0.2758  -0.2607  -0.2312  -0.2161  -0.1980  -0.1760  -0.1612
    -0.0965  -0.0359  -0.0250   0.0205   0.0691   0.1182   0.1731   0.1810
     0.2249   0.2814   0.3079   0.3719   0.4373   0.4523   0.4909   0.4914
     0.5162   0.5456   0.5714   0.6223   0.6305   0.6668   0.6979   0.7167
     0.7934   0.8015   0.8226   0.8431   0.8613   0.8899   0.9533   1.0286
     1.0531   1.0912   1.1321   1.1389   1.1447   1.2194   1.2409   1.2566
     1.3225   1.3302   1.3492   1.3899   1.4089   1.4262   1.4539   1.5267
     1.5418   1.5722   1.5884   1.6070   1.6184   1.6220   1.6304   1.7985
     1.8027   1.8216   1.8448   1.8578   2.0068   2.0583   2.2716   2.4618
     2.4952   2.6580   2.8718   2.8881   3.2047   3.2705   3.2897   3.6038
     3.7230   4.0237   4.1020   4.1083   4.2800   4.3577   4.3867   4.4964
     4.6122   4.7527   5.0031   5.0359   5.3954   5.6549   5.9294   6.0558
     6.3445   6.4249   6.5846

          k = 0.4000-0.0000 0.0000 ( 92852 PWs)   bands (ev):

   -20.6472 -12.3966  -7.3953  -6.7491  -5.6029  -5.5360  -5.5098  -5.2450
    -4.8187  -4.6632  -4.4558  -4.4484  -4.4434  -4.4179  -4.3973  -4.3806
    -4.3571  -4.3214  -4.2625  -4.2500  -3.8886  -3.8749  -3.8652  -3.8588
    -3.7912  -3.7714  -3.6432  -3.6238  -3.6192  -3.6043  -3.5933  -3.5299
    -3.4838  -3.4665  -3.4535  -3.4418  -3.3999  -3.3819  -3.3447  -3.3302
    -3.2993  -3.2312  -3.1666  -3.0625  -2.9567  -2.8747  -2.8681  -2.8395
    -2.8188  -2.8072  -2.7968  -2.7643  -2.7343  -2.7044  -2.5825  -2.5695
    -2.5317  -2.4772  -2.4437  -2.4017  -2.3823  -2.3744  -2.3111  -2.2845
    -2.1506  -2.1159  -2.0958  -2.0491  -2.0183  -2.0058  -1.9926  -1.9611
    -1.9294  -1.9056  -1.7786  -1.7600  -1.7442  -1.7279  -1.6917  -1.6650
    -1.6529  -1.6217  -1.5985  -1.5729  -1.4977  -1.4766  -1.4420  -1.4266
    -1.4221  -1.4112  -1.3997  -1.3654  -1.3473  -1.3353  -1.2772  -1.2594
    -1.2390  -1.1873  -1.1739  -1.1519  -1.1138  -1.0954  -1.0632  -1.0549
    -1.0399  -1.0195  -1.0078  -0.9981  -0.9737  -0.9729  -0.9597  -0.9144
    -0.8976  -0.8738  -0.8010  -0.7691  -0.7526  -0.6898  -0.6722  -0.6668
    -0.5989  -0.4854  -0.4638  -0.4014  -0.3487  -0.3324  -0.3019  -0.2848
    -0.2750  -0.2312  -0.2224  -0.2083  -0.1879  -0.1521  -0.1137  -0.0849
     0.0194   0.0430   0.0911   0.1089   0.1536   0.1655   0.1918   0.2325
     0.2818   0.3175   0.3386   0.3611   0.4070   0.4321   0.4792   0.5182
     0.5556   0.5703   0.5877   0.6279   0.6429   0.6601   0.6631   0.6815
     0.6933   0.7158   0.7293   0.7991   0.8813   0.9120   0.9422   1.0220
     1.0439   1.1356   1.2046   1.2222   1.2253   1.2721   1.3304   1.3500
     1.3589   1.3773   1.3937   1.4191   1.4288   1.4341   1.4538   1.4755
     1.5015   1.5149   1.5783   1.6097   1.6191   1.6476   1.6580   1.7033
     1.7873   1.8504   1.8890   1.9126   1.9520   1.9734   1.9852   2.1022
     2.1155   2.4219   2.6294   2.6500   2.9970   3.1481   3.1861   3.2194
     3.5116   3.8727   3.9163   4.0410   4.1097   4.1608   4.5759   4.7948
     4.9327   5.3018   5.3475   5.5540   5.5666   6.0040   6.0678   6.1076
     6.1243   6.1715   6.2557

          k = 0.4000 0.2309 0.0000 ( 92878 PWs)   bands (ev):

   -20.6472 -12.3966  -7.3941  -6.6129  -5.9827  -5.4967  -5.2315  -4.9133
    -4.9029  -4.8170  -4.7539  -4.6636  -4.5386  -4.3903  -4.2743  -4.2383
    -4.1894  -4.1854  -4.0304  -4.0019  -3.9735  -3.9545  -3.9512  -3.8469
    -3.8033  -3.7991  -3.7515  -3.7430  -3.7128  -3.6819  -3.6190  -3.6152
    -3.6107  -3.4011  -3.3566  -3.3523  -3.3466  -3.3298  -3.3152  -3.2624
    -3.1143  -3.1032  -3.0847  -3.0698  -3.0513  -3.0126  -2.9773  -2.8619
    -2.7729  -2.7547  -2.7450  -2.7341  -2.6840  -2.6696  -2.6286  -2.6045
    -2.6018  -2.5465  -2.5193  -2.4024  -2.3983  -2.3725  -2.3496  -2.2533
    -2.2223  -2.1921  -2.1832  -2.1608  -2.0301  -1.9733  -1.9520  -1.9397
    -1.9355  -1.8716  -1.8501  -1.8157  -1.7822  -1.7073  -1.6940  -1.6765
    -1.6178  -1.5855  -1.5794  -1.5622  -1.5527  -1.5095  -1.4862  -1.4813
    -1.4579  -1.4466  -1.4369  -1.4235  -1.4162  -1.3870  -1.3334  -1.3097
    -1.2978  -1.2753  -1.2627  -1.2334  -1.2002  -1.1128  -1.1059  -1.0668
    -1.0517  -1.0139  -1.0110  -0.9790  -0.9678  -0.9359  -0.8379  -0.8295
    -0.8175  -0.7805  -0.7208  -0.7129  -0.5860  -0.5801  -0.5539  -0.4995
    -0.4630  -0.4325  -0.4061  -0.3905  -0.3705  -0.3550  -0.3471  -0.3074
    -0.2772  -0.2701  -0.2611  -0.2377  -0.2101  -0.1876  -0.1779  -0.1576
    -0.1038  -0.0285  -0.0135   0.0095   0.0640   0.1080   0.1775   0.1810
     0.2088   0.2752   0.2934   0.3821   0.4288   0.4480   0.4899   0.5036
     0.5214   0.5583   0.5692   0.6204   0.6300   0.6654   0.6972   0.7104
     0.7872   0.8002   0.8251   0.8364   0.8587   0.8836   0.9852   1.0239
     1.0406   1.0888   1.1296   1.1376   1.1434   1.2176   1.2461   1.2531
     1.3274   1.3370   1.3432   1.3896   1.4171   1.4251   1.4558   1.5317
     1.5368   1.5698   1.5898   1.6022   1.6156   1.6187   1.6261   1.7985
     1.8007   1.8156   1.8440   1.8471   2.0068   2.0584   2.2851   2.4385
     2.5195   2.6444   2.8759   2.8839   3.2094   3.2534   3.3046   3.6014
     3.7452   4.0583   4.0947   4.1143   4.2778   4.3148   4.4340   4.4840
     4.6312   4.7514   4.9566   5.0306   5.4021   5.6034   5.9572   6.0327
     6.3049   6.4169   6.5742

          k = 0.4000-0.6928 0.0000 ( 92850 PWs)   bands (ev):

   -20.6472 -12.3966  -7.3925  -6.2308  -6.2064  -5.6294  -5.4026  -4.9909
    -4.8958  -4.8099  -4.6640  -4.4515  -4.4266  -4.3104  -4.2749  -4.1726
    -4.1615  -4.0620  -4.0485  -3.9615  -3.9455  -3.9291  -3.9106  -3.8922
    -3.8691  -3.8585  -3.7456  -3.7290  -3.7167  -3.6814  -3.6764  -3.6056
    -3.5276  -3.4738  -3.4291  -3.3740  -3.3331  -3.3262  -3.3104  -3.2922
    -3.2386  -3.2086  -3.1714  -3.0964  -3.0399  -3.0209  -2.8929  -2.8818
    -2.8442  -2.7401  -2.7286  -2.6937  -2.6661  -2.5674  -2.5252  -2.4949
    -2.4754  -2.4567  -2.4188  -2.4134  -2.3846  -2.2888  -2.2782  -2.2579
    -2.2490  -2.2369  -2.2325  -2.2177  -2.1850  -2.1292  -2.0394  -2.0080
    -1.9773  -1.9490  -1.8612  -1.8452  -1.8194  -1.8061  -1.7731  -1.7491
    -1.7255  -1.6942  -1.6247  -1.6217  -1.6020  -1.5681  -1.5594  -1.5275
    -1.4747  -1.4284  -1.4078  -1.3986  -1.3700  -1.3562  -1.2719  -1.2173
    -1.2033  -1.1818  -1.1777  -1.1476  -1.1325  -1.1141  -1.0928  -1.0758
    -1.0597  -1.0383  -1.0158  -1.0092  -0.9862  -0.9731  -0.9653  -0.9420
    -0.9370  -0.9127  -0.8832  -0.8584  -0.8432  -0.6692  -0.6207  -0.5562
    -0.5479  -0.4734  -0.4591  -0.4329  -0.3996  -0.3881  -0.3684  -0.3394
    -0.3101  -0.2994  -0.2389  -0.2101  -0.2001  -0.1546  -0.1522  -0.0840
    -0.0644  -0.0104   0.0045   0.1059   0.1339   0.1839   0.2138   0.2304
     0.2532   0.3045   0.3123   0.3479   0.3528   0.3723   0.4085   0.4258
     0.4488   0.5087   0.5200   0.5665   0.5932   0.6118   0.6199   0.6489
     0.6551   0.7561   0.7841   0.8807   0.8935   0.9731   1.0201   1.0542
     1.0710   1.1329   1.1845   1.1910   1.2224   1.2918   1.3398   1.3653
     1.3866   1.4073   1.4149   1.4297   1.4645   1.4841   1.5635   1.5686
     1.5783   1.6102   1.6241   1.6316   1.6472   1.6966   1.7946   1.8114
     1.8365   1.8429   1.8532   1.9080   1.9569   2.0285   2.1516   2.7988
     2.9891   2.9932   3.1971   3.2497   3.3547   3.3744   3.4062   3.6418
     3.9677   3.9926   4.1547   4.3166   4.4779   4.5103   4.5947   4.6177
     4.7565   4.8635   4.9709   5.0174   5.2042   5.4476   5.4819   5.6267
     6.0575   6.0991   6.1689

          k = 0.4000-0.4619 0.0000 ( 92850 PWs)   bands (ev):

   -20.6472 -12.3966  -7.3925  -6.2300  -6.2118  -5.6218  -5.4163  -5.0003
    -4.8782  -4.8031  -4.6621  -4.4600  -4.4287  -4.3095  -4.2743  -4.1711
    -4.1615  -4.0634  -4.0498  -3.9578  -3.9426  -3.9315  -3.9071  -3.8896
    -3.8643  -3.8593  -3.7505  -3.7280  -3.7188  -3.6828  -3.6752  -3.6001
    -3.5134  -3.4729  -3.4411  -3.3758  -3.3417  -3.3218  -3.3101  -3.2977
    -3.2418  -3.2170  -3.1664  -3.0907  -3.0458  -3.0197  -2.8965  -2.8821
    -2.8215  -2.7500  -2.7309  -2.6862  -2.6732  -2.5737  -2.5259  -2.4957
    -2.4792  -2.4569  -2.4116  -2.4035  -2.3833  -2.2873  -2.2770  -2.2542
    -2.2437  -2.2372  -2.2243  -2.2212  -2.1798  -2.1314  -2.0436  -2.0152
    -1.9769  -1.9517  -1.8605  -1.8419  -1.8200  -1.8023  -1.7734  -1.7431
    -1.7304  -1.7082  -1.6261  -1.6176  -1.6059  -1.5689  -1.5575  -1.5247
    -1.4773  -1.4330  -1.4054  -1.3946  -1.3723  -1.3514  -1.2729  -1.2201
    -1.2004  -1.1838  -1.1747  -1.1452  -1.1336  -1.1211  -1.0946  -1.0834
    -1.0648  -1.0416  -1.0199  -1.0042  -0.9831  -0.9686  -0.9611  -0.9444
    -0.9434  -0.9174  -0.8764  -0.8633  -0.8086  -0.6642  -0.6318  -0.5562
    -0.5477  -0.4821  -0.4637  -0.4427  -0.4205  -0.3885  -0.3647  -0.3386
    -0.3130  -0.2953  -0.2364  -0.2106  -0.2006  -0.1668  -0.1460  -0.0797
    -0.0571  -0.0338  -0.0065   0.1140   0.1413   0.1805   0.2145   0.2302
     0.2728   0.2845   0.3149   0.3467   0.3637   0.3806   0.4058   0.4284
     0.4541   0.5129   0.5254   0.5612   0.5940   0.6094   0.6289   0.6439
     0.6641   0.7628   0.7850   0.8590   0.8995   0.9650   1.0197   1.0542
     1.0668   1.1315   1.1840   1.1890   1.2306   1.2895   1.3340   1.3658
     1.3827   1.4086   1.4141   1.4323   1.4725   1.4857   1.5617   1.5678
     1.5836   1.6019   1.6224   1.6283   1.6494   1.6976   1.7952   1.8138
     1.8381   1.8451   1.8610   1.9115   1.9562   2.0300   2.1569   2.8194
     2.9870   2.9943   3.1612   3.2704   3.3436   3.3697   3.3915   3.6459
     3.9622   4.0041   4.1637   4.2497   4.4743   4.5383   4.5930   4.6322
     4.7645   4.8702   4.9540   5.0647   5.2154   5.4030   5.5480   5.6357
     6.0277   6.0979   6.1156

     the Fermi energy is     1.6117 ev

!    total energy              =  -27838.46075592 Ry

     total all-electron energy =  -1326949.601253 Ry
     estimated scf accuracy    <       0.00000073 Ry
     smearing contrib. (-TS)   =       0.00253261 Ry
     internal energy E=F+TS    =  -27838.46328853 Ry

     The total energy is F=E-TS. E is the sum of the following terms:
     one-electron contribution =  -29368.96803826 Ry
     hartree contribution      =   14986.12385708 Ry
     xc contribution           =    -909.52499010 Ry
     ewald contribution        =   12951.10352858 Ry
     one-center paw contrib.   =  -25497.19764583 Ry

     convergence has been achieved in  20 iterations

     negative rho (up, down):  1.353E-02 0.000E+00

     Forces acting on atoms (cartesian axes, Ry/au):

     atom    1 type  1   force =     0.00022224    0.00010567   -0.00728092
     atom    2 type  1   force =    -0.00033027    0.00029387   -0.00356150
     atom    3 type  1   force =     0.00067119    0.00023056   -0.00339655
     atom    4 type  1   force =    -0.00018339   -0.00017804   -0.00346117
     atom    5 type  1   force =     0.00015865    0.00015587   -0.00320321
     atom    6 type  1   force =     0.00037260   -0.00016751   -0.00332461
     atom    7 type  1   force =     0.00066916    0.00084059   -0.00391828
     atom    8 type  1   force =    -0.00031709    0.00068554   -0.00335873
     atom    9 type  1   force =     0.00007702    0.00015282   -0.00328846
     atom   10 type  1   force =     0.00006633    0.00016172   -0.00088249
     atom   11 type  1   force =    -0.00011710    0.00184122    0.01003390
     atom   12 type  1   force =    -0.00038773    0.00000505   -0.00037597
     atom   13 type  1   force =     0.00168300   -0.00146768    0.01012027
     atom   14 type  1   force =    -0.00204909   -0.00176518    0.01051489
     atom   15 type  1   force =    -0.00039345   -0.00051284    0.00209241
     atom   16 type  1   force =    -0.00011967   -0.00027733    0.00010744
     atom   17 type  1   force =     0.00000552   -0.00050743    0.00196874
     atom   18 type  1   force =    -0.00043986   -0.00030597    0.00297116
     atom   19 type  1   force =     0.00000104    0.00014935   -0.00010597
     atom   20 type  1   force =    -0.00010012   -0.00006025   -0.00021392
     atom   21 type  1   force =    -0.00000096    0.00005428   -0.00035896
     atom   22 type  1   force =    -0.00030156    0.00003956   -0.00031603
     atom   23 type  1   force =    -0.00000769   -0.00000088   -0.00025665
     atom   24 type  1   force =     0.00022659    0.00005409   -0.00032307
     atom   25 type  1   force =    -0.00018837   -0.00005032   -0.00017839
     atom   26 type  1   force =     0.00024349    0.00005953   -0.00003225
     atom   27 type  1   force =    -0.00009466   -0.00016275   -0.00026299
     atom   28 type  1   force =     0.00009064    0.00012303    0.00046585
     atom   29 type  1   force =     0.00020026    0.00023359    0.00024320
     atom   30 type  1   force =    -0.00028729    0.00014679    0.00043034
     atom   31 type  1   force =     0.00026111    0.00001023    0.00028447
     atom   32 type  1   force =     0.00022877    0.00038440    0.00011460
     atom   33 type  1   force =    -0.00014755    0.00009154    0.00044934
     atom   34 type  1   force =     0.00003696   -0.00014624    0.00041411
     atom   35 type  1   force =     0.00002775    0.00005570    0.00036737
     atom   36 type  1   force =    -0.00001694    0.00017090    0.00041597
     atom   37 type  2   force =     0.00132784   -0.00071544    0.00094924
     atom   38 type  2   force =    -0.00102309   -0.00202408   -0.00168793
     atom   39 type  3   force =     0.00044788    0.00073844   -0.00046190
     atom   40 type  4   force =     0.00029045   -0.00078478   -0.00021427
     atom   41 type  4   force =     0.00016641    0.00029284    0.00031537
     atom   42 type  4   force =    -0.00096903    0.00204956   -0.00179444

     Total force =     0.004913     Total SCF correction =     0.001577
     SCF correction compared to forces is large: reduce conv_thr to get better values

     negative rho (up, down):  1.353E-02 0.000E+00

     negative rho (up, down):  1.353E-02 0.000E+00

     negative rho (up, down):  1.353E-02 0.000E+00

     negative rho (up, down):  1.353E-02 0.000E+00

     negative rho (up, down):  1.353E-02 0.000E+00

     negative rho (up, down):  1.353E-02 0.000E+00

     negative rho (up, down):  1.353E-02 0.000E+00

     negative rho (up, down):  1.353E-02 0.000E+00

     negative rho (up, down):  1.353E-02 0.000E+00

     negative rho (up, down):  1.353E-02 0.000E+00

     negative rho (up, down):  1.353E-02 0.000E+00

     negative rho (up, down):  1.353E-02 0.000E+00

     negative rho (up, down):  1.353E-02 0.000E+00

     negative rho (up, down):  1.353E-02 0.000E+00

     negative rho (up, down):  1.353E-02 0.000E+00

     negative rho (up, down):  1.353E-02 0.000E+00

     negative rho (up, down):  1.353E-02 0.000E+00

     negative rho (up, down):  1.353E-02 0.000E+00

     negative rho (up, down):  1.353E-02 0.000E+00

     negative rho (up, down):  1.353E-02 0.000E+00

     negative rho (up, down):  1.353E-02 0.000E+00

     negative rho (up, down):  1.353E-02 0.000E+00

     negative rho (up, down):  1.353E-02 0.000E+00

     negative rho (up, down):  1.353E-02 0.000E+00

     negative rho (up, down):  1.353E-02 0.000E+00

     negative rho (up, down):  1.353E-02 0.000E+00

     negative rho (up, down):  1.353E-02 0.000E+00

     negative rho (up, down):  1.353E-02 0.000E+00

     negative rho (up, down):  1.353E-02 0.000E+00

     negative rho (up, down):  1.353E-02 0.000E+00

     negative rho (up, down):  1.353E-02 0.000E+00

     negative rho (up, down):  1.353E-02 0.000E+00

     negative rho (up, down):  1.353E-02 0.000E+00

     negative rho (up, down):  1.353E-02 0.000E+00
 BEEFens 2000 ensemble energies
             -0.608952771741335E+02
             -0.362405904793215E+01
             -0.158800419893136E+02
              0.431056825255016E+02
             -0.221998320541868E+02
             -0.205917668865802E+02
             -0.353901001307275E+02
             -0.868313676392826E+02
             -0.466492478551677E+02
             -0.474229064291120E+02
             -0.370601053237345E+02
              0.230314967813634E+01
              0.407376971249641E+01
              0.762259842340293E+01
              0.266901672078828E+01
              0.476590698672316E+02
             -0.209532879395466E+02
             -0.230632364987198E+02
              0.193579604988788E+02
             -0.112787625946145E+03
              0.538375767136862E+02
             -0.290605032951853E+02
             -0.336524209885603E+01
             -0.114540737171874E+02
             -0.883190638097005E+01
             -0.464612820927678E+01
              0.885896617047170E+02
             -0.187958129895232E+02
             -0.903009213566520E+01
             -0.520256336934127E+02
              0.818010616112031E+02
             -0.187566224456833E+02
             -0.376322225059869E+02
              0.249968194975493E+02
             -0.285999176367733E+01
              0.164899929850909E+02
             -0.485668063897657E+01
              0.108255799140496E+02
              0.289502671046280E+02
             -0.103625005939363E+03
              0.560445356656256E+02
              0.142836733087632E+02
             -0.175818711635037E+01
             -0.362617530858533E+02
              0.123597787315766E+02
             -0.147591048331657E+02
              0.400031863320600E+02
              0.366097862969295E+02
             -0.308907869357274E+02
             -0.276093398588987E+02
             -0.329418617616233E+02
             -0.353448378604307E+02
              0.136998769775908E+02
             -0.492635855015856E+02
              0.116173793363268E+02
              0.625299004076344E+02
              0.637920204781005E+02
              0.357157005150581E+02
              0.154664338049145E+02
              0.271669964011490E+02
              0.894756267777072E+02
              0.213199460293068E+02
             -0.550533035087825E+02
             -0.157479030458182E+02
             -0.236887422855422E+02
              0.631927800295173E+02
             -0.776074663897359E+02
             -0.673979416217414E+02
             -0.260654636575019E+02
             -0.654274399210067E+01
             -0.472158478985657E+02
              0.271687324133405E+02
              0.804778003043441E+01
              0.872304308268593E+01
             -0.398703080159406E+02
             -0.348110406287166E+02
             -0.543933363320785E+02
              0.391518559409324E+02
             -0.297224183859467E+02
              0.266366413658821E+02
             -0.718857656888080E+01
             -0.319005863100249E+02
             -0.578132759380803E+02
             -0.177116590994080E+02
             -0.909025006849970E+01
             -0.125190017533597E+02
              0.413713901074484E+02
              0.685527157966784E+02
             -0.387165482034176E+02
             -0.797462117903291E+02
             -0.220289980727948E+02
              0.111895987002159E+03
             -0.594587587063750E+02
              0.357232751307205E+02
             -0.961035870235685E+01
             -0.665340901190810E+02
              0.255313776751247E+02
              0.399226119924224E+02
             -0.199403182426791E+02
              0.401382101755778E+02
             -0.296822918392122E+02
             -0.480237593545555E+02
              0.869211502524142E+02
              0.455461289442248E+02
              0.337494156088181E+02
              0.146851577933577E+02
              0.206524212490435E+02
              0.859381514943626E+02
             -0.257678513524159E+02
              0.790018284305322E+01
             -0.142882282498496E+03
              0.181754637209539E+02
             -0.718563381475054E+02
              0.151539888785308E+02
              0.205419451898796E+02
             -0.334152795268058E+02
             -0.559060751738465E+02
              0.654286898768680E+01
             -0.305263955456076E+02
              0.309245095933881E+02
             -0.531604749565157E+02
              0.169929752029270E+01
             -0.358215209084187E+02
             -0.424840691668913E+01
             -0.103714073979694E+01
              0.181991435902883E+02
              0.142596213601735E+01
             -0.653766468068977E+01
              0.592732194770118E+02
              0.911558615796559E+02
              0.485860232678486E+02
              0.832875618717363E+02
             -0.115601622833344E+02
              0.143377413534826E+02
              0.543068444309417E+02
             -0.110924974803295E+02
             -0.738649832755354E+02
             -0.385707387632658E+02
             -0.523623488831241E+02
             -0.277761742802124E+02
              0.328233027931173E+02
             -0.117198380535432E+03
             -0.187795852554791E+02
              0.415597703612495E+02
             -0.387572255685970E+02
             -0.366537214617222E+02
              0.546184606391414E+02
              0.402269800017064E+02
             -0.355233619125909E+02
              0.138632538281873E+02
             -0.274215143793755E+02
              0.344448530222576E+02
              0.446536928288992E+01
              0.211536065981930E+02
             -0.887851232995571E+02
             -0.481881403195324E+02
             -0.999936049452413E+01
              0.320316667957714E+01
             -0.368217059243431E+02
              0.106400852520567E+03
             -0.231566563079150E+02
             -0.399886352408210E+02
              0.390079301425708E+02
             -0.495792553442429E+02
             -0.364562749950098E+02
              0.325915491879083E+02
              0.124873429289984E+02
              0.165148963984617E+02
              0.117055022422125E+02
             -0.133203376551750E+02
              0.225722228916233E+02
              0.592106725605043E+02
             -0.312594715894612E+02
              0.163033245306920E+02
              0.937703748879852E+02
              0.341914759435479E+02
             -0.731356543178515E+01
             -0.189329664315099E+02
              0.153893339112820E+03
             -0.164823917163722E+02
              0.364627477683204E+02
              0.195359614396064E+02
              0.362603185727616E+02
              0.895097096881096E+02
              0.544558970809417E+02
             -0.240434460116717E+01
              0.228585943706121E+02
              0.486578463287544E+02
              0.364851645235579E+02
             -0.527652361290219E+02
              0.939318940562308E+02
             -0.828753756295864E+02
             -0.198550198250668E+02
              0.584739233115108E+02
              0.681323787772965E+01
              0.790284378112767E+01
              0.341839663043461E+02
              0.299932438381459E+02
              0.354858652156358E+02
             -0.639720632603572E+02
              0.287702551107520E+01
             -0.298504238161573E+02
             -0.872054704948172E+01
             -0.146717603175614E+01
             -0.727194547996968E+01
             -0.417416910182186E+01
              0.862335789964334E+02
             -0.101321599781665E+02
             -0.277362137407211E+02
             -0.497313148617585E+01
              0.140365580741778E+02
             -0.566066593280972E+02
             -0.409085044739843E+02
             -0.383244851161173E+02
             -0.632473911577645E+02
             -0.170226787773406E+02
             -0.448882348699524E+02
              0.164026468299475E+02
             -0.239027510724888E+01
             -0.104882381894099E+02
             -0.937028051840966E+01
              0.809651319069087E+01
             -0.243266543453436E+02
              0.691742082168333E+02
             -0.810252225453048E+02
             -0.141614730528387E+02
             -0.174519270122112E+02
              0.182535153832932E+02
              0.215251429898550E+02
             -0.465379817620781E+02
             -0.202318550242644E+02
              0.442456826180086E+02
             -0.276938948485174E+02
              0.187605888417588E+02
              0.384109256866062E+02
             -0.323056882177980E+01
              0.114529770767016E+03
             -0.230450452343300E+02
             -0.342089870709336E+02
              0.579660284074100E+01
             -0.229146875447146E+02
              0.529438581275228E+02
             -0.338731836687715E+02
              0.106848906419694E+02
              0.642480509903863E+02
             -0.126804856826178E+02
              0.120659374818203E+03
              0.126327507309620E+03
             -0.652250090478892E+02
              0.592621242404628E+02
              0.167195587226521E+02
             -0.519715577854921E+02
              0.216673032035156E+02
              0.355424176828982E+02
              0.364229309882158E+02
              0.135427575292388E+01
              0.160246665364789E+02
              0.698505077448533E+02
             -0.247738236192662E+02
              0.181843681514411E+02
              0.741520206977190E+02
             -0.373814749512474E+02
             -0.130486795092802E+02
              0.510586091736187E+02
              0.298433006483077E+02
              0.782781581813609E+02
              0.223801757274455E+02
              0.629516163504729E+01
              0.281252355096291E+02
              0.384748393685852E+02
             -0.473764455973619E+02
              0.334272673419594E+01
              0.130727564552122E+02
              0.114173808507448E+02
              0.221393638879952E+02
             -0.577099004863337E+02
              0.367127318307248E+02
             -0.445362628416627E+02
             -0.348604723942777E+02
              0.178781646173779E+02
             -0.181797661203931E+02
              0.557054787092593E+02
             -0.256649920344004E+02
              0.267782799360245E+02
              0.369190706609410E+02
              0.831924841496758E+02
              0.576626967882784E+02
              0.463595494327697E+02
             -0.105623797855249E+02
             -0.394036958579898E+01
             -0.333307392923374E+02
              0.753456403735051E+02
              0.799933038890399E+02
              0.363258653878638E+02
             -0.192913457516371E+02
              0.513537918439852E+02
             -0.162947870834629E+02
              0.215424849056214E+02
              0.616814352835908E+02
              0.213186579223282E+01
             -0.104720841489209E+02
             -0.283632822857068E+02
             -0.513836435030607E+02
              0.948806018959538E+02
              0.441607664012054E+02
             -0.561214009022776E+02
             -0.969440706593645E+01
              0.250746226546051E+02
             -0.100022659197973E+02
              0.594352621776098E+02
              0.152536436777162E+02
              0.801910877019825E+02
              0.280724253257859E+02
             -0.264688895484265E+02
              0.249556143563363E+02
             -0.503274979214916E+01
             -0.324536814272316E+02
              0.133661914310199E+02
              0.206141838373261E+02
              0.936180474331787E+02
              0.800141484181127E+02
              0.552989492532308E+02
              0.733012607507249E+02
              0.803913877341407E+01
             -0.274688085486604E+02
              0.163638622205726E+02
             -0.369104529585713E+02
             -0.478301180926112E+02
             -0.565603201012356E+02
             -0.267594402729362E+02
             -0.110082604809021E+03
             -0.292652226975493E+02
             -0.840484168135529E+02
              0.210896817504821E+02
             -0.478703532888872E+02
              0.398448684593131E+02
             -0.944954130021877E+02
             -0.331167895909379E+02
              0.549962475259064E+02
              0.208391233264047E+02
             -0.833806862338252E+02
              0.632944872066872E+02
             -0.257795989838258E+02
              0.514339106760855E+02
             -0.243374771352371E+02
             -0.754195817630010E+02
              0.112360518659551E+02
             -0.613620542857491E+02
             -0.168445145494225E+02
             -0.149814284215524E+01
              0.419679836190011E+02
              0.127455564859566E+03
             -0.463243795241878E+02
             -0.363771948820205E+02
             -0.986308514779353E+00
             -0.130786655361891E+02
             -0.825417985759079E+02
             -0.598769783384465E+02
              0.518919940529029E+02
             -0.289754695024826E+02
              0.169974989299168E+02
             -0.491078018159636E+02
             -0.132438116567509E+02
             -0.438625818094782E+02
              0.567369391446923E+02
              0.151348625767821E+02
             -0.232498363237277E+02
             -0.127579132227264E+02
              0.671820123548717E+01
             -0.622391215233921E+01
              0.443059040901082E+02
             -0.252878014987677E+02
              0.281790310700899E+01
              0.340699184462414E+02
              0.171699105850469E+02
             -0.160648882349279E+02
              0.156814605355351E+03
              0.540188683003450E+02
              0.118796646603212E+01
              0.161750272276087E+02
             -0.617116946429490E+02
              0.316100078922096E+02
             -0.724457876241681E+02
             -0.253088765544946E+02
             -0.524736556690887E+02
             -0.220770884615450E+02
              0.571272076410888E+02
             -0.539093112606128E+02
              0.161752261326111E+02
             -0.410796095001626E+01
              0.387526921681473E+01
             -0.435099392781514E+02
             -0.479807002119124E+02
             -0.403093913462476E+01
             -0.426197668173273E+02
             -0.217882022660839E+02
             -0.439975880659371E+02
             -0.119557676469325E+02
             -0.360220516239904E+02
             -0.518344562849556E+02
              0.213564049428501E+02
             -0.209730277820537E+02
              0.188611567638008E+02
              0.978592554263065E+01
             -0.740735017074420E+02
             -0.549946677604407E+02
             -0.399889904650043E+02
              0.355422020963947E+02
              0.269552913281615E+01
             -0.628846287988574E+02
              0.587894060933561E+02
             -0.402644221844967E+02
              0.546947611321412E+02
             -0.290781145227962E+02
             -0.447678359729102E+02
              0.299231529610712E+02
             -0.660138203815255E+02
             -0.381316286389884E+02
              0.674922623073602E+02
              0.204776837893397E+02
             -0.361811267251933E+02
              0.491528935757051E+02
             -0.174713900539997E+02
             -0.324314144034407E+02
             -0.302919705372673E+02
             -0.502462361135423E+02
              0.250386823894076E+02
             -0.936320707218200E+02
             -0.843139996305644E+02
             -0.737779684748330E+01
             -0.307820766252437E+02
             -0.577760837837808E+02
              0.724440963013521E+02
              0.132010626287723E+03
             -0.361966998634170E+02
             -0.256455635942910E+01
             -0.639384139870380E+02
              0.652862030082026E+02
              0.171505428026945E+02
             -0.182589574701080E+02
             -0.411355815772662E+02
              0.149163702820469E+02
             -0.588243054841431E+02
             -0.198500004864733E+02
             -0.907804581177175E+02
              0.338306541393865E+02
              0.169363373692898E+02
              0.183732689954059E+01
             -0.709955668732437E+01
             -0.331190219837370E+02
             -0.762841534076045E+01
              0.126014203944632E+03
             -0.199542605121038E+02
             -0.439325675051032E+02
             -0.686409824288662E+02
              0.109809172964517E+02
             -0.343567763380853E+02
              0.594965100649105E+01
              0.262640147009922E+02
              0.102407214131340E+02
              0.279108428578866E+02
              0.120502458098048E+02
              0.631737283687880E+02
              0.317711696372287E+02
             -0.327888823004112E+02
              0.357422841334802E+02
              0.380726742582143E+02
              0.121264240636875E+02
              0.488643778829153E+02
             -0.225836921550563E+02
              0.768320503827166E+02
              0.173106686862913E+02
             -0.273319864698367E+02
             -0.726360211045208E+01
             -0.187105497684218E+02
              0.262549274399481E+02
             -0.235263829699825E+02
             -0.156541545395129E+00
             -0.854242237584583E+01
              0.812594728844533E+02
              0.502097434419057E+02
             -0.689338928928919E+02
             -0.479110519753738E+01
             -0.557240264922007E+02
             -0.159919776403150E+02
             -0.269167469060753E+02
              0.379517582466769E+01
              0.592555929969668E+00
             -0.258660219353142E+02
              0.819209276771733E+01
             -0.605740305654082E+01
             -0.128874540085304E+02
              0.862045048101223E+02
              0.182401379546690E+02
             -0.810069693829140E+02
             -0.459924169435556E+02
              0.948424982341078E+02
              0.278829425387328E+02
             -0.107111947474499E+02
              0.104960533304453E+03
             -0.195324434542080E+02
             -0.123354314083353E+02
             -0.542631602801782E+01
              0.108004500026075E+02
              0.273634730087623E+02
              0.781802068098702E+01
              0.306343963600792E+02
             -0.188373168759229E+02
             -0.305174487808123E+02
             -0.419501507512496E+02
             -0.478680601173072E+02
              0.465593283639656E+02
              0.127277257174901E+02
              0.389054497289316E+02
              0.134066954357151E+02
              0.858885381893009E+02
              0.157082073759780E+02
             -0.848980304698468E+02
             -0.335678749901742E+02
              0.133972735656080E+02
             -0.303797576211026E+02
              0.628863659988274E+02
             -0.892026157912983E+01
              0.149336870733152E+02
              0.499107655701326E+02
             -0.710114703673285E+02
              0.150275407113252E+03
              0.209425030715064E+02
              0.272136212021434E+02
              0.348992097225096E+02
              0.104036282923228E+02
             -0.156304877342444E+01
              0.359619492986810E+02
             -0.358576528740792E+02
              0.776413046932589E+02
              0.687582925638950E+02
             -0.407575244228583E+02
              0.150191942622043E+02
              0.672780275319191E+02
             -0.224636625860828E+02
              0.154999014403810E+02
              0.436475485416567E+02
              0.423706177958817E+02
             -0.787696388978474E+02
             -0.153125100950332E+02
             -0.357254448243570E+02
             -0.151071287198391E+01
             -0.768730307113725E+01
             -0.542069123746660E+01
             -0.181167420775342E+02
             -0.295090723794406E+02
              0.639174318511272E+01
              0.112039149118197E+02
              0.537644427403764E+02
             -0.391971726083383E+02
              0.376093687916872E+02
              0.440312589096625E+02
             -0.187012633235603E+02
              0.875308829601517E+02
             -0.700367147640746E+02
             -0.103569694580886E+03
             -0.662307891962499E+01
             -0.272409746196342E+01
              0.385445548507755E+01
              0.792473514822429E+02
             -0.107238658428288E+02
              0.418229204210202E+02
              0.445692144437363E+02
              0.386661069617079E+02
             -0.998422259222241E+01
              0.629680463629135E+02
             -0.134223602536713E+02
             -0.308785470786423E+02
             -0.480966420581599E+02
              0.590679281260704E+01
              0.370846749575027E+02
             -0.604078954880862E+01
              0.394256386179844E+02
             -0.175848869587304E+01
              0.657385519444282E+02
              0.187961912580593E+02
              0.100143789582648E+02
             -0.121856212902618E+02
              0.333348953561705E+02
              0.363951621778854E+02
              0.233314260039538E+02
             -0.513666180970972E+00
             -0.552556939199799E+02
              0.261863035711518E+02
              0.175932056712556E+02
              0.403903677577974E+02
              0.273350611296790E+02
              0.373731243274881E+02
             -0.605636261041883E+01
              0.252300511151030E+02
             -0.299558054741497E+02
             -0.198785092345918E+01
             -0.571228052961304E+02
             -0.309007009516594E+02
              0.380258526397648E+02
             -0.938987525512601E+02
              0.295416117812610E+02
              0.184652386608216E+02
              0.843426135351698E+02
             -0.301114629563873E+02
              0.330712886161789E+02
             -0.138092684938509E+02
             -0.465757632664069E+02
             -0.764051328696025E+02
             -0.531062516004926E+01
             -0.863358848028464E+02
              0.200146240951968E+02
             -0.248318021246297E+02
              0.306958790623990E+02
              0.237829023382697E+02
             -0.242263756218795E+02
             -0.266581934880609E+02
              0.392389116021540E+02
             -0.590570213605012E+02
             -0.117284614517653E+02
             -0.196814564786053E+02
              0.213692948500718E+02
             -0.890045981825085E+01
              0.363980294497759E+01
             -0.201331645485118E+02
              0.560843699055417E+02
             -0.441651944384613E+02
              0.791822952455766E+01
              0.587805038193367E+02
             -0.324738754236953E+02
              0.362088985762341E+01
             -0.881379791858546E+01
             -0.671912038196240E+02
             -0.484042787831955E+02
             -0.862655195390967E+01
              0.241858602564725E+02
              0.303564965209517E+02
              0.862234760101654E+01
             -0.417993792361847E+01
              0.152615667312076E+02
             -0.441416968347241E+02
              0.331290604117521E+01
             -0.533044590599702E+02
             -0.325800843372140E+02
              0.476567622136380E+02
             -0.296252408171752E+02
              0.625028550847418E+02
             -0.215652140948454E+02
              0.354901629555134E+02
              0.242745816733005E+02
             -0.646379426421711E+02
             -0.281376458195096E+02
              0.935249441072042E+01
             -0.373363918419268E+02
             -0.340986382857967E+02
             -0.833172042558708E+02
             -0.541396168470455E+02
             -0.512413816439672E+02
             -0.417206762622789E+02
             -0.977579780490345E+00
              0.100240695335319E+02
              0.107101152894981E+01
              0.154155085583288E+02
             -0.551498360139574E+02
              0.142500609911389E+02
              0.257857747603189E+02
             -0.669269349743946E+02
             -0.704257408869051E+02
             -0.432874387885648E+02
             -0.173142381808696E+02
              0.179139592118073E+02
              0.455167037400065E+01
             -0.427426128326619E+02
              0.367398893867004E+02
             -0.216957073443190E+02
              0.519312235504041E+02
             -0.890526727146037E+02
              0.600105697102732E+02
             -0.216003825262376E+01
             -0.370047250206198E+02
             -0.217259551340304E+02
              0.471790534638649E+01
              0.376296655458771E+02
             -0.759101583385419E+02
             -0.121214425693504E+02
             -0.217453575873473E+02
              0.512789080069713E+02
              0.867907774576328E+02
             -0.969025481617859E+02
              0.947429415834175E+02
              0.469161767721212E+02
             -0.728230342078615E+02
             -0.367827422309861E+02
              0.754860026001979E+02
              0.634127486481585E+02
             -0.182044434325561E+02
             -0.465197612823476E+01
              0.738280898805588E+01
              0.651908420331669E+02
             -0.510573248634306E+02
              0.158961192006713E+02
             -0.475413332200952E+01
              0.348734320890826E+02
             -0.749753967803747E+02
             -0.649974498728737E+01
             -0.352197548928165E+02
              0.462472254847403E+02
              0.470211405443286E+02
             -0.865196328962468E+02
             -0.488924874740322E+02
             -0.256996109226951E+02
[...]
              0.284301865391087E+02
              0.142287566222346E+03
              0.243479355749814E+02
              0.123161670758047E+02
             -0.465995172763147E+02
             -0.639892668420871E+02
             -0.189577729155537E+02
              0.330856895245195E+02
             -0.429993130547700E+01
              0.190994836040116E+02
              0.337425310511674E+02
             -0.588449522979670E+02
              0.223436746697573E+02
              0.583403424981750E+02
              0.554817317360859E+02
             -0.421480140099652E+01
             -0.135696438341563E+01
             -0.996464383950268E+01
             -0.484005791615507E+02
             -0.677343432821821E+02
              0.788272779861320E+02
             -0.525831962962562E+01
             -0.589886374561522E+02
              0.173034607643589E+01
             -0.206217164010235E+02
              0.941602033644713E+02
             -0.217369488702298E+02
             -0.354823197984037E+02
              0.336488936758691E+02
             -0.146374636366285E+02
              0.391180323748836E+02
             -0.236211567351069E+01
              0.101415568049086E+03
              0.491453145368232E+02
             -0.508290021500858E+01
             -0.323288791720173E+02
              0.233284526286862E+02
             -0.530458829066799E+02
             -0.128166411171475E+02
              0.587877667456842E+02
             -0.288684857547740E+02
             -0.439861690018427E+02
             -0.223973292389702E+02
              0.520373049673051E+02
              0.125173581762717E+02
             -0.851656636674384E+02
              0.305068257744861E+02
              0.152543831573460E+02
              0.580925113983679E+01
             -0.515182906792845E+02
             -0.375926628851607E+01
              0.324282226374302E+02
              0.514447261302620E+02
              0.634966663273524E+02
              0.230088192721987E+02
              0.773248830600750E+00
             -0.499883682949343E+02
             -0.511612385885613E+02
             -0.750195696204252E+02
             -0.620794424041242E+01
              0.310175566790389E+02
             -0.379368888564102E+01
              0.548649342475312E+02
             -0.319150333570091E+02
              0.166959197967739E+02
             -0.103330596818563E+02
             -0.290630463614190E+02
              0.587747512688040E+02
              0.794313085223706E+01
              0.606523533427952E+02
              0.511269851770408E+01
              0.265773918436402E+02
             -0.193248201780258E+02
              0.588231250263798E+02
             -0.112088316044723E+02
             -0.116837121269660E+00
             -0.792824467048798E+02
             -0.128636964657040E+02
              0.721488156201408E+02
              0.675366657281763E+02
              0.252807523989924E+02
             -0.130843000725506E+02
              0.346086608297514E+01
             -0.174247190296216E+02
             -0.210465714712836E+01
              0.910940473888722E+02
              0.125730817076737E+01
             -0.191389195099646E+02
             -0.111121595862290E+03
             -0.554195988626539E+02
             -0.376360381460154E+02
             -0.660771054629804E+02
             -0.557622274719166E+02
             -0.684988788379416E+02
             -0.448765423109798E+02
             -0.411971509591750E+02
             -0.453502744374430E+02
              0.485116155759904E+02
             -0.294819062956400E+02
             -0.998321577501205E+02
              0.420385102198132E+02
             -0.261167042473397E+02
             -0.793569337881461E+02
              0.947173697488132E+02
             -0.220560249408566E+02
              0.228613648993985E+02
              0.456437048310023E+02
             -0.130943469707950E+01
              0.255271098093253E+02
              0.470289030212305E+01
              0.409765252303771E+00
             -0.151199511724075E+02
             -0.718401509226006E+02
              0.133583529995684E+02
             -0.129811953791003E+03
              0.626600094375922E+02
             -0.442104757805106E+02
             -0.163431133046442E+02
             -0.158699214833701E+02
              0.720851023075430E+01
             -0.228278982933887E+02
              0.297992625337581E+02
             -0.522418689604268E+02
              0.368477643485044E+02
              0.372445483224514E+02
              0.168721108417272E+02
              0.100975054232402E+02
              0.198558220033641E+02
              0.625475141221517E+01
              0.311290014445646E+02
             -0.802311645633881E+01
             -0.594731932943311E+02
              0.760993835954275E+01
             -0.153615983002549E+02
             -0.195531459861132E+01
              0.508162053905567E+02
             -0.829623106207637E+02
             -0.147112622981740E+01
              0.584822206797298E+00
              0.998465260081764E+01
              0.319537391738767E+02
             -0.124050933474172E+02
              0.838449921956769E+02
              0.489027435571602E+02
             -0.183721579402669E+02
             -0.957956930500012E+01
              0.107521005810739E+01
              0.772123190745743E+02
             -0.587909673376454E+02
             -0.106112232558634E+03
              0.310242877605982E+02
             -0.163624079200173E+02
             -0.140083876829789E+02
              0.131141355095035E+02
              0.771126799149026E+02
              0.465731760329730E+02
             -0.154032455388308E+02
             -0.504791741282445E+02
             -0.552338711609227E+01
              0.307388487600886E+02
             -0.112119162378604E+02
             -0.758286437896761E+02
             -0.274133707107163E+01
             -0.893186385410569E+02
             -0.477226171041928E+02
              0.771450806047371E+02
             -0.485350341113943E+02
             -0.638961313072643E+02
             -0.516177691090561E+02
             -0.351059814752767E+02
              0.342209689127432E+02
              0.824468701863041E+02
             -0.360572406404907E+01
              0.277474281225166E+02
             -0.184476835224314E+02
             -0.696309796719565E+02
              0.466772856287508E+02
             -0.446705583472084E+02
              0.322584345331846E+02
              0.377319253601350E+02
             -0.659875277641942E+01
              0.391727675259951E+02
              0.439689480506137E+02
              0.101058714750283E+03
             -0.156374994201946E+02
             -0.457895538494145E+02
             -0.614946968681419E+02
             -0.124455698326349E+02
             -0.234187034932953E+02
              0.103348187010558E+03
             -0.450639619443282E+02
              0.105453654251312E+02
              0.972534247021122E+01
             -0.265402215463238E+02
             -0.801830135874749E+02
             -0.701731920968706E+01
              0.983257693444187E+02
              0.943507384485937E+01
              0.810598589806807E+01
             -0.528946962442338E+02
             -0.607339475631481E+02
             -0.567459488413827E+01
              0.501977377652490E+02
             -0.222779033643051E+02
              0.108319943670239E+03
             -0.437291568638790E+02
              0.146946328105599E+02
             -0.224625058703816E+02
             -0.720698790020829E+02
              0.169630098749241E+01
             -0.503409346384960E+02
             -0.763095749820181E+02
              0.620074946677835E+01
              0.236579755729724E+01
              0.515862164020712E+02
              0.188075657640486E+02
             -0.324818326679909E+02
              0.230759485577258E+02
             -0.813988891407251E+02
             -0.523342811472581E+02
              0.904841574588004E+02
              0.142539067596093E+02
             -0.188243244088414E+02
             -0.353357687602726E+02
             -0.271654351291875E+01
             -0.589969607388753E+01
              0.833432788587667E+02
              0.419213616717702E+02
             -0.166345365553599E+02
             -0.121868974290237E+02
             -0.428888347459775E+02
             -0.201171855354893E+02
             -0.672105404999421E+02
              0.461485253166362E+02
              0.549463093154782E+01
              0.145216221207570E+02
              0.156719014716861E+02
             -0.598154195800859E+00
             -0.169120548736039E+02
             -0.305867834792511E+01
             -0.100796924626102E+03
             -0.230501811980394E+02
             -0.768953527707981E+01
             -0.950753248206206E+01
              0.548003795554216E+02
              0.626060347645042E+02
              0.165323635325421E+02
             -0.973749779513459E+02
              0.649583653961463E+02
             -0.215678091651696E+02
             -0.378297836389008E+02
             -0.867166320052379E+02
             -0.387918973839337E+02
              0.566677614278070E+02
              0.245446424295906E+02
              0.518750067780553E+01
              0.293390850099042E+02
             -0.566780697910856E+02
             -0.423874076149714E+02
              0.517325302802876E+02
              0.388482652730863E+02
              0.520496447313230E+02
             -0.118832575565466E+01
              0.689528787375349E+01
              0.571245000207499E+02
              0.966075615115794E+02
             -0.300882935753432E+02
              0.324296946562145E+02
             -0.119514808554982E+02
             -0.413616792703365E+02
             -0.315584248983481E+02
             -0.301373219434344E+02
             -0.131826696072289E+02
             -0.524996863527346E+02
             -0.217848331284108E+02
             -0.141624484500711E+03
              0.370076301610229E+02
              0.207499361283995E+02
             -0.395451358739473E+01
             -0.381396153298936E+02
             -0.204881179455733E+02
             -0.528680422360105E+02
              0.151611271976982E+02
              0.822766084812624E+02
             -0.252761172558276E+02
             -0.163653514510402E+02
              0.238846252014175E+02
             -0.491142192715590E+02
              0.883356661605568E+02
              0.154928365410288E+02
              0.226605338380593E+02
              0.491907527102275E+02
              0.318427152699417E+01
              0.543907262680115E+02
              0.143654876773258E+02
             -0.106689834732238E+02
              0.734707374092002E+01
              0.743651921549258E+00
              0.729335771839942E+02
              0.101525068758450E+02
              0.121216145131022E+02
             -0.130471240817601E+02
              0.132795976848794E+02
             -0.914237875822667E+02
             -0.327107202956979E+02
             -0.458918266467234E+02
              0.486855024452238E+02
             -0.292145154631630E+02
             -0.660417590349836E+02
              0.540510828717061E+02
             -0.122371702102373E+02
              0.441483522341206E+02
             -0.901732630361273E+02
              0.232790484575899E+02
              0.858637866959310E+01
              0.585093245663018E+01
             -0.835357050807289E+01
             -0.906503200995905E+01
              0.481103272154708E+02
              0.199848800061892E+01
             -0.476839700847520E+02
             -0.176799682405622E+02
              0.277315406084387E+02
             -0.118324593757834E+03
             -0.932780895888720E+02
              0.395944201048525E+01
              0.118104212719239E+02
             -0.414902166899608E+02
             -0.390044758410215E+01
              0.112452858527040E+03
              0.307470395876960E+02
             -0.573405995449632E+02
              0.927888523540864E+01
             -0.967032315490844E+01
              0.106161619773905E+02
             -0.338940590739945E+02
              0.196154612322831E+02
              0.285493540739017E+02
             -0.301112075898618E+01
              0.108549577330293E+03
             -0.140509785302611E+02
             -0.317022481467445E+02
              0.143805023384738E+02
              0.467926485363570E+02
             -0.357026653621521E+02
             -0.318424916303343E+01
              0.968106469186903E+02
             -0.464357822719546E+01
              0.623541784019000E+02
              0.136007037411868E+02
             -0.903782138976494E+01
             -0.306045405490789E+02
              0.568294171401557E+02
             -0.516096649916947E+02
             -0.221350810544715E+01
             -0.170591850043751E+02
             -0.406618160452522E+02
              0.185506326923608E+02
              0.240217543705058E+02
              0.116281870583117E+02
              0.711263540464643E+00
             -0.385864307336066E+02
              0.215809335775405E+02
             -0.674893828435071E+01
             -0.247189759708689E+02
             -0.211285934866904E+02
              0.203790612857231E+02
             -0.599940584329181E+01
             -0.350455563556018E+02
             -0.107003737702370E+03
              0.103227778394315E+02
              0.249398402873469E+02
             -0.388919033793642E+02
             -0.211727242640374E+02
              0.809893873386429E+02
              0.655287741085527E+01
              0.312167663305804E+02
              0.394105898612250E+01
              0.323154355007702E+02
              0.648326782638469E+01
             -0.374273479434789E+02
             -0.236067275425029E+01
              0.878743157503550E+01
              0.274844145482722E+02
              0.784433103912374E+02
              0.508998740601334E+02
              0.196019744441173E+00
              0.169836780238353E+02
              0.615263732971191E+02
              0.236820235635413E+02
             -0.755158604295628E+02
             -0.274637452989923E+02
              0.151495583258564E+02
              0.564804592529180E+01
              0.255856711707147E+02
             -0.549479707334821E+02
              0.901450150480241E+01
              0.387469430599171E+02
              0.499576629132246E+02
             -0.436336300207751E+02
             -0.690480768622842E+01
             -0.209148751360391E+01
             -0.134314706381485E+02
             -0.366434300156424E+02
             -0.215821884061704E+02
             -0.205955331557242E+01
              0.796516941450420E+01
              0.422781923289064E+02
             -0.309296372400363E+02
              0.828869605544296E+02
              0.328688163293427E+02
              0.220789582404416E+02
              0.334331164977397E+02
              0.324040939324127E+02
              0.347421809432678E+02
              0.538964742851319E+02
             -0.435428970049134E+02
              0.621735996143159E+02
             -0.112653822060070E+03
              0.308364377296343E+02
             -0.106882285145112E+03
              0.857380189429233E+02
              0.693247733248768E+02
             -0.110189069017940E+02
             -0.494804329015911E+02
             -0.430976992395353E+02
             -0.625378749332381E+02
             -0.630868166501975E+02
              0.553827809749548E+02
              0.406897585209986E+02
              0.237604099767235E+02
              0.374714356673991E+02
              0.404619045207151E+02
             -0.383415861645369E+02
             -0.198413317515171E+02
              0.588493300634646E+02
             -0.116572273082947E+02
              0.553580220874610E+02
              0.701931617912155E+02
             -0.556536371581602E+01
             -0.708771229275567E+02
             -0.865688054033967E+00
             -0.246943787990327E+01
             -0.885902831702629E+01
             -0.180621257335071E+01
             -0.655135132737196E+02
             -0.211095793471719E+02
              0.543060604779704E+01
              0.904152164758264E+01
              0.470570559264777E+02
             -0.399102394630299E+02
              0.659248760155482E+02
             -0.426653464492046E+02
              0.211294313189956E+02
              0.351698438886618E+02
 
 BEEF-vdW xc energy contributions
           1 :   -785.309753746818     
           2 :    721.227383050349     
           3 :   -610.401872283302     
           4 :    480.098271376089     
           5 :   -357.877203561346     
           6 :    263.519833598552     
           7 :   -204.614458644742     
           8 :    176.590916601891     
           9 :   -166.756614193095     
          10 :    160.447081573334     
          11 :   -146.804446967643     
          12 :    122.013998735457     
          13 :   -89.1525697540799     
          14 :    55.2745412997248     
          15 :   -27.4164226103654     
          16 :    9.32879562847359     
          17 :  -0.196220810088903     
          18 :   -4.39928240574341     
          19 :    9.97950875003903     
          20 :   -20.4507759436357     
          21 :    36.4159388592016     
          22 :   -55.1852113286554     
          23 :    72.3110401322471     
          24 :   -83.8116726834097     
          25 :    87.9876773774508     
          26 :   -86.0303306075314     
          27 :    81.2431090286030     
          28 :   -77.3450345653027     
          29 :    76.7029680286995     
          30 :   -79.3348076343423     
          31 :   -86.1157936241157     
          32 :   -65.9468000200494     

     Writing output data file ./pwscf.save/
 
     init_run     :    364.88s CPU    369.80s WALL (       1 calls)
     electrons    :  15392.98s CPU  15565.98s WALL (       1 calls)
     forces       :    108.40s CPU    110.00s WALL (       1 calls)

     Called by init_run:
     wfcinit      :    316.64s CPU    320.38s WALL (       1 calls)
     potinit      :     44.68s CPU     45.07s WALL (       1 calls)
     hinit0       :      1.49s CPU      1.55s WALL (       1 calls)

     Called by electrons:
     c_bands      :  12657.32s CPU  12791.90s WALL (      21 calls)
     sum_band     :   1867.81s CPU   1886.59s WALL (      21 calls)
     v_of_rho     :    118.17s CPU    123.14s WALL (      21 calls)
     newd         :     36.73s CPU     51.11s WALL (      21 calls)
     PAW_pot      :    141.35s CPU    141.39s WALL (      21 calls)
     mix_rho      :    616.98s CPU    618.18s WALL (      21 calls)
     vdW_kernel   :     33.50s CPU     33.50s WALL (       1 calls)

     Called by c_bands:
     init_us_2    :     96.82s CPU     97.58s WALL (     572 calls)
     cegterg      :  11772.55s CPU  11902.61s WALL (     273 calls)

     Called by *egterg:
     cdiaghg      :     86.93s CPU     87.10s WALL (    1402 calls)
     h_psi        :   7733.17s CPU   7779.37s WALL (    1428 calls)
     s_psi        :   1201.35s CPU   1202.01s WALL (    1428 calls)
     g_psi        :     18.04s CPU     18.11s WALL (    1142 calls)

     Called by h_psi:
     h_psi:calbec :   1114.75s CPU   1118.62s WALL (    1428 calls)
     vloc_psi     :   5385.61s CPU   5388.82s WALL (    1428 calls)
     add_vuspsi   :   1202.38s CPU   1204.65s WALL (    1428 calls)

     General routines
     calbec       :   1642.32s CPU   1647.35s WALL (    1753 calls)
     fft          :     54.49s CPU     54.53s WALL (    3281 calls)
     ffts         :    188.68s CPU    188.72s WALL (   11630 calls)
     fftw         :   5421.89s CPU   5423.36s WALL (  347881 calls)
 
     Parallel routines
 
     PWSCF        :      4h26m CPU      4h29m WALL

 
   This run was terminated on:  19:16:53  20May2022            

=------------------------------------------------------------------------------=
   JOB DONE.
=------------------------------------------------------------------------------=
