
     Program PWSCF v.6.7MaX starts on 26Sep2022 at 14: 5: 4 

     This program is part of the open-source Quantum ESPRESSO suite
     for quantum simulation of materials; please cite
         "P. Giannozzi et al., J. Phys.:Condens. Matter 21 395502 (2009);
         "P. Giannozzi et al., J. Phys.:Condens. Matter 29 465901 (2017);
          URL http://www.quantum-espresso.org", 
     in publications or presentations arising from this work. More details at
     http://www.quantum-espresso.org/quote

     Parallel version (MPI), running on     1 processors

     MPI processes distributed on     1 nodes
     Reading input from c2h4-ensemble.in
Warning: card &CELL ignored
Warning: card / ignored

     Current dimensions of program PWSCF are:
     Max number of different atomic species (ntypx) = 10
     Max number of k-points (npk) =  40000
     Max angular momentum in pseudopotentials (lmaxx) =  3
     file Pt.pbe-n-kjpaw_psl.1.0.0.UPF: wavefunction(s)  6S 5D renormalized
     file H.pbe-kjpaw_psl.1.0.0.UPF: wavefunction(s)  1S renormalized
     file C.pbe-n-kjpaw_psl.1.0.0.UPF: wavefunction(s)  2S 2P renormalized

     **************************************************************************
     Initializing libbeef V0.1.2 with the BEEF-vdW functional.
     Citation: Wellendorff et al., PRB 85, 235149 (2012).
     **************************************************************************


     IMPORTANT: XC functional enforced from input :
     Exchange-correlation= BEEF-VDW
                           (   1   4  43  14   2   0   0)
     Any further DFT definition will be discarded
     Please, verify this is what you really want


     Subspace diagonalization in iterative solution of the eigenvalue problem:
     a serial algorithm will be used

 
     G-vector sticks info
     --------------------
     sticks:   dense  smooth     PW     G-vecs:    dense   smooth      PW
     Sum        4267    4267   1159               719887   719887  101443
 


     bravais-lattice index     =            0
     lattice parameter (alat)  =      16.0349  a.u.
     unit-cell volume          =   11460.0365 (a.u.)^3
     number of atoms/cell      =           42
     number of atomic types    =            3
     number of electrons       =       372.00
     number of Kohn-Sham states=          223
     kinetic-energy cutoff     =      60.0000  Ry
     charge density cutoff     =     240.0000  Ry
     scf convergence threshold =      1.0E-06
     mixing beta               =       0.7000
     number of iterations used =            8  local-TF  mixing
     Exchange-correlation= BEEF-VDW
                           (   1   4  43  14   2   0   0)

     celldm(1)=  16.034858  celldm(2)=   0.000000  celldm(3)=   0.000000
     celldm(4)=   0.000000  celldm(5)=   0.000000  celldm(6)=   0.000000

     crystal axes: (cart. coord. in units of alat)
               a(1) = (   1.000000   0.000000   0.000000 )  
               a(2) = (   0.500000   0.866025   0.000000 )  
               a(3) = (   0.000000   0.000000   3.209667 )  

     reciprocal axes: (cart. coord. in units 2 pi/alat)
               b(1) = (  1.000000 -0.577350  0.000000 )  
               b(2) = (  0.000000  1.154701  0.000000 )  
               b(3) = (  0.000000  0.000000  0.311559 )  


     PseudoPot. # 1 for Pt read from file:
     /users/bkreitz1/quantum-espresso/potentials/Pt.pbe-n-kjpaw_psl.1.0.0.UPF
     MD5 check sum: 04dc8a03c51ece93fc7b5889c2958091
     Pseudo is Projector augmented-wave + core cor, Zval = 10.0
     Generated using 'atomic' code by A. Dal Corso  v.6.7MaX
     Shape of augmentation charge: PSQ
     Using radial grid of 1277 points,  6 beta functions with: 
                l(1) =   0
                l(2) =   0
                l(3) =   1
                l(4) =   1
                l(5) =   2
                l(6) =   2
     Q(r) pseudized with 0 coefficients 


     PseudoPot. # 2 for H  read from file:
     /users/bkreitz1/quantum-espresso/potentials/H.pbe-kjpaw_psl.1.0.0.UPF
     MD5 check sum: ae98473e6dc62675f0d0baffdab24f65
     Pseudo is Projector augmented-wave, Zval =  1.0
     Generated using 'atomic' code by A. Dal Corso  v.6.7MaX
     Shape of augmentation charge: PSQ
     Using radial grid of  929 points,  2 beta functions with: 
                l(1) =   0
                l(2) =   0
     Q(r) pseudized with 0 coefficients 


     PseudoPot. # 3 for C  read from file:
     /users/bkreitz1/quantum-espresso/potentials/C.pbe-n-kjpaw_psl.1.0.0.UPF
     MD5 check sum: a169b0ebad56f5ec0d79c4633f80bf22
     Pseudo is Projector augmented-wave + core cor, Zval =  4.0
     Generated using 'atomic' code by A. Dal Corso  v.6.7MaX
     Shape of augmentation charge: PSQ
     Using radial grid of 1073 points,  4 beta functions with: 
                l(1) =   0
                l(2) =   0
                l(3) =   1
                l(4) =   1
     Q(r) pseudized with 0 coefficients 


     atomic species   valence    mass     pseudopotential
        Pt            10.00   195.08400     Pt( 1.00)
        H              1.00     1.00800     H ( 1.00)
        C              4.00    12.01100     C ( 1.00)

     No symmetry found



   Cartesian axes

     site n.     atom                  positions (alat units)
         1           Pt  tau(   1) = (   0.0000000   0.0000000   1.0017346  )
         2           Pt  tau(   2) = (   0.3333333   0.0000000   1.0017346  )
         3           Pt  tau(   3) = (   0.6666667   0.0000000   1.0017346  )
         4           Pt  tau(   4) = (   0.1666667   0.2886751   1.0017346  )
         5           Pt  tau(   5) = (   0.5000000   0.2886751   1.0017346  )
         6           Pt  tau(   6) = (   0.8333333   0.2886751   1.0017346  )
         7           Pt  tau(   7) = (   0.3333333   0.5773503   1.0017346  )
         8           Pt  tau(   8) = (   0.6666667   0.5773503   1.0017346  )
         9           Pt  tau(   9) = (   1.0000000   0.5773503   1.0017346  )
        10           Pt  tau(  10) = (   0.1666667   0.0962250   1.2739001  )
        11           Pt  tau(  11) = (   0.5000000   0.0962250   1.2739001  )
        12           Pt  tau(  12) = (   0.8333333   0.0962250   1.2739001  )
        13           Pt  tau(  13) = (   0.3333333   0.3849002   1.2739001  )
        14           Pt  tau(  14) = (   0.6666667   0.3849002   1.2739001  )
        15           Pt  tau(  15) = (   1.0000000   0.3849002   1.2739001  )
        16           Pt  tau(  16) = (   0.5000000   0.6735753   1.2739001  )
        17           Pt  tau(  17) = (   0.8333333   0.6735753   1.2739001  )
        18           Pt  tau(  18) = (   1.1666667   0.6735753   1.2739001  )
        19           Pt  tau(  19) = (   0.0000594   0.1924596   1.5425653  )
        20           Pt  tau(  20) = (   0.3333363   0.1924731   1.5425374  )
        21           Pt  tau(  21) = (   0.6665796   0.1924739   1.5425170  )
        22           Pt  tau(  22) = (   0.1666184   0.4811539   1.5426376  )
        23           Pt  tau(  23) = (   0.4999587   0.4810972   1.5425187  )
        24           Pt  tau(  24) = (   0.8333673   0.4811733   1.5422323  )
        25           Pt  tau(  25) = (   0.3333423   0.7697470   1.5425665  )
        26           Pt  tau(  26) = (   0.6667448   0.7697674   1.5423685  )
        27           Pt  tau(  27) = (   0.9999740   0.7697554   1.5422326  )
        28           Pt  tau(  28) = (  -0.0001822   0.0000984   1.8164588  )
        29           Pt  tau(  29) = (   0.3332962   0.0000793   1.8161748  )
        30           Pt  tau(  30) = (   0.6669989   0.0001893   1.8162274  )
        31           Pt  tau(  31) = (   0.1666108   0.2886130   1.8166082  )
        32           Pt  tau(  32) = (   0.5000467   0.2886490   1.8165586  )
        33           Pt  tau(  33) = (   0.8333301   0.2882950   1.8162314  )
        34           Pt  tau(  34) = (   0.3333668   0.5774183   1.8166025  )
        35           Pt  tau(  35) = (   0.6665683   0.5773350   1.8161498  )
        36           Pt  tau(  36) = (   0.9999198   0.5773804   1.8164541  )
        37           H   tau(  37) = (   0.8769009   0.4824208   2.2074114  )
        38           H   tau(  38) = (   0.6895598   0.5917190   2.1938807  )
        39           H   tau(  39) = (   0.8365917   0.8438955   2.1944113  )
        40           H   tau(  40) = (   1.0239519   0.7345909   2.2079375  )
        41           C   tau(  41) = (   0.8171424   0.5950469   2.2000240  )
        42           C   tau(  42) = (   0.8965293   0.7312018   2.2012651  )

     number of k points=    13  Marzari-Vanderbilt smearing, width (Ry)=  0.0200
                       cart. coord. in units 2pi/alat
        k(    1) = (   0.0000000   0.0000000   0.0000000), wk =   0.0800000
        k(    2) = (   0.0000000   0.2309401   0.0000000), wk =   0.1600000
        k(    3) = (   0.0000000   0.4618802   0.0000000), wk =   0.1600000
        k(    4) = (   0.2000000  -0.1154701   0.0000000), wk =   0.1600000
        k(    5) = (   0.2000000   0.1154701   0.0000000), wk =   0.1600000
        k(    6) = (   0.2000000   0.3464102   0.0000000), wk =   0.1600000
        k(    7) = (   0.2000000  -0.5773503   0.0000000), wk =   0.1600000
        k(    8) = (   0.2000000  -0.3464102   0.0000000), wk =   0.1600000
        k(    9) = (   0.4000000  -0.2309401   0.0000000), wk =   0.1600000
        k(   10) = (   0.4000000  -0.0000000   0.0000000), wk =   0.1600000
        k(   11) = (   0.4000000   0.2309401   0.0000000), wk =   0.1600000
        k(   12) = (   0.4000000  -0.6928203   0.0000000), wk =   0.1600000
        k(   13) = (   0.4000000  -0.4618802   0.0000000), wk =   0.1600000

     Dense  grid:   719887 G-vectors     FFT dimensions: (  80,  80, 256)

     Estimated max dynamical RAM per process >       8.67 GB

     Check: negative core charge=   -0.000002

     Initial potential from superposition of free atoms

     starting charge  371.99377, renormalised to  372.00000

     negative rho (up, down):  1.099E-02 0.000E+00


     %%%%%%%%%%%%%%%%%%%%%%%%%%%%%%%%%%%%%%%%%%%%%%%%%%%%%%%%%%%%%%%%%%%%%%%%
     %                                                                      %
     % You are using vdW-DF, which was implemented by the Thonhauser group. %
     % Please cite the following two papers that made this development      %
     % possible and the two reviews that describe the various versions:     %
     %                                                                      %
     %   T. Thonhauser et al., PRL 115, 136402 (2015).                      %
     %   T. Thonhauser et al., PRB 76, 125112 (2007).                       %
     %   K. Berland et al., Rep. Prog. Phys. 78, 066501 (2015).             %
     %   D.C. Langreth et al., J. Phys.: Condens. Matter 21, 084203 (2009). %
     %                                                                      %
     %                                                                      %
     % If you are calculating the stress with vdW-DF, please also cite:     %
     %                                                                      %
     %   R. Sabatini et al., J. Phys.: Condens. Matter 24, 424209 (2012).   %
     %                                                                      %
     %%%%%%%%%%%%%%%%%%%%%%%%%%%%%%%%%%%%%%%%%%%%%%%%%%%%%%%%%%%%%%%%%%%%%%%%


     Starting wfcs are  336 randomized atomic wfcs
     Checking if some PAW data can be deallocated... 

     total cpu time spent up to now is      336.7 secs

     Self-consistent Calculation

     iteration #  1     ecut=    60.00 Ry     beta= 0.70
     Davidson diagonalization with overlap
     ethr =  1.00E-02,  avg # of iterations =  2.0

     negative rho (up, down):  1.344E-02 0.000E+00

     total cpu time spent up to now is      942.3 secs

     total energy              =  -27796.24366169 Ry
     estimated scf accuracy    <       4.69096417 Ry

     iteration #  2     ecut=    60.00 Ry     beta= 0.70
     Davidson diagonalization with overlap
     ethr =  1.26E-03,  avg # of iterations =  2.2

     negative rho (up, down):  1.104E-02 0.000E+00

     total cpu time spent up to now is     1565.8 secs

     total energy              =  -27796.90948247 Ry
     estimated scf accuracy    <       0.99698771 Ry

     iteration #  3     ecut=    60.00 Ry     beta= 0.70
     Davidson diagonalization with overlap
     ethr =  2.68E-04,  avg # of iterations =  5.4

     negative rho (up, down):  7.794E-03 0.000E+00

     total cpu time spent up to now is     2304.9 secs

     total energy              =  -27797.05162704 Ry
     estimated scf accuracy    <       0.35041444 Ry

     iteration #  4     ecut=    60.00 Ry     beta= 0.70
     Davidson diagonalization with overlap
     ethr =  9.42E-05,  avg # of iterations =  7.4

     negative rho (up, down):  4.899E-03 0.000E+00

     total cpu time spent up to now is     3062.4 secs

     total energy              =  -27797.10269641 Ry
     estimated scf accuracy    <       0.11228392 Ry

     iteration #  5     ecut=    60.00 Ry     beta= 0.70
     Davidson diagonalization with overlap
     ethr =  3.02E-05,  avg # of iterations = 10.6

     negative rho (up, down):  3.636E-03 0.000E+00

     total cpu time spent up to now is     3886.6 secs

     total energy              =  -27797.11875673 Ry
     estimated scf accuracy    <       0.04857703 Ry

     iteration #  6     ecut=    60.00 Ry     beta= 0.70
     Davidson diagonalization with overlap
     ethr =  1.31E-05,  avg # of iterations =  5.4

     negative rho (up, down):  3.396E-03 0.000E+00

     total cpu time spent up to now is     4550.2 secs

     total energy              =  -27797.12323589 Ry
     estimated scf accuracy    <       0.02684976 Ry

     iteration #  7     ecut=    60.00 Ry     beta= 0.70
     Davidson diagonalization with overlap
     c_bands:  1 eigenvalues not converged
     c_bands:  1 eigenvalues not converged
     ethr =  7.22E-06,  avg # of iterations =  8.2

     negative rho (up, down):  3.667E-03 0.000E+00

     total cpu time spent up to now is     5212.0 secs

     total energy              =  -27797.12428398 Ry
     estimated scf accuracy    <       0.00714773 Ry

     iteration #  8     ecut=    60.00 Ry     beta= 0.70
     Davidson diagonalization with overlap
     c_bands:  2 eigenvalues not converged
     ethr =  1.92E-06,  avg # of iterations = 10.1

     negative rho (up, down):  4.944E-03 0.000E+00

     total cpu time spent up to now is     6072.4 secs

     total energy              =  -27797.12571072 Ry
     estimated scf accuracy    <       0.00374973 Ry

     iteration #  9     ecut=    60.00 Ry     beta= 0.70
     Davidson diagonalization with overlap
     ethr =  1.01E-06,  avg # of iterations =  9.8

     negative rho (up, down):  7.061E-03 0.000E+00

     total cpu time spent up to now is     6742.8 secs

     total energy              =  -27797.12581516 Ry
     estimated scf accuracy    <       0.00176503 Ry

     iteration # 10     ecut=    60.00 Ry     beta= 0.70
     Davidson diagonalization with overlap
     ethr =  4.74E-07,  avg # of iterations =  2.2

     negative rho (up, down):  1.042E-02 0.000E+00

     total cpu time spent up to now is     7343.5 secs

     total energy              =  -27797.12589581 Ry
     estimated scf accuracy    <       0.00080094 Ry

     iteration # 11     ecut=    60.00 Ry     beta= 0.70
     Davidson diagonalization with overlap
     ethr =  2.15E-07,  avg # of iterations =  3.5

     negative rho (up, down):  1.021E-02 0.000E+00

     total cpu time spent up to now is     7961.4 secs

     total energy              =  -27797.12597642 Ry
     estimated scf accuracy    <       0.00021274 Ry

     iteration # 12     ecut=    60.00 Ry     beta= 0.70
     Davidson diagonalization with overlap
     ethr =  5.72E-08,  avg # of iterations =  4.6

     negative rho (up, down):  1.053E-02 0.000E+00

     total cpu time spent up to now is     8719.8 secs

     total energy              =  -27797.12604289 Ry
     estimated scf accuracy    <       0.00013253 Ry

     iteration # 13     ecut=    60.00 Ry     beta= 0.70
     Davidson diagonalization with overlap
     ethr =  3.56E-08,  avg # of iterations =  2.0

     negative rho (up, down):  1.096E-02 0.000E+00

     total cpu time spent up to now is     9307.0 secs

     total energy              =  -27797.12604811 Ry
     estimated scf accuracy    <       0.00005096 Ry

     iteration # 14     ecut=    60.00 Ry     beta= 0.70
     Davidson diagonalization with overlap
     ethr =  1.37E-08,  avg # of iterations =  2.0

     negative rho (up, down):  1.092E-02 0.000E+00

     total cpu time spent up to now is     9901.6 secs

     total energy              =  -27797.12605095 Ry
     estimated scf accuracy    <       0.00001347 Ry

     iteration # 15     ecut=    60.00 Ry     beta= 0.70
     Davidson diagonalization with overlap
     ethr =  3.62E-09,  avg # of iterations =  3.8

     negative rho (up, down):  1.117E-02 0.000E+00

     total cpu time spent up to now is    10574.6 secs

     total energy              =  -27797.12605236 Ry
     estimated scf accuracy    <       0.00000618 Ry

     iteration # 16     ecut=    60.00 Ry     beta= 0.70
     Davidson diagonalization with overlap
     ethr =  1.66E-09,  avg # of iterations =  2.5

     negative rho (up, down):  1.141E-02 0.000E+00

     total cpu time spent up to now is    11173.5 secs

     total energy              =  -27797.12605163 Ry
     estimated scf accuracy    <       0.00000665 Ry

     iteration # 17     ecut=    60.00 Ry     beta= 0.70
     Davidson diagonalization with overlap
     ethr =  1.66E-09,  avg # of iterations =  1.3

     negative rho (up, down):  1.157E-02 0.000E+00

     total cpu time spent up to now is    11720.3 secs

     total energy              =  -27797.12605110 Ry
     estimated scf accuracy    <       0.00000342 Ry

     iteration # 18     ecut=    60.00 Ry     beta= 0.70
     Davidson diagonalization with overlap
     ethr =  9.20E-10,  avg # of iterations =  1.8

     negative rho (up, down):  1.178E-02 0.000E+00

     total cpu time spent up to now is    12288.9 secs

     total energy              =  -27797.12605052 Ry
     estimated scf accuracy    <       0.00000245 Ry

     iteration # 19     ecut=    60.00 Ry     beta= 0.70
     Davidson diagonalization with overlap
     ethr =  6.60E-10,  avg # of iterations =  2.0

     negative rho (up, down):  1.208E-02 0.000E+00

     total cpu time spent up to now is    12875.3 secs

     total energy              =  -27797.12604980 Ry
     estimated scf accuracy    <       0.00000106 Ry

     iteration # 20     ecut=    60.00 Ry     beta= 0.70
     Davidson diagonalization with overlap
     ethr =  2.85E-10,  avg # of iterations =  2.2

     negative rho (up, down):  1.226E-02 0.000E+00

     total cpu time spent up to now is    13463.1 secs

     End of self-consistent calculation

          k = 0.0000 0.0000 0.0000 ( 89947 PWs)   bands (ev):

   -12.2505  -7.6704  -7.0589  -5.7482  -4.8086  -4.6723  -4.6376  -4.6360
    -4.6359  -4.6354  -4.6353  -4.6340  -4.6246  -4.0782  -4.0777  -4.0777
    -4.0770  -4.0767  -4.0763  -3.6079  -3.6041  -3.6029  -3.6028  -3.6026
    -3.6021  -3.5618  -3.3884  -3.3879  -3.3873  -3.3861  -3.3858  -3.3853
    -3.1621  -3.1597  -3.1550  -3.1547  -3.1406  -3.1396  -3.1393  -3.1388
    -3.1376  -3.1375  -3.1244  -3.1242  -2.5422  -2.5419  -2.5113  -2.5095
    -2.4549  -2.4539  -2.4533  -2.4531  -2.4524  -2.4522  -2.3165  -2.3153
    -2.2179  -2.2130  -1.9535  -1.7118  -1.7065  -1.7048  -1.7034  -1.7030
    -1.7021  -1.6384  -1.5511  -1.5510  -1.5192  -1.5179  -1.5067  -1.5062
    -1.4993  -1.4883  -1.4868  -1.4862  -1.4859  -1.4846  -1.4841  -1.4494
    -1.4494  -1.2984  -1.2914  -1.2908  -1.2894  -1.2883  -1.2867  -1.1410
    -1.1402  -1.1373  -1.1366  -1.1363  -1.1358  -1.0380  -1.0380  -0.9398
    -0.9398  -0.8925  -0.8759  -0.8756  -0.8693  -0.8317  -0.8298  -0.8246
    -0.8232  -0.7592  -0.6681  -0.6660  -0.6657  -0.6646  -0.6629  -0.6621
    -0.2412  -0.1713  -0.1705  -0.1700  -0.1684  -0.1683  -0.1667  -0.0980
    -0.0972  -0.0958  -0.0956  -0.0954  -0.0211  -0.0204  -0.0053   0.1452
     0.1458   0.1471   0.1492   0.1499   0.2610   0.2921   0.2970   0.2971
     0.3056   0.3058   0.3186   0.5607   0.5611   0.5612   0.5619   0.5626
     0.5635   0.6418   0.6419   0.8205   0.8214   0.8221   0.8257   0.8263
     0.8409   0.9949   0.9958   0.9960   0.9962   0.9964   0.9991   1.0351
     1.0359   1.0390   1.0398   1.0404   1.0869   1.1687   1.1694   1.1910
     1.1913   1.1916   1.1925   1.1928   1.1949   1.2969   1.2980   1.2985
     1.2998   1.3010   1.3044   1.3050   1.3051   1.4011   1.4020   1.4024
     1.4038   1.4042   1.4061   1.5035   1.5038   1.5131   1.5138   1.5142
     1.5172   1.6808   1.7316   1.7317   1.8385   1.8391   1.8413   1.8413
     1.8418   1.8426   2.6778   2.7076   2.7213   2.7223   2.7254   2.7258
     2.8630   4.9533   5.0428   5.0457   5.0527   5.0595   5.1228   5.8982
     6.1093   6.5929   6.6001   6.6510   6.6514   6.6530   6.6628

          k = 0.0000 0.2309 0.0000 ( 89970 PWs)   bands (ev):

   -12.2505  -7.6707  -6.9118  -5.6032  -5.1521  -4.8103  -4.7526  -4.7485
    -4.5244  -4.4889  -4.4455  -4.4019  -4.4012  -4.1927  -4.1731  -4.0165
    -4.0162  -3.9965  -3.9952  -3.7196  -3.5862  -3.5843  -3.5689  -3.5526
    -3.5445  -3.4862  -3.4854  -3.4170  -3.4168  -3.4154  -3.4141  -3.3276
    -3.3097  -3.3085  -3.1878  -3.1867  -3.1851  -3.1248  -3.1240  -2.9689
    -2.9682  -2.9329  -2.9321  -2.9046  -2.6673  -2.6665  -2.6243  -2.5795
    -2.5790  -2.5354  -2.5342  -2.3585  -2.3575  -2.2901  -2.2889  -2.2453
    -2.2128  -2.2101  -2.0086  -1.9575  -1.9105  -1.9092  -1.8271  -1.8231
    -1.7834  -1.7466  -1.7093  -1.7068  -1.6886  -1.6659  -1.6643  -1.6196
    -1.5459  -1.5302  -1.5146  -1.5140  -1.4459  -1.4227  -1.4219  -1.3696
    -1.3588  -1.3545  -1.2874  -1.2552  -1.2339  -1.2325  -1.2307  -1.1436
    -1.1392  -1.1308  -1.1286  -1.1151  -1.0425  -1.0406  -1.0287  -1.0147
    -0.9534  -0.9461  -0.9432  -0.8948  -0.8941  -0.8544  -0.8531  -0.8391
    -0.8016  -0.7149  -0.6699  -0.6645  -0.6629  -0.6605  -0.6387  -0.6267
    -0.6257  -0.5838  -0.5713  -0.5456  -0.5422  -0.3495  -0.2576  -0.1988
    -0.1755  -0.1500  -0.1387  -0.1374  -0.1220  -0.1126  -0.0722   0.0484
     0.0596   0.0783   0.1757   0.2064   0.2152   0.2282   0.2341   0.3288
     0.3301   0.3393   0.3591   0.4261   0.4365   0.4383   0.4665   0.4677
     0.6567   0.6800   0.6908   0.6912   0.6945   0.7227   0.7313   0.8087
     0.8279   0.8413   0.8694   0.9170   0.9355   0.9359   0.9376   0.9504
     1.0492   1.0600   1.0797   1.0809   1.1733   1.2284   1.2313   1.2380
     1.2387   1.2603   1.3011   1.3434   1.3694   1.3703   1.4272   1.4322
     1.4354   1.4815   1.4826   1.4860   1.4909   1.4914   1.4945   1.5644
     1.5654   1.7263   1.7280   1.7386   1.7542   1.7639   1.7647   1.8028
     1.8423   1.8432   1.8601   1.9575   1.9584   1.9834   2.1409   2.1449
     2.1459   2.1831   2.2520   2.5925   2.6241   3.3068   3.3098   3.3941
     3.4707   4.3255   4.7676   4.8092   5.4450   5.4632   5.5132   5.6165
     5.7578   6.0337   6.2251   6.4390   6.4662   6.6469   6.8319

          k = 0.0000 0.4619 0.0000 ( 89902 PWs)   bands (ev):

   -12.2504  -7.6711  -6.4886  -5.8533  -5.1967  -4.8149  -4.7867  -4.7781
    -4.6395  -4.4194  -4.2646  -4.1347  -4.0976  -4.0608  -4.0601  -3.8773
    -3.8745  -3.8454  -3.8367  -3.8364  -3.7143  -3.6789  -3.6784  -3.6262
    -3.6260  -3.5702  -3.5600  -3.5285  -3.4884  -3.4878  -3.4512  -3.2148
    -3.2144  -3.1970  -3.1962  -3.1956  -3.1948  -2.9713  -2.9695  -2.9089
    -2.9085  -2.8982  -2.8971  -2.7169  -2.6130  -2.6126  -2.6030  -2.6025
    -2.5374  -2.5361  -2.4887  -2.4735  -2.4723  -2.3926  -2.3915  -2.2648
    -2.2641  -2.2113  -2.2105  -2.1174  -2.0795  -2.0369  -2.0356  -2.0319
    -1.9559  -1.8929  -1.8146  -1.8013  -1.7899  -1.7891  -1.7026  -1.7000
    -1.6771  -1.5674  -1.5650  -1.5474  -1.5432  -1.4268  -1.4214  -1.4209
    -1.4200  -1.4156  -1.3414  -1.3270  -1.3252  -1.3217  -1.2999  -1.2926
    -1.2910  -1.2744  -1.2338  -1.1694  -1.1516  -1.1485  -1.1407  -1.1000
    -1.0987  -1.0743  -0.9960  -0.9291  -0.8960  -0.8931  -0.8613  -0.8519
    -0.8225  -0.8144  -0.8110  -0.6815  -0.6783  -0.6645  -0.6128  -0.6006
    -0.5503  -0.4655  -0.4143  -0.4021  -0.3298  -0.3178  -0.2453  -0.2382
    -0.2289  -0.2113  -0.2068  -0.2052  -0.1738  -0.1135  -0.1047  -0.0785
    -0.0754  -0.0561  -0.0523  -0.0358  -0.0143   0.0127   0.0988   0.1286
     0.1628   0.1729   0.2340   0.3211   0.3256   0.3598   0.4640   0.4644
     0.5320   0.6207   0.6286   0.6551   0.6611   0.6820   0.7200   0.7203
     0.7742   0.8061   0.8279   0.8303   0.8906   0.9327   0.9363   0.9878
     0.9918   1.0032   1.0059   1.0798   1.1815   1.2067   1.2711   1.2844
     1.2856   1.2904   1.3901   1.3934   1.4018   1.4863   1.4894   1.4948
     1.5002   1.5684   1.5910   1.5931   1.6019   1.7229   1.7236   1.7477
     1.7488   1.7564   1.7585   1.7790   1.7907   1.9504   1.9923   1.9926
     1.9997   2.0005   2.1906   2.2261   2.6017   2.6262   2.6643   2.9332
     3.0390   3.0399   3.4395   3.4417   3.6398   3.7759   4.2510   4.2518
     4.2700   4.4231   4.5070   4.5275   4.6668   4.7212   4.9141   4.9226
     5.4918   5.5566   5.7342   6.0799   6.1526   6.5020   6.5968

          k = 0.2000-0.1155 0.0000 ( 89970 PWs)   bands (ev):

   -12.2505  -7.6705  -6.9119  -5.6034  -5.1526  -4.8075  -4.7526  -4.7517
    -4.5243  -4.4888  -4.4451  -4.4019  -4.4014  -4.1920  -4.1730  -4.0165
    -4.0163  -3.9964  -3.9956  -3.7196  -3.5866  -3.5843  -3.5720  -3.5484
    -3.5441  -3.4866  -3.4862  -3.4170  -3.4165  -3.4152  -3.4150  -3.3273
    -3.3093  -3.3087  -3.1872  -3.1862  -3.1861  -3.1249  -3.1242  -2.9693
    -2.9676  -2.9331  -2.9319  -2.9047  -2.6671  -2.6668  -2.6244  -2.5795
    -2.5793  -2.5353  -2.5343  -2.3585  -2.3574  -2.2895  -2.2892  -2.2452
    -2.2128  -2.2105  -2.0073  -1.9581  -1.9110  -1.9092  -1.8271  -1.8193
    -1.7866  -1.7466  -1.7098  -1.7059  -1.6886  -1.6665  -1.6642  -1.6196
    -1.5463  -1.5317  -1.5147  -1.5142  -1.4459  -1.4224  -1.4214  -1.3696
    -1.3580  -1.3542  -1.2874  -1.2552  -1.2335  -1.2327  -1.2309  -1.1433
    -1.1385  -1.1306  -1.1284  -1.1150  -1.0439  -1.0412  -1.0282  -1.0147
    -0.9547  -0.9459  -0.9432  -0.8946  -0.8940  -0.8540  -0.8529  -0.8390
    -0.8004  -0.7135  -0.6695  -0.6635  -0.6628  -0.6596  -0.6411  -0.6262
    -0.6257  -0.5810  -0.5714  -0.5449  -0.5420  -0.3539  -0.2577  -0.1988
    -0.1727  -0.1500  -0.1388  -0.1370  -0.1194  -0.1126  -0.0717   0.0483
     0.0600   0.0714   0.1776   0.2061   0.2151   0.2282   0.2323   0.3285
     0.3306   0.3392   0.3531   0.4261   0.4365   0.4377   0.4668   0.4676
     0.6566   0.6803   0.6912   0.6918   0.6946   0.7222   0.7367   0.8070
     0.8270   0.8411   0.8693   0.9164   0.9357   0.9360   0.9379   0.9488
     1.0498   1.0580   1.0804   1.0810   1.1771   1.2280   1.2305   1.2377
     1.2382   1.2601   1.3009   1.3448   1.3695   1.3699   1.4270   1.4330
     1.4354   1.4823   1.4825   1.4859   1.4913   1.4914   1.4952   1.5642
     1.5658   1.7267   1.7270   1.7385   1.7542   1.7637   1.7648   1.8027
     1.8421   1.8433   1.8601   1.9577   1.9580   1.9834   2.1404   2.1453
     2.1461   2.1849   2.2582   2.5861   2.6184   3.3053   3.3113   3.3892
     3.4854   4.3412   4.7344   4.8019   5.4527   5.4635   5.5073   5.6263
     5.8816   5.9517   6.2070   6.4399   6.4562   6.6473   6.8297

          k = 0.2000 0.1155 0.0000 ( 89970 PWs)   bands (ev):

   -12.2505  -7.6707  -6.9118  -5.6032  -5.1521  -4.8103  -4.7526  -4.7485
    -4.5244  -4.4889  -4.4455  -4.4019  -4.4012  -4.1927  -4.1731  -4.0164
    -4.0162  -3.9965  -3.9952  -3.7196  -3.5861  -3.5843  -3.5690  -3.5528
    -3.5443  -3.4862  -3.4855  -3.4170  -3.4168  -3.4155  -3.4141  -3.3276
    -3.3097  -3.3085  -3.1878  -3.1867  -3.1851  -3.1248  -3.1240  -2.9689
    -2.9682  -2.9329  -2.9321  -2.9046  -2.6674  -2.6665  -2.6243  -2.5795
    -2.5790  -2.5354  -2.5342  -2.3585  -2.3575  -2.2900  -2.2889  -2.2453
    -2.2127  -2.2101  -2.0087  -1.9573  -1.9105  -1.9094  -1.8272  -1.8228
    -1.7836  -1.7466  -1.7093  -1.7067  -1.6886  -1.6659  -1.6643  -1.6196
    -1.5459  -1.5303  -1.5146  -1.5140  -1.4459  -1.4226  -1.4219  -1.3696
    -1.3589  -1.3545  -1.2874  -1.2552  -1.2339  -1.2325  -1.2308  -1.1436
    -1.1392  -1.1309  -1.1286  -1.1151  -1.0425  -1.0405  -1.0288  -1.0147
    -0.9533  -0.9461  -0.9432  -0.8948  -0.8941  -0.8544  -0.8531  -0.8391
    -0.8016  -0.7149  -0.6700  -0.6644  -0.6628  -0.6605  -0.6387  -0.6267
    -0.6257  -0.5839  -0.5712  -0.5457  -0.5422  -0.3495  -0.2577  -0.1988
    -0.1756  -0.1499  -0.1387  -0.1374  -0.1220  -0.1126  -0.0723   0.0484
     0.0597   0.0786   0.1757   0.2064   0.2151   0.2283   0.2340   0.3288
     0.3301   0.3394   0.3594   0.4261   0.4365   0.4383   0.4665   0.4677
     0.6567   0.6800   0.6907   0.6912   0.6945   0.7229   0.7311   0.8087
     0.8279   0.8413   0.8694   0.9170   0.9355   0.9359   0.9376   0.9504
     1.0492   1.0601   1.0796   1.0810   1.1732   1.2284   1.2313   1.2379
     1.2388   1.2603   1.3011   1.3434   1.3694   1.3703   1.4271   1.4322
     1.4354   1.4815   1.4826   1.4859   1.4909   1.4914   1.4945   1.5644
     1.5654   1.7263   1.7280   1.7386   1.7542   1.7639   1.7646   1.8027
     1.8423   1.8432   1.8601   1.9576   1.9584   1.9834   2.1408   2.1449
     2.1460   2.1831   2.2521   2.5925   2.6240   3.3067   3.3099   3.3941
     3.4709   4.3258   4.7674   4.8088   5.4447   5.4632   5.5118   5.6165
     5.7632   6.0312   6.2252   6.4389   6.4659   6.6451   6.8294

          k = 0.2000 0.3464 0.0000 ( 89936 PWs)   bands (ev):

   -12.2504  -7.6711  -6.6260  -5.4006  -5.3991  -5.3257  -4.8070  -4.3230
    -4.3228  -4.2909  -4.2882  -4.2490  -4.2480  -4.2447  -4.2307  -4.1327
    -4.1321  -3.7430  -3.7428  -3.7404  -3.7402  -3.6759  -3.6540  -3.5661
    -3.5122  -3.4837  -3.4819  -3.4535  -3.4532  -3.3907  -3.3348  -3.3330
    -3.2909  -3.2907  -3.2524  -3.2051  -3.2029  -3.1605  -3.1595  -3.0854
    -2.8118  -2.7092  -2.7086  -2.6980  -2.6750  -2.6736  -2.6568  -2.6563
    -2.6022  -2.5843  -2.4240  -2.4237  -2.4135  -2.3379  -2.3106  -2.2615
    -2.2612  -2.2362  -2.1560  -2.1542  -1.9883  -1.9836  -1.9658  -1.9562
    -1.8813  -1.8700  -1.8501  -1.8459  -1.8418  -1.7698  -1.7676  -1.6155
    -1.5925  -1.5909  -1.5851  -1.5241  -1.5224  -1.4596  -1.4553  -1.4547
    -1.4524  -1.3257  -1.2889  -1.2866  -1.2782  -1.2754  -1.2689  -1.2536
    -1.2259  -1.2068  -1.1354  -1.1318  -1.1073  -1.1033  -1.0417  -1.0395
    -0.9750  -0.9555  -0.9198  -0.9108  -0.9080  -0.8662  -0.8594  -0.8575
    -0.8462  -0.8347  -0.8147  -0.8097  -0.7974  -0.7383  -0.7348  -0.6330
    -0.6199  -0.5902  -0.5429  -0.5162  -0.5121  -0.5092  -0.3379  -0.3282
    -0.2662  -0.1830  -0.1642  -0.1283  -0.1247  -0.0981  -0.0970  -0.0709
    -0.0480  -0.0409  -0.0163   0.0219   0.0598   0.0832   0.1872   0.2635
     0.2702   0.3139   0.3162   0.3648   0.3794   0.3906   0.5112   0.5164
     0.5332   0.5708   0.5755   0.6600   0.7046   0.7270   0.7324   0.7445
     0.8033   0.8112   0.8123   0.8265   0.8327   0.8552   0.8556   0.8675
     0.8947   1.0211   1.0652   1.0739   1.2069   1.2158   1.2277   1.3745
     1.3773   1.3783   1.3872   1.4816   1.5167   1.5262   1.5281   1.5317
     1.5675   1.5695   1.5928   1.5968   1.6003   1.6593   1.6649   1.6823
     1.7463   1.7742   1.7763   1.8108   1.8111   1.8547   1.9893   2.0415
     2.0420   2.1236   2.1260   2.1269   2.1547   2.2790   2.2813   2.7448
     2.8031   2.8051   3.3432   3.3448   3.3758   3.3897   4.0579   4.0619
     4.1826   4.2624   4.3057   4.3153   4.9609   5.4510   5.4909   5.5175
     5.6721   5.7145   6.1856   6.1972   6.2588   6.2892   6.3651

          k = 0.2000-0.5774 0.0000 ( 89982 PWs)   bands (ev):

   -12.2504  -7.6712  -6.0911  -6.0901  -5.4830  -4.8414  -4.8298  -4.7961
    -4.3191  -4.3137  -4.1839  -4.1504  -4.0408  -4.0401  -3.9331  -3.9321
    -3.8096  -3.8065  -3.8050  -3.7688  -3.7675  -3.7423  -3.7347  -3.6106
    -3.5993  -3.5984  -3.5603  -3.5554  -3.5525  -3.4526  -3.3602  -3.3427
    -3.2776  -3.1833  -3.1824  -3.1648  -3.1641  -3.1489  -3.0354  -3.0347
    -2.9409  -2.9403  -2.7667  -2.7585  -2.6990  -2.5984  -2.5979  -2.5466
    -2.5464  -2.4386  -2.3886  -2.3400  -2.3382  -2.3178  -2.2753  -2.2726
    -2.2435  -2.1388  -2.1375  -2.1091  -2.1079  -2.0999  -2.0978  -2.0969
    -2.0236  -2.0224  -1.9586  -1.8855  -1.8673  -1.8202  -1.8191  -1.7012
    -1.6642  -1.6614  -1.6599  -1.6159  -1.5719  -1.5715  -1.4878  -1.4591
    -1.4566  -1.4522  -1.4252  -1.3949  -1.3389  -1.3385  -1.2982  -1.2421
    -1.2407  -1.2205  -1.2187  -1.1101  -1.0616  -1.0604  -1.0158  -1.0139
    -0.9734  -0.9725  -0.9627  -0.9559  -0.9249  -0.9228  -0.8798  -0.8736
    -0.8400  -0.8306  -0.8242  -0.8224  -0.8207  -0.8040  -0.7747  -0.7136
    -0.7077  -0.7049  -0.5204  -0.4923  -0.3989  -0.3910  -0.3609  -0.2853
    -0.2709  -0.2671  -0.2404  -0.1808  -0.1799  -0.1741  -0.1595  -0.1185
    -0.0599  -0.0390  -0.0348   0.0308   0.0446   0.0855   0.1112   0.1557
     0.2332   0.3206   0.3713   0.3811   0.3938   0.3976   0.4884   0.4919
     0.4965   0.5157   0.5247   0.5626   0.5703   0.6065   0.6893   0.6948
     0.7134   0.7582   0.7591   0.7841   0.7899   0.8033   0.8477   0.9704
     1.0131   1.0536   1.1232   1.1486   1.2092   1.2103   1.2949   1.3404
     1.3421   1.3466   1.4455   1.4546   1.5233   1.5560   1.5636   1.5708
     1.5734   1.6172   1.6316   1.6538   1.7320   1.7323   1.7564   1.7828
     1.7841   1.7845   1.8210   1.8495   1.9905   1.9961   1.9969   1.9983
     1.9988   2.0732   2.1511   2.1875   2.3286   3.1468   3.1471   3.3619
     3.4006   3.4541   3.5455   3.5529   3.5562   4.0107   4.1562   4.1588
     4.6025   4.6240   4.6473   4.7578   4.7630   4.9786   5.0579   5.0966
     5.2174   5.4713   5.5516   5.5981   5.8173   6.1324   6.2459

          k = 0.2000-0.3464 0.0000 ( 89936 PWs)   bands (ev):

   -12.2505  -7.6708  -6.6261  -5.4004  -5.3994  -5.3263  -4.8073  -4.3231
    -4.3224  -4.2900  -4.2888  -4.2490  -4.2483  -4.2446  -4.2305  -4.1330
    -4.1319  -3.7436  -3.7427  -3.7405  -3.7400  -3.6760  -3.6542  -3.5663
    -3.5123  -3.4840  -3.4813  -3.4536  -3.4530  -3.3905  -3.3345  -3.3334
    -3.2911  -3.2904  -3.2524  -3.2049  -3.2028  -3.1612  -3.1594  -3.0853
    -2.8117  -2.7095  -2.7086  -2.6981  -2.6748  -2.6737  -2.6571  -2.6563
    -2.6022  -2.5844  -2.4243  -2.4234  -2.4134  -2.3379  -2.3107  -2.2614
    -2.2608  -2.2368  -2.1555  -2.1547  -1.9871  -1.9824  -1.9654  -1.9562
    -1.8813  -1.8749  -1.8481  -1.8458  -1.8414  -1.7691  -1.7678  -1.6164
    -1.5926  -1.5913  -1.5852  -1.5242  -1.5226  -1.4596  -1.4553  -1.4534
    -1.4530  -1.3253  -1.2893  -1.2865  -1.2785  -1.2757  -1.2689  -1.2536
    -1.2259  -1.2067  -1.1342  -1.1320  -1.1064  -1.1036  -1.0416  -1.0397
    -0.9743  -0.9532  -0.9176  -0.9115  -0.9081  -0.8709  -0.8588  -0.8573
    -0.8446  -0.8356  -0.8105  -0.8075  -0.7992  -0.7408  -0.7346  -0.6325
    -0.6095  -0.5910  -0.5473  -0.5172  -0.5120  -0.5101  -0.3378  -0.3280
    -0.2653  -0.1840  -0.1644  -0.1282  -0.1258  -0.0991  -0.0969  -0.0746
    -0.0481  -0.0395  -0.0171   0.0263   0.0539   0.0801   0.1873   0.2631
     0.2690   0.3140   0.3164   0.3656   0.3782   0.3903   0.5106   0.5159
     0.5320   0.5711   0.5756   0.6608   0.7031   0.7260   0.7323   0.7467
     0.8049   0.8115   0.8131   0.8259   0.8324   0.8549   0.8556   0.8676
     0.8950   1.0203   1.0654   1.0823   1.2064   1.2151   1.2279   1.3720
     1.3775   1.3784   1.3854   1.4835   1.5160   1.5264   1.5280   1.5321
     1.5672   1.5704   1.5929   1.5972   1.6005   1.6593   1.6647   1.6827
     1.7466   1.7737   1.7764   1.8109   1.8110   1.8548   1.9892   2.0415
     2.0422   2.1203   2.1259   2.1267   2.1574   2.2772   2.2813   2.7476
     2.8041   2.8075   3.3436   3.3451   3.3643   3.3892   4.0482   4.0722
     4.1835   4.2631   4.3103   4.3297   4.9701   5.3942   5.4528   5.5290
     5.6844   5.8308   6.1550   6.1965   6.2669   6.2860   6.2886

          k = 0.4000-0.2309 0.0000 ( 89902 PWs)   bands (ev):

   -12.2505  -7.6706  -6.4887  -5.8536  -5.1977  -4.8103  -4.7868  -4.7855
    -4.6367  -4.4189  -4.2646  -4.1347  -4.0977  -4.0607  -4.0602  -3.8764
    -3.8753  -3.8453  -3.8368  -3.8365  -3.7149  -3.6791  -3.6782  -3.6269
    -3.6261  -3.5737  -3.5605  -3.5230  -3.4882  -3.4880  -3.4513  -3.2149
    -3.2143  -3.1970  -3.1964  -3.1954  -3.1950  -2.9711  -2.9702  -2.9091
    -2.9086  -2.8978  -2.8972  -2.7172  -2.6131  -2.6129  -2.6032  -2.6023
    -2.5373  -2.5362  -2.4887  -2.4730  -2.4728  -2.3924  -2.3917  -2.2650
    -2.2645  -2.2110  -2.2106  -2.1170  -2.0795  -2.0419  -2.0357  -2.0318
    -1.9440  -1.8930  -1.8146  -1.8061  -1.7908  -1.7896  -1.7031  -1.6992
    -1.6784  -1.5673  -1.5646  -1.5481  -1.5424  -1.4266  -1.4214  -1.4210
    -1.4201  -1.4157  -1.3417  -1.3264  -1.3251  -1.3217  -1.2998  -1.2921
    -1.2912  -1.2744  -1.2337  -1.1694  -1.1515  -1.1479  -1.1407  -1.1001
    -1.0987  -1.0741  -0.9960  -0.9294  -0.8938  -0.8921  -0.8597  -0.8521
    -0.8240  -0.8136  -0.8096  -0.6814  -0.6783  -0.6655  -0.6081  -0.6015
    -0.5503  -0.4702  -0.4142  -0.4038  -0.3298  -0.3083  -0.2448  -0.2418
    -0.2291  -0.2111  -0.2071  -0.2053  -0.1747  -0.1135  -0.1040  -0.0778
    -0.0771  -0.0554  -0.0543  -0.0373  -0.0199   0.0130   0.0990   0.1285
     0.1632   0.1683   0.2340   0.3221   0.3256   0.3578   0.4637   0.4656
     0.5342   0.6184   0.6284   0.6609   0.6648   0.6819   0.7201   0.7204
     0.7734   0.8032   0.8283   0.8296   0.8904   0.9335   0.9366   0.9883
     0.9912   1.0034   1.0048   1.0835   1.1793   1.2008   1.2709   1.2840
     1.2856   1.2903   1.3896   1.3936   1.4014   1.4863   1.4909   1.4953
     1.5020   1.5687   1.5915   1.5921   1.6018   1.7230   1.7236   1.7480
     1.7486   1.7564   1.7585   1.7789   1.7952   1.9504   1.9923   1.9927
     1.9997   2.0007   2.1906   2.2261   2.5948   2.6188   2.6690   2.9378
     3.0389   3.0397   3.4396   3.4425   3.6494   3.7772   4.2509   4.2519
     4.2715   4.4357   4.5055   4.5352   4.6356   4.7046   4.9160   4.9251
     5.5483   5.5738   5.7528   6.0861   6.1406   6.4889   6.6048

          k = 0.4000-0.0000 0.0000 ( 89936 PWs)   bands (ev):

   -12.2505  -7.6708  -6.6261  -5.4003  -5.3994  -5.3263  -4.8073  -4.3230
    -4.3224  -4.2900  -4.2887  -4.2490  -4.2483  -4.2446  -4.2305  -4.1329
    -4.1319  -3.7435  -3.7427  -3.7404  -3.7400  -3.6760  -3.6541  -3.5663
    -3.5123  -3.4840  -3.4813  -3.4536  -3.4530  -3.3905  -3.3345  -3.3334
    -3.2911  -3.2904  -3.2524  -3.2048  -3.2028  -3.1611  -3.1595  -3.0853
    -2.8117  -2.7095  -2.7086  -2.6981  -2.6749  -2.6736  -2.6571  -2.6563
    -2.6022  -2.5844  -2.4242  -2.4234  -2.4134  -2.3379  -2.3107  -2.2614
    -2.2608  -2.2368  -2.1555  -2.1547  -1.9873  -1.9824  -1.9655  -1.9555
    -1.8813  -1.8753  -1.8481  -1.8459  -1.8415  -1.7692  -1.7678  -1.6165
    -1.5926  -1.5913  -1.5852  -1.5242  -1.5226  -1.4595  -1.4553  -1.4534
    -1.4529  -1.3253  -1.2893  -1.2865  -1.2785  -1.2757  -1.2690  -1.2536
    -1.2258  -1.2067  -1.1342  -1.1320  -1.1064  -1.1035  -1.0416  -1.0397
    -0.9743  -0.9532  -0.9177  -0.9114  -0.9081  -0.8708  -0.8588  -0.8573
    -0.8447  -0.8356  -0.8105  -0.8075  -0.7991  -0.7407  -0.7347  -0.6325
    -0.6098  -0.5910  -0.5471  -0.5172  -0.5120  -0.5101  -0.3377  -0.3282
    -0.2652  -0.1839  -0.1644  -0.1281  -0.1257  -0.0989  -0.0970  -0.0746
    -0.0481  -0.0395  -0.0171   0.0261   0.0542   0.0802   0.1874   0.2629
     0.2691   0.3140   0.3163   0.3656   0.3782   0.3903   0.5106   0.5159
     0.5320   0.5710   0.5756   0.6608   0.7031   0.7261   0.7322   0.7467
     0.8050   0.8114   0.8131   0.8258   0.8325   0.8549   0.8556   0.8676
     0.8950   1.0204   1.0654   1.0821   1.2064   1.2151   1.2277   1.3719
     1.3775   1.3785   1.3854   1.4836   1.5159   1.5263   1.5280   1.5321
     1.5672   1.5704   1.5929   1.5972   1.6005   1.6593   1.6647   1.6827
     1.7466   1.7737   1.7764   1.8109   1.8110   1.8548   1.9892   2.0415
     2.0423   2.1203   2.1259   2.1267   2.1574   2.2774   2.2812   2.7476
     2.8041   2.8074   3.3434   3.3451   3.3642   3.3892   4.0483   4.0721
     4.1837   4.2630   4.3102   4.3297   4.9699   5.3930   5.4526   5.5288
     5.6864   5.8346   6.1552   6.1971   6.2674   6.2859   6.2887

          k = 0.4000 0.2309 0.0000 ( 89902 PWs)   bands (ev):

   -12.2504  -7.6711  -6.4886  -5.8533  -5.1967  -4.8149  -4.7867  -4.7781
    -4.6396  -4.4194  -4.2646  -4.1347  -4.0976  -4.0608  -4.0601  -3.8773
    -3.8745  -3.8454  -3.8367  -3.8364  -3.7143  -3.6789  -3.6784  -3.6262
    -3.6260  -3.5705  -3.5597  -3.5286  -3.4884  -3.4878  -3.4511  -3.2148
    -3.2144  -3.1970  -3.1962  -3.1956  -3.1949  -2.9713  -2.9695  -2.9089
    -2.9085  -2.8982  -2.8971  -2.7169  -2.6131  -2.6126  -2.6029  -2.6025
    -2.5373  -2.5361  -2.4887  -2.4734  -2.4723  -2.3926  -2.3915  -2.2648
    -2.2641  -2.2112  -2.2106  -2.1174  -2.0795  -2.0372  -2.0358  -2.0320
    -1.9551  -1.8929  -1.8146  -1.8016  -1.7900  -1.7891  -1.7026  -1.7000
    -1.6772  -1.5674  -1.5650  -1.5473  -1.5432  -1.4268  -1.4214  -1.4209
    -1.4200  -1.4156  -1.3414  -1.3271  -1.3252  -1.3217  -1.2999  -1.2927
    -1.2910  -1.2744  -1.2338  -1.1694  -1.1516  -1.1485  -1.1407  -1.1001
    -1.0987  -1.0743  -0.9960  -0.9291  -0.8960  -0.8931  -0.8613  -0.8519
    -0.8225  -0.8144  -0.8110  -0.6815  -0.6783  -0.6645  -0.6128  -0.6006
    -0.5503  -0.4657  -0.4142  -0.4020  -0.3298  -0.3181  -0.2452  -0.2381
    -0.2289  -0.2113  -0.2069  -0.2051  -0.1738  -0.1135  -0.1047  -0.0785
    -0.0753  -0.0561  -0.0521  -0.0357  -0.0142   0.0127   0.0987   0.1286
     0.1629   0.1731   0.2340   0.3211   0.3256   0.3600   0.4639   0.4643
     0.5319   0.6208   0.6285   0.6549   0.6611   0.6820   0.7201   0.7203
     0.7742   0.8061   0.8279   0.8303   0.8906   0.9326   0.9363   0.9877
     0.9918   1.0032   1.0059   1.0797   1.1815   1.2067   1.2711   1.2845
     1.2856   1.2904   1.3902   1.3934   1.4018   1.4861   1.4894   1.4948
     1.5000   1.5685   1.5909   1.5931   1.6019   1.7229   1.7236   1.7476
     1.7488   1.7564   1.7585   1.7790   1.7907   1.9504   1.9923   1.9926
     1.9997   2.0005   2.1906   2.2261   2.6017   2.6262   2.6641   2.9331
     3.0391   3.0399   3.4396   3.4416   3.6398   3.7757   4.2511   4.2518
     4.2696   4.4230   4.5069   4.5276   4.6667   4.7210   4.9144   4.9225
     5.4924   5.5564   5.7352   6.0799   6.1523   6.5016   6.5962

          k = 0.4000-0.6928 0.0000 ( 89982 PWs)   bands (ev):

   -12.2504  -7.6712  -6.0911  -6.0900  -5.4830  -4.8412  -4.8299  -4.7963
    -4.3190  -4.3137  -4.1839  -4.1504  -4.0409  -4.0400  -3.9331  -3.9320
    -3.8096  -3.8065  -3.8049  -3.7689  -3.7674  -3.7422  -3.7348  -3.6106
    -3.5994  -3.5983  -3.5601  -3.5554  -3.5526  -3.4525  -3.3602  -3.3427
    -3.2776  -3.1833  -3.1824  -3.1648  -3.1641  -3.1489  -3.0354  -3.0347
    -2.9409  -2.9403  -2.7667  -2.7585  -2.6989  -2.5984  -2.5979  -2.5467
    -2.5463  -2.4385  -2.3886  -2.3400  -2.3382  -2.3178  -2.2754  -2.2726
    -2.2435  -2.1388  -2.1375  -2.1093  -2.1079  -2.1000  -2.0978  -2.0968
    -2.0236  -2.0224  -1.9578  -1.8861  -1.8674  -1.8204  -1.8190  -1.7012
    -1.6641  -1.6614  -1.6599  -1.6159  -1.5718  -1.5715  -1.4878  -1.4591
    -1.4566  -1.4522  -1.4252  -1.3949  -1.3390  -1.3385  -1.2982  -1.2422
    -1.2407  -1.2205  -1.2187  -1.1101  -1.0616  -1.0604  -1.0158  -1.0139
    -0.9735  -0.9724  -0.9627  -0.9558  -0.9249  -0.9228  -0.8799  -0.8736
    -0.8401  -0.8305  -0.8242  -0.8226  -0.8205  -0.8040  -0.7747  -0.7137
    -0.7076  -0.7048  -0.5205  -0.4922  -0.3987  -0.3911  -0.3607  -0.2852
    -0.2709  -0.2672  -0.2404  -0.1809  -0.1798  -0.1741  -0.1595  -0.1185
    -0.0599  -0.0390  -0.0348   0.0307   0.0445   0.0854   0.1113   0.1557
     0.2331   0.3206   0.3713   0.3811   0.3939   0.3977   0.4884   0.4919
     0.4965   0.5157   0.5246   0.5625   0.5703   0.6067   0.6894   0.6948
     0.7135   0.7581   0.7591   0.7840   0.7899   0.8032   0.8477   0.9704
     1.0131   1.0536   1.1232   1.1487   1.2093   1.2102   1.2948   1.3404
     1.3421   1.3464   1.4456   1.4545   1.5234   1.5560   1.5636   1.5707
     1.5733   1.6171   1.6316   1.6539   1.7320   1.7323   1.7564   1.7828
     1.7840   1.7845   1.8210   1.8496   1.9906   1.9961   1.9969   1.9983
     1.9987   2.0732   2.1511   2.1875   2.3286   3.1468   3.1471   3.3619
     3.4004   3.4542   3.5454   3.5530   3.5559   4.0107   4.1564   4.1588
     4.6014   4.6245   4.6472   4.7584   4.7631   4.9783   5.0570   5.0968
     5.2171   5.4715   5.5536   5.5982   5.8177   6.1323   6.2407

          k = 0.4000-0.4619 0.0000 ( 89982 PWs)   bands (ev):

   -12.2504  -7.6708  -6.0917  -6.0898  -5.4827  -4.8530  -4.8314  -4.7831
    -4.3187  -4.3143  -4.1839  -4.1504  -4.0407  -4.0404  -3.9329  -3.9323
    -3.8107  -3.8064  -3.8043  -3.7685  -3.7677  -3.7447  -3.7338  -3.6098
    -3.5991  -3.5984  -3.5627  -3.5554  -3.5485  -3.4524  -3.3601  -3.3428
    -3.2784  -3.1832  -3.1824  -3.1648  -3.1639  -3.1491  -3.0356  -3.0348
    -2.9412  -2.9401  -2.7668  -2.7585  -2.6992  -2.5985  -2.5976  -2.5467
    -2.5464  -2.4387  -2.3886  -2.3402  -2.3382  -2.3176  -2.2754  -2.2726
    -2.2434  -2.1395  -2.1378  -2.1116  -2.1076  -2.0992  -2.0974  -2.0971
    -2.0238  -2.0221  -1.9471  -1.8949  -1.8682  -1.8200  -1.8180  -1.7011
    -1.6652  -1.6613  -1.6590  -1.6161  -1.5722  -1.5715  -1.4878  -1.4591
    -1.4568  -1.4522  -1.4249  -1.3942  -1.3389  -1.3387  -1.2989  -1.2415
    -1.2400  -1.2206  -1.2185  -1.1098  -1.0620  -1.0601  -1.0176  -1.0138
    -0.9729  -0.9724  -0.9644  -0.9548  -0.9255  -0.9226  -0.8777  -0.8728
    -0.8401  -0.8302  -0.8230  -0.8224  -0.8206  -0.8032  -0.7737  -0.7123
    -0.7063  -0.7049  -0.5191  -0.4933  -0.4003  -0.3911  -0.3665  -0.2851
    -0.2713  -0.2665  -0.2404  -0.1819  -0.1802  -0.1765  -0.1594  -0.1177
    -0.0618  -0.0395  -0.0355   0.0302   0.0459   0.0867   0.1117   0.1575
     0.2380   0.3189   0.3722   0.3791   0.3935   0.3958   0.4869   0.4924
     0.4973   0.5157   0.5260   0.5650   0.5705   0.6035   0.6894   0.6950
     0.7116   0.7575   0.7593   0.7833   0.7892   0.8040   0.8486   0.9699
     1.0162   1.0517   1.1240   1.1476   1.2088   1.2106   1.2963   1.3370
     1.3423   1.3454   1.4476   1.4558   1.5233   1.5557   1.5634   1.5705
     1.5742   1.6180   1.6328   1.6535   1.7318   1.7326   1.7563   1.7836
     1.7842   1.7856   1.8229   1.8493   1.9905   1.9959   1.9971   1.9984
     1.9989   2.0734   2.1461   2.1874   2.3271   3.1467   3.1471   3.3705
     3.3998   3.4478   3.5499   3.5516   3.5611   3.9949   4.1552   4.1582
     4.6148   4.6351   4.6420   4.7580   4.7628   4.9770   5.0577   5.1174
     5.2436   5.4019   5.5668   5.5950   5.8719   6.1077   6.2409

     the Fermi energy is     1.7642 ev

!    total energy              =  -27797.12604903 Ry

     total all-electron energy =  -1326799.419647 Ry
     estimated scf accuracy    <       0.00000058 Ry
     smearing contrib. (-TS)   =       0.00274041 Ry
     internal energy E=F+TS    =  -27797.12878944 Ry

     The total energy is F=E-TS. E is the sum of the following terms:
     one-electron contribution =  -27235.07248367 Ry
     hartree contribution      =   13919.04819476 Ry
     xc contribution           =    -902.56423068 Ry
     ewald contribution        =   11908.51412135 Ry
     one-center paw contrib.   =  -25487.05439119 Ry

     convergence has been achieved in  20 iterations

     negative rho (up, down):  1.226E-02 0.000E+00

     Forces acting on atoms (cartesian axes, Ry/au):

     atom    1 type  1   force =    -0.00003239   -0.00002217   -0.00331554
     atom    2 type  1   force =     0.00001643   -0.00013874   -0.00337356
     atom    3 type  1   force =    -0.00007132   -0.00001621   -0.00330347
     atom    4 type  1   force =     0.00050670    0.00027511   -0.00360834
     atom    5 type  1   force =    -0.00053889    0.00027701   -0.00376451
     atom    6 type  1   force =    -0.00005730    0.00000596   -0.00330208
     atom    7 type  1   force =    -0.00001553   -0.00065101   -0.00362777
     atom    8 type  1   force =     0.00008870   -0.00002551   -0.00337755
     atom    9 type  1   force =    -0.00014907    0.00003822   -0.00347397
     atom   10 type  1   force =    -0.00031072    0.00007714    0.00295187
     atom   11 type  1   force =     0.00019251    0.00018650    0.00285731
     atom   12 type  1   force =    -0.00000783   -0.00002629    0.00294723
     atom   13 type  1   force =    -0.00005151   -0.00002109    0.00463278
     atom   14 type  1   force =    -0.00008773   -0.00033897    0.00288986
     atom   15 type  1   force =    -0.00001136   -0.00026086    0.00281863
     atom   16 type  1   force =    -0.00026011    0.00016526    0.00297948
     atom   17 type  1   force =    -0.00005959   -0.00001794    0.00243174
     atom   18 type  1   force =     0.00018603    0.00005616    0.00282125
     atom   19 type  1   force =     0.00004407   -0.00003963   -0.00014298
     atom   20 type  1   force =    -0.00009139    0.00016430    0.00007564
     atom   21 type  1   force =    -0.00004615    0.00009483   -0.00029776
     atom   22 type  1   force =    -0.00004001   -0.00003803    0.00039974
     atom   23 type  1   force =    -0.00015192   -0.00005003    0.00010235
     atom   24 type  1   force =     0.00003213   -0.00018385    0.00020520
     atom   25 type  1   force =     0.00008801   -0.00012181   -0.00015490
     atom   26 type  1   force =    -0.00018196   -0.00000042    0.00002349
     atom   27 type  1   force =     0.00012293   -0.00007964    0.00019714
     atom   28 type  1   force =     0.00003504   -0.00006296    0.00061935
     atom   29 type  1   force =     0.00001974   -0.00003001   -0.00020335
     atom   30 type  1   force =    -0.00004547   -0.00007158    0.00025369
     atom   31 type  1   force =    -0.00001517    0.00004211    0.00084755
     atom   32 type  1   force =    -0.00008520    0.00001648    0.00078844
     atom   33 type  1   force =    -0.00001720    0.00001053    0.00025661
     atom   34 type  1   force =    -0.00009022   -0.00006846    0.00084509
     atom   35 type  1   force =    -0.00002342   -0.00007010   -0.00022247
     atom   36 type  1   force =    -0.00018571    0.00006477   -0.00018870
     atom   37 type  2   force =     0.00019005   -0.00043430   -0.00015027
     atom   38 type  2   force =    -0.00020342    0.00017014    0.00001412
     atom   39 type  2   force =    -0.00002438   -0.00024567    0.00124723
     atom   40 type  2   force =     0.00109247    0.00001177    0.00104976
     atom   41 type  3   force =     0.00113146    0.00057073    0.00114063
     atom   42 type  3   force =    -0.00089131    0.00078822   -0.00288893

     Total force =     0.004501     Total SCF correction =     0.002414
     SCF correction compared to forces is large: reduce conv_thr to get better values

     negative rho (up, down):  1.226E-02 0.000E+00

     negative rho (up, down):  1.226E-02 0.000E+00

     negative rho (up, down):  1.226E-02 0.000E+00

     negative rho (up, down):  1.226E-02 0.000E+00

     negative rho (up, down):  1.226E-02 0.000E+00

     negative rho (up, down):  1.226E-02 0.000E+00

     negative rho (up, down):  1.226E-02 0.000E+00

     negative rho (up, down):  1.226E-02 0.000E+00

     negative rho (up, down):  1.226E-02 0.000E+00

     negative rho (up, down):  1.226E-02 0.000E+00

     negative rho (up, down):  1.226E-02 0.000E+00

     negative rho (up, down):  1.226E-02 0.000E+00

     negative rho (up, down):  1.226E-02 0.000E+00

     negative rho (up, down):  1.226E-02 0.000E+00

     negative rho (up, down):  1.226E-02 0.000E+00

     negative rho (up, down):  1.226E-02 0.000E+00

     negative rho (up, down):  1.226E-02 0.000E+00

     negative rho (up, down):  1.226E-02 0.000E+00

     negative rho (up, down):  1.226E-02 0.000E+00

     negative rho (up, down):  1.226E-02 0.000E+00

     negative rho (up, down):  1.226E-02 0.000E+00

     negative rho (up, down):  1.226E-02 0.000E+00

     negative rho (up, down):  1.226E-02 0.000E+00

     negative rho (up, down):  1.226E-02 0.000E+00

     negative rho (up, down):  1.226E-02 0.000E+00

     negative rho (up, down):  1.226E-02 0.000E+00

     negative rho (up, down):  1.226E-02 0.000E+00

     negative rho (up, down):  1.226E-02 0.000E+00

     negative rho (up, down):  1.226E-02 0.000E+00

     negative rho (up, down):  1.226E-02 0.000E+00

     negative rho (up, down):  1.226E-02 0.000E+00

     negative rho (up, down):  1.226E-02 0.000E+00

     negative rho (up, down):  1.226E-02 0.000E+00

     negative rho (up, down):  1.226E-02 0.000E+00
 BEEFens 2000 ensemble energies
             -0.603944234432188E+02
             -0.358879317249290E+01
             -0.157537867703115E+02
              0.427501376013535E+02
             -0.220398683564347E+02
             -0.204514448569702E+02
             -0.350469074270522E+02
             -0.860671102173083E+02
             -0.463334652445523E+02
             -0.470957986935433E+02
             -0.367674922060274E+02
              0.227845865808379E+01
              0.403557595921353E+01
              0.763272597911075E+01
              0.262837107874697E+01
              0.472884609863193E+02
             -0.207848309652177E+02
             -0.229366337330814E+02
              0.191858071789910E+02
             -0.111911849271047E+03
              0.533890761203827E+02
             -0.288926777774121E+02
             -0.331136710144104E+01
             -0.113789415786221E+02
             -0.882008904047609E+01
             -0.458379022079964E+01
              0.878954329634933E+02
             -0.186419625659310E+02
             -0.894358030763090E+01
             -0.515874265581281E+02
              0.812154349997422E+02
             -0.186691373037106E+02
             -0.372977256802756E+02
              0.248196924684753E+02
             -0.283678083573074E+01
              0.162938235917994E+02
             -0.486674672057330E+01
              0.108043624496210E+02
              0.286978452805406E+02
             -0.102805635516670E+03
              0.556157479840338E+02
              0.141893795024000E+02
             -0.169797521777724E+01
             -0.359858682131851E+02
              0.122707285194074E+02
             -0.146306966886967E+02
              0.396161470996267E+02
              0.363291232155416E+02
             -0.307127983494752E+02
             -0.273499969077714E+02
             -0.326986362316645E+02
             -0.350682801517011E+02
              0.135767008066288E+02
             -0.488374048286684E+02
              0.114977120482962E+02
              0.620493207625087E+02
              0.632235754170095E+02
              0.354651922604726E+02
              0.153259703669675E+02
              0.269325803264119E+02
              0.887834287296337E+02
              0.211590711544007E+02
             -0.546142783139189E+02
             -0.156654423816052E+02
             -0.234724447961786E+02
              0.626803335185818E+02
             -0.770071732873451E+02
             -0.669312000831939E+02
             -0.258404969200156E+02
             -0.645137256404814E+01
             -0.468599135773151E+02
              0.269593573162571E+02
              0.796266759910338E+01
              0.860639667926978E+01
             -0.395886259188326E+02
             -0.345175253613851E+02
             -0.539429582234499E+02
              0.388669396389485E+02
             -0.294617231360895E+02
              0.264325787455647E+02
             -0.715279149821264E+01
             -0.316659093307665E+02
             -0.573653046002218E+02
             -0.175772919007101E+02
             -0.896164101937825E+01
             -0.123784149939861E+02
              0.410781807653380E+02
              0.679833271921979E+02
             -0.383638364271040E+02
             -0.790915998737558E+02
             -0.218845649892564E+02
              0.111014867351781E+03
             -0.590338034118936E+02
              0.354718116960205E+02
             -0.950902208282753E+01
             -0.660409730464252E+02
              0.253147821457159E+02
              0.396552260223227E+02
             -0.198163376099448E+02
              0.398993445177653E+02
             -0.294777712956961E+02
             -0.475646094042045E+02
              0.861561548680855E+02
              0.451647417861255E+02
              0.335474504605909E+02
              0.145638287988076E+02
              0.204757743412543E+02
              0.852798156550480E+02
             -0.255770875331706E+02
              0.787785897613789E+01
             -0.141773812506453E+03
              0.180219327442149E+02
             -0.713176629215963E+02
              0.150535369248348E+02
              0.203691691294970E+02
             -0.331345250284111E+02
             -0.554928754933754E+02
              0.650397700339522E+01
             -0.302969468792625E+02
              0.305936872380491E+02
             -0.527895298898702E+02
              0.173409468112777E+01
             -0.355215222039503E+02
             -0.419818227871610E+01
             -0.105258993791330E+01
              0.180422363460680E+02
              0.142744490417863E+01
             -0.648340944098231E+01
              0.587742094195953E+02
              0.904317533875257E+02
              0.482021526537403E+02
              0.827177790112779E+02
             -0.114613315046985E+02
              0.142290583669537E+02
              0.538834796219612E+02
             -0.110861968330857E+02
             -0.732760096258741E+02
             -0.382474773331445E+02
             -0.519799781621424E+02
             -0.275526954645367E+02
              0.326204300687965E+02
             -0.116235815574804E+03
             -0.186785498048350E+02
              0.411876496486980E+02
             -0.384434988918595E+02
             -0.364119871985239E+02
              0.541874967230167E+02
              0.398580120528071E+02
             -0.352958134992379E+02
              0.136724046452552E+02
             -0.272358713614117E+02
              0.341483169389969E+02
              0.439692874638763E+01
              0.210423547411966E+02
             -0.881282976616118E+02
             -0.478068465643776E+02
             -0.994027710576995E+01
              0.318183880996250E+01
             -0.364934328994136E+02
              0.105552500592184E+03
             -0.230399207322396E+02
             -0.397667431628367E+02
              0.386827900309586E+02
             -0.492036872153681E+02
             -0.361654846338380E+02
              0.323411137202214E+02
              0.123979120155976E+02
              0.164340043974152E+02
              0.116000809766922E+02
             -0.132336603996222E+02
              0.224739169921507E+02
              0.587500568650704E+02
             -0.310277728232019E+02
              0.161379324559664E+02
              0.930748107958133E+02
              0.339441146156759E+02
             -0.726825424232879E+01
             -0.187696990936790E+02
              0.152659887495249E+03
             -0.163062093007148E+02
              0.361711392224940E+02
              0.193204830314100E+02
              0.360145313046535E+02
              0.887721439819416E+02
              0.540673805157669E+02
             -0.234551288127766E+01
              0.226647725757010E+02
              0.482527977302393E+02
              0.361565168781286E+02
             -0.522990285851342E+02
              0.932006108481922E+02
             -0.822208881048593E+02
             -0.197362733114588E+02
              0.580183399399934E+02
              0.671177194318832E+01
              0.784658373543868E+01
              0.339412153380983E+02
              0.298508054376108E+02
              0.352173723815615E+02
             -0.634670287098585E+02
              0.284934061320894E+01
             -0.296595636585063E+02
             -0.864405855104287E+01
             -0.144461367269923E+01
             -0.718752212433053E+01
             -0.412666418638759E+01
              0.855814062228109E+02
             -0.100821135100157E+02
             -0.274995710645909E+02
             -0.495734243223667E+01
              0.139243450593202E+02
             -0.561002207644971E+02
             -0.405204135120046E+02
             -0.380460202300301E+02
             -0.627406068122067E+02
             -0.168608486295883E+02
             -0.445611367429271E+02
              0.162408744854339E+02
             -0.239412797708276E+01
             -0.103916421676298E+02
             -0.929903138235525E+01
              0.805565486007066E+01
             -0.241923945826977E+02
              0.686701916605804E+02
             -0.803586312129613E+02
             -0.140492683569711E+02
             -0.173345337013080E+02
              0.181369816882034E+02
              0.213684231810077E+02
             -0.461344479567545E+02
             -0.201049389372997E+02
              0.439014931731524E+02
             -0.275310054897166E+02
              0.186481720555738E+02
              0.381384022250654E+02
             -0.321574001015972E+01
              0.113593986420826E+03
             -0.229104423587515E+02
             -0.339319224683650E+02
              0.576768430187303E+01
             -0.227156945642472E+02
              0.524914877335135E+02
             -0.335477979543227E+02
              0.106008232485156E+02
              0.637896228752515E+02
             -0.125809905752326E+02
              0.119720923916137E+03
              0.125307816868104E+03
             -0.646876341666466E+02
              0.588119454960049E+02
              0.165576920618131E+02
             -0.515395591385183E+02
              0.215153219053689E+02
              0.352386819730046E+02
              0.360760046928546E+02
              0.131282017172504E+01
              0.159285076712965E+02
              0.692913113102230E+02
             -0.245951048017992E+02
              0.181131601050689E+02
              0.735893264364915E+02
             -0.370848359400523E+02
             -0.128903598755941E+02
              0.506218447090413E+02
              0.296035706926049E+02
              0.776468975281605E+02
              0.221607354338394E+02
              0.621585384970956E+01
              0.279172154401928E+02
              0.381608874929479E+02
             -0.470023708392599E+02
              0.329825915566636E+01
              0.129141443794658E+02
              0.113135254861361E+02
              0.219643495402774E+02
             -0.572483251039168E+02
              0.364407051450618E+02
             -0.441835318832271E+02
             -0.346186913939608E+02
              0.177530594544396E+02
             -0.181006200169149E+02
              0.552462603219707E+02
             -0.255072527325671E+02
              0.265525053151304E+02
              0.366679555645353E+02
              0.825695136688844E+02
              0.572470103376802E+02
              0.459801447841657E+02
             -0.105036913101820E+02
             -0.386786513909061E+01
             -0.331060701687327E+02
              0.747289126543957E+02
              0.793393214514023E+02
              0.360139752220879E+02
             -0.190888596101166E+02
              0.509515646951342E+02
             -0.162551992555885E+02
              0.213904202247625E+02
              0.611580199614374E+02
              0.212948248048238E+01
             -0.103981620828293E+02
             -0.281847851939521E+02
             -0.509463793751269E+02
              0.941224396844156E+02
              0.437925912197745E+02
             -0.556308571804184E+02
             -0.953950450157950E+01
              0.248675731497669E+02
             -0.992568181136431E+01
              0.589221726303379E+02
              0.151211678500272E+02
              0.795436752225515E+02
              0.278561867055022E+02
             -0.262435624397961E+02
              0.247712405896598E+02
             -0.497869199941556E+01
             -0.322113170365143E+02
              0.132388338984687E+02
              0.204695327133965E+02
              0.929260974565805E+02
              0.794017170390144E+02
              0.548688454166332E+02
              0.727509421598897E+02
              0.801144153193965E+01
             -0.272676578662069E+02
              0.162503084041439E+02
             -0.366361063490052E+02
             -0.474103938920542E+02
             -0.560925472945569E+02
             -0.265200848093552E+02
             -0.109236120695452E+03
             -0.289989089631157E+02
             -0.833644510114944E+02
              0.209289809948310E+02
             -0.475135334769309E+02
              0.394795625244581E+02
             -0.937386306010226E+02
             -0.328803582536845E+02
              0.546340285607978E+02
              0.206557216123322E+02
             -0.826812500073799E+02
              0.628318593262662E+02
             -0.255620348360528E+02
              0.510037323256433E+02
             -0.241011090677691E+02
             -0.747854535846607E+02
              0.111046992808478E+02
             -0.608363862438521E+02
             -0.167812434270057E+02
             -0.150546450752420E+01
              0.416226014055349E+02
              0.126460370891846E+03
             -0.459718067557912E+02
             -0.360635094648918E+02
             -0.969893509358428E+00
             -0.130055401472298E+02
             -0.818890975318926E+02
             -0.594271345776695E+02
              0.514843898904059E+02
             -0.288004879646745E+02
              0.168341599569494E+02
             -0.487109491049660E+02
             -0.131316161199710E+02
             -0.435292857640022E+02
              0.563359131283079E+02
              0.150001793648418E+02
             -0.230615353366309E+02
             -0.126345475963179E+02
              0.663418538174831E+01
             -0.616315927011112E+01
              0.439583531491709E+02
             -0.250839612628885E+02
              0.277999228915007E+01
              0.338141108939146E+02
              0.170474702575302E+02
             -0.159148818904992E+02
              0.155576229073395E+03
              0.535847745126779E+02
              0.111532495755932E+01
              0.160980804073350E+02
             -0.612440279884255E+02
              0.313558210233239E+02
             -0.718296690839290E+02
             -0.250545161129455E+02
             -0.520222766295894E+02
             -0.219323916307669E+02
              0.566759665942672E+02
             -0.534645465887665E+02
              0.159906632554414E+02
             -0.408762675484388E+01
              0.385171028769696E+01
             -0.432325219823048E+02
             -0.476398640509656E+02
             -0.402271108597824E+01
             -0.423154129919230E+02
             -0.215833035529545E+02
             -0.436695251267913E+02
             -0.118928267570227E+02
             -0.357626955989738E+02
             -0.514312698661854E+02
              0.211794905173833E+02
             -0.208434372375085E+02
              0.186989565780206E+02
              0.971854174010580E+01
             -0.734804707177749E+02
             -0.545787312875483E+02
             -0.396348577071309E+02
              0.352680976554116E+02
              0.272430181290838E+01
             -0.623835280305556E+02
              0.583513828365404E+02
             -0.399330012142318E+02
              0.542359778500979E+02
             -0.288510198151063E+02
             -0.443871771032011E+02
              0.296898943669224E+02
             -0.654352877280561E+02
             -0.378646124968144E+02
              0.670294643731594E+02
              0.203317564150390E+02
             -0.358797943526214E+02
              0.487545422754159E+02
             -0.173434488915071E+02
             -0.321558691025928E+02
             -0.300505545203404E+02
             -0.498431520648223E+02
              0.248594821409050E+02
             -0.929491573501866E+02
             -0.836920023483228E+02
             -0.731859108789172E+01
             -0.305524657784131E+02
             -0.573231518872487E+02
              0.718402155708593E+02
              0.130940998146999E+03
             -0.359845224700171E+02
             -0.254044892759106E+01
             -0.634618626690325E+02
              0.647610369940072E+02
              0.169903753233723E+02
             -0.181219958582651E+02
             -0.408418211841015E+02
              0.147896186410456E+02
             -0.583423725801735E+02
             -0.197492216431506E+02
             -0.900737796496467E+02
              0.335583649576701E+02
              0.168383478545852E+02
              0.187547870729702E+01
             -0.703577401901782E+01
             -0.328235284845041E+02
             -0.755705084411176E+01
              0.124976850940386E+03
             -0.198145509831020E+02
             -0.435806344248761E+02
             -0.680991245186547E+02
              0.108874349933497E+02
             -0.340724823341639E+02
              0.588668372722357E+01
              0.260115582580217E+02
              0.102060702749437E+02
              0.276524869817620E+02
              0.119284614725716E+02
              0.627001875620135E+02
              0.315469945792937E+02
             -0.325152865028360E+02
              0.353592259283487E+02
              0.377989335609007E+02
              0.120249991431299E+02
              0.485704625082981E+02
             -0.223633156593619E+02
              0.762568298307336E+02
              0.171357397306250E+02
             -0.270691480577114E+02
             -0.723538507941580E+01
             -0.185831649000850E+02
              0.261047128222049E+02
             -0.232972415778491E+02
             -0.101569676576219E+00
             -0.845107533715054E+01
              0.805983978308866E+02
              0.497713219734219E+02
             -0.683936664693476E+02
             -0.475227850363007E+01
             -0.553160589243271E+02
             -0.158676354326726E+02
             -0.267586782765868E+02
              0.372178223342974E+01
              0.627099027176213E+00
             -0.256631018939702E+02
              0.808674219945618E+01
             -0.598663874787407E+01
             -0.128189544175673E+02
              0.855047706826114E+02
              0.181013752467497E+02
             -0.803634854375873E+02
             -0.456851557838739E+02
              0.941016263593145E+02
              0.276868692461322E+02
             -0.106424055673322E+02
              0.104099305989706E+03
             -0.193644852955919E+02
             -0.122661590594703E+02
             -0.536706921500297E+01
              0.106956975025373E+02
              0.271239964072197E+02
              0.779572165916446E+01
              0.304068076242656E+02
             -0.187209929249103E+02
             -0.302415185740676E+02
             -0.416392441844291E+02
             -0.474835729598716E+02
              0.462343726126413E+02
              0.126144830689199E+02
              0.386122147034008E+02
              0.132960009193966E+02
              0.851914029622029E+02
              0.155525059261821E+02
             -0.842757394295147E+02
             -0.333215695651405E+02
              0.133363822061272E+02
             -0.301582961746867E+02
              0.623927737180162E+02
             -0.878949953226925E+01
              0.147806129909041E+02
              0.494887659570026E+02
             -0.703809386669886E+02
              0.149101089434492E+03
              0.208021123234159E+02
              0.270216327351991E+02
              0.346140320530354E+02
              0.103627123321299E+02
             -0.153054212070913E+01
              0.356926528478940E+02
             -0.356027065311067E+02
              0.769797770556024E+02
              0.681923547707718E+02
             -0.404567613096966E+02
              0.149060071931026E+02
              0.667061040975858E+02
             -0.222836086907509E+02
              0.153610772431501E+02
              0.433528887751858E+02
              0.420282731925976E+02
             -0.781755154635522E+02
             -0.152441835058805E+02
             -0.354763840212898E+02
             -0.146924464945550E+01
             -0.766295359807665E+01
             -0.543157481949424E+01
             -0.179872960909388E+02
             -0.292897320870927E+02
              0.630619584825416E+01
              0.111363652837841E+02
              0.533498675662697E+02
             -0.388526579459887E+02
              0.372841090961143E+02
              0.436636901210981E+02
             -0.185778546302757E+02
              0.868825094588915E+02
             -0.694932660059112E+02
             -0.102745042897090E+03
             -0.656244156713783E+01
             -0.267548317611352E+01
              0.384996655987175E+01
              0.786396356818864E+02
             -0.106840932837411E+02
              0.414952474917848E+02
              0.441421675030211E+02
              0.383510955687163E+02
             -0.993732196788153E+01
              0.624749956261767E+02
             -0.132970491454446E+02
             -0.305853533016154E+02
             -0.477937726122182E+02
              0.583979221511730E+01
              0.367910922207237E+02
             -0.600217134137182E+01
              0.391299333106242E+02
             -0.173323797279721E+01
              0.652607182951160E+02
              0.186281814176035E+02
              0.994824258789664E+01
             -0.121832571313312E+02
              0.330856975735680E+02
              0.360665015686579E+02
              0.231788914221124E+02
             -0.488302747710947E+00
             -0.548323831166528E+02
              0.259446927211595E+02
              0.174280604228520E+02
              0.400996918520689E+02
              0.270891175506630E+02
              0.370817711087481E+02
             -0.597922908621740E+01
              0.250009488995995E+02
             -0.297401593612146E+02
             -0.197918752888825E+01
             -0.566919290646608E+02
             -0.306117159020094E+02
              0.376913840888281E+02
             -0.931904854768081E+02
              0.293274972773034E+02
              0.183550227393316E+02
              0.836766048937023E+02
             -0.299526784291514E+02
              0.328288672633281E+02
             -0.137155659168340E+02
             -0.461891214135506E+02
             -0.758345635362468E+02
             -0.522643426987429E+01
             -0.856423649997820E+02
              0.199150772019581E+02
             -0.246556028576405E+02
              0.304453087305511E+02
              0.236196181492796E+02
             -0.240202232489412E+02
             -0.264543090382709E+02
              0.389028514800193E+02
             -0.586237943140998E+02
             -0.116351902126924E+02
             -0.195411608462445E+02
              0.211861985428169E+02
             -0.889538086342952E+01
              0.359482194536056E+01
             -0.199972611140647E+02
              0.556435131485975E+02
             -0.437716669328665E+02
              0.785892578007531E+01
              0.583109268674875E+02
             -0.321929938717122E+02
              0.359650830516961E+01
             -0.880323208223024E+01
             -0.666564278790616E+02
             -0.480548039741225E+02
             -0.858456791370509E+01
              0.239615654355829E+02
              0.300988405271747E+02
              0.859774561879112E+01
             -0.408942540307305E+01
              0.151121935233536E+02
             -0.438044742620239E+02
              0.331848021662103E+01
             -0.529043942080874E+02
             -0.323659019608136E+02
              0.472591006091668E+02
             -0.293818308934650E+02
              0.619767259918241E+02
             -0.214143820117563E+02
              0.352018843116337E+02
              0.240817312363422E+02
             -0.641577491615483E+02
             -0.279155151717102E+02
              0.928351173255049E+01
             -0.370271778069358E+02
             -0.337884216106732E+02
             -0.826324631855446E+02
             -0.536985207415216E+02
             -0.508334421639892E+02
             -0.413545417443311E+02
             -0.991097006636892E+00
              0.986259628296469E+01
              0.103281094922681E+01
              0.152320769526123E+02
             -0.546937641170138E+02
              0.141533955303194E+02
              0.256088690716368E+02
             -0.663871372817549E+02
             -0.699440751401061E+02
             -0.429863217623781E+02
             -0.170963393325223E+02
              0.177787899037586E+02
              0.455938814751835E+01
             -0.423718869226793E+02
              0.364765506491938E+02
             -0.215274446228943E+02
              0.515253697491148E+02
             -0.883444150602874E+02
              0.595255803816423E+02
             -0.210617263115063E+01
             -0.366954332009660E+02
             -0.214886861748230E+02
              0.470059801371949E+01
              0.372476720688315E+02
             -0.753443228621177E+02
             -0.120046949421315E+02
             -0.216098757152546E+02
              0.509273420492267E+02
              0.861520148398192E+02
             -0.961336190586818E+02
              0.940021083264835E+02
              0.465645007499984E+02
             -0.722252273361035E+02
             -0.365085528801021E+02
              0.748824773551622E+02
              0.629566287447200E+02
             -0.180764503973493E+02
             -0.460165329285161E+01
              0.726714787916785E+01
              0.646114516585135E+02
             -0.506046396925458E+02
              0.157739665979090E+02
             -0.469208144250244E+01
              0.346330527161613E+02
             -0.744052774316204E+02
             -0.646178402519169E+01
             -0.349817467378268E+02
              0.458656577484923E+02
              0.466884960488431E+02
             -0.858303134740627E+02
             -0.484995938890226E+02
             -0.255242676373463E+02
             -0.337904431171108E+02
             -0.108737677185881E+02
             -0.241705828618748E+02
              0.425599525236548E+02
              0.398983797916247E+02
             -0.562140407084740E+01
             -0.414586332266157E+02
             -0.847193443515811E+02
              0.441119963334173E+02
             -0.521193094159439E+02
             -0.311707206650577E+02
              0.543184696467192E+01
             -0.321275123412545E+02
             -0.396126696483667E+02
             -0.239221769982491E+02
             -0.383883229175462E+02
             -0.269507467797556E+02
             -0.480445352244011E+02
              0.561431157459240E+02
              0.635533783516208E+02
             -0.168091505703171E+01
             -0.260219047110440E+02
             -0.628131227190352E+01
              0.439656796507468E+02
             -0.864285888875900E+02
             -0.145336978544602E+02
              0.521357180183426E+02
              0.661269465027564E+02
             -0.243964173531274E+02
              0.909468402784057E+01
              0.521800403425736E+02
              0.197612187922092E+02
             -0.822653106887162E+01
             -0.451722148411444E+02
              0.280021287371211E+02
             -0.351203816391806E+02
             -0.164203199871831E+02
             -0.152117910859213E+02
             -0.199520291988596E+02
              0.194086043182032E+02
              0.797180853203808E+02
[...]
              0.282523863664100E+02
              0.141180015666010E+03
              0.241335177312856E+02
              0.121842844727810E+02
             -0.462012262714524E+02
             -0.634909303895861E+02
             -0.188586263040406E+02
              0.328794570389967E+02
             -0.425607136589144E+01
              0.189408292241640E+02
              0.334751900113032E+02
             -0.583186070530558E+02
              0.221389492814733E+02
              0.579900865178018E+02
              0.550027692702685E+02
             -0.414049358897211E+01
             -0.137136992782621E+01
             -0.991237152696141E+01
             -0.480395142046964E+02
             -0.671651558009069E+02
              0.781919485186648E+02
             -0.517375841848815E+01
             -0.585345634861116E+02
              0.168332588391817E+01
             -0.204098227985060E+02
              0.934732853902181E+02
             -0.215667295538516E+02
             -0.351914157563015E+02
              0.333942137079176E+02
             -0.145154713776229E+02
              0.387578156725356E+02
             -0.233561634187123E+01
              0.100643002112101E+03
              0.487367169921981E+02
             -0.513679697667901E+01
             -0.320245578405609E+02
              0.231155604037854E+02
             -0.526099264552425E+02
             -0.127540686451816E+02
              0.582934465429417E+02
             -0.286618826573481E+02
             -0.436267483869061E+02
             -0.222194388193317E+02
              0.516196016804079E+02
              0.124013263264933E+02
             -0.845081711554726E+02
              0.302565564838731E+02
              0.151727779814605E+02
              0.574629955197096E+01
             -0.511395017470522E+02
             -0.380037740847672E+01
              0.321459865073165E+02
              0.510581577842086E+02
              0.629983741240503E+02
              0.227638278234867E+02
              0.691372074269282E+00
             -0.495828629252350E+02
             -0.508244457145796E+02
             -0.744646063201554E+02
             -0.612339407839920E+01
              0.307694294413786E+02
             -0.381002540081380E+01
              0.544454485578435E+02
             -0.316625724920627E+02
              0.165388709130376E+02
             -0.102096869057532E+02
             -0.288589693562918E+02
              0.583229697739315E+02
              0.789733193195707E+01
              0.601699757881348E+02
              0.507431513049016E+01
              0.263990050650234E+02
             -0.191947191754323E+02
              0.583340606021985E+02
             -0.111226904487444E+02
             -0.935204085618615E-01
             -0.786646907365819E+02
             -0.127956846019208E+02
              0.715923892950764E+02
              0.670028292460987E+02
              0.250841037054340E+02
             -0.129521791774032E+02
              0.344668080634608E+01
             -0.172627368222897E+02
             -0.200543810688944E+01
              0.903918080527009E+02
              0.122897985461623E+01
             -0.189213226769056E+02
             -0.110244504863803E+03
             -0.550276601466474E+02
             -0.373459905215025E+02
             -0.655506944251474E+02
             -0.553069478242839E+02
             -0.679398114059859E+02
             -0.445248463329594E+02
             -0.409449890039771E+02
             -0.449741808878448E+02
              0.481645279505856E+02
             -0.293044341486768E+02
             -0.990827935933775E+02
              0.417157153489312E+02
             -0.258723960192424E+02
             -0.787106732769980E+02
              0.939321120011712E+02
             -0.218729315110396E+02
              0.227164342229568E+02
              0.453297454904065E+02
             -0.135159085048866E+01
              0.253408238113261E+02
              0.469675555220229E+01
              0.400794150585789E+00
             -0.150396939782651E+02
             -0.712793763300700E+02
              0.132814789435659E+02
             -0.128831174660866E+03
              0.621397586655466E+02
             -0.438918660431500E+02
             -0.162017713122661E+02
             -0.157069052024781E+02
              0.707737206799460E+01
             -0.226876569564173E+02
              0.295531418789407E+02
             -0.517813663329881E+02
              0.365565838649485E+02
              0.369459568815025E+02
              0.167570837963602E+02
              0.100527647843577E+02
              0.196852781589801E+02
              0.618477424126866E+01
              0.308757456289237E+02
             -0.798007722266220E+01
             -0.589488709677555E+02
              0.753883822460932E+01
             -0.151281542577755E+02
             -0.193666959266989E+01
              0.504171630960917E+02
             -0.823263599551633E+02
             -0.146145756666249E+01
              0.562981829901105E+00
              0.991990686021092E+01
              0.316911667345063E+02
             -0.123054132435425E+02
              0.831703606995743E+02
              0.485621038691015E+02
             -0.182359829678388E+02
             -0.948436749058783E+01
              0.104918502697882E+01
              0.765814839676106E+02
             -0.583680394827219E+02
             -0.105302833052637E+03
              0.308135118421148E+02
             -0.162943050894264E+02
             -0.139203860546289E+02
              0.129594018859535E+02
              0.764936421638669E+02
              0.462273748757725E+02
             -0.152619155530380E+02
             -0.500649510567322E+02
             -0.544833405291433E+01
              0.305103630748833E+02
             -0.110928996653500E+02
             -0.752332495791859E+02
             -0.269664554070584E+01
             -0.885667934876456E+02
             -0.473215459073328E+02
              0.764843377064812E+02
             -0.481397264550282E+02
             -0.633429999260123E+02
             -0.512094915953713E+02
             -0.348017728413968E+02
              0.339875574444073E+02
              0.817838375555895E+02
             -0.356898036458875E+01
              0.275282247930660E+02
             -0.183024272724267E+02
             -0.690832064691147E+02
              0.462919196242830E+02
             -0.442999053933079E+02
              0.320390283904451E+02
              0.374652005108782E+02
             -0.649774673584307E+01
              0.388424153949185E+02
              0.436434447173157E+02
              0.100166042432907E+03
             -0.155344754537589E+02
             -0.453867189707275E+02
             -0.609650872156275E+02
             -0.123004362432869E+02
             -0.231474791674305E+02
              0.102580450100579E+03
             -0.447299799713301E+02
              0.104580289488251E+02
              0.967895718865003E+01
             -0.263641175549349E+02
             -0.795330855342064E+02
             -0.697518167998845E+01
              0.975370246724635E+02
              0.930333176918290E+01
              0.804544079635042E+01
             -0.524580507290868E+02
             -0.602724335428195E+02
             -0.556806454311796E+01
              0.498170968807124E+02
             -0.220809386338854E+02
              0.107498276056510E+03
             -0.434084783850076E+02
              0.145403468502666E+02
             -0.223083756825762E+02
             -0.715701847236933E+02
              0.164823661643396E+01
             -0.499159794785451E+02
             -0.757141205823322E+02
              0.612949049301426E+01
              0.233416476354611E+01
              0.511943696160886E+02
              0.186049304754838E+02
             -0.322240595598871E+02
              0.228929667956813E+02
             -0.807372074087357E+02
             -0.519340361511217E+02
              0.897528176349504E+02
              0.141684196463476E+02
             -0.187543724770771E+02
             -0.351038948937871E+02
             -0.270966794511139E+01
             -0.582273033274168E+01
              0.826760405521796E+02
              0.416164209036286E+02
             -0.165305971134565E+02
             -0.121541965782258E+02
             -0.425760932768957E+02
             -0.199809576785979E+02
             -0.666883614244537E+02
              0.457631150957091E+02
              0.545301619957118E+01
              0.144434267808653E+02
              0.155412572576955E+02
             -0.519951304324856E+00
             -0.167527332344409E+02
             -0.307772573173209E+01
             -0.999403729301074E+02
             -0.229438104903053E+02
             -0.763843016370714E+01
             -0.945200823506485E+01
              0.543600311596024E+02
              0.621179111248519E+02
              0.164006670230209E+02
             -0.966309291893844E+02
              0.644364975165155E+02
             -0.213731253057458E+02
             -0.375232418439095E+02
             -0.860122815072592E+02
             -0.385428473806453E+02
              0.562065731277981E+02
              0.243268488212966E+02
              0.508863319744927E+01
              0.290741779125867E+02
             -0.562416980023101E+02
             -0.420164215921916E+02
              0.512657230332446E+02
              0.385140970517336E+02
              0.516505009194042E+02
             -0.120146069238572E+01
              0.682514006365165E+01
              0.566998562211915E+02
              0.958172694167382E+02
             -0.299091771424441E+02
              0.321328585182084E+02
             -0.117989651389181E+02
             -0.410201929182377E+02
             -0.313017469426389E+02
             -0.298973143962947E+02
             -0.130726005332229E+02
             -0.520920702302887E+02
             -0.216137689448808E+02
             -0.140570445701187E+03
              0.367740097542481E+02
              0.205359089225543E+02
             -0.393216008123086E+01
             -0.378226305471140E+02
             -0.203114443289564E+02
             -0.524326453720257E+02
              0.151049377238170E+02
              0.816369692935428E+02
             -0.251249245418630E+02
             -0.162190588077146E+02
              0.237115402067139E+02
             -0.487457126604461E+02
              0.876462191559327E+02
              0.153606804779014E+02
              0.225762098325001E+02
              0.487543454101948E+02
              0.319080260346658E+01
              0.539236819632474E+02
              0.142170372608640E+02
             -0.106282994711973E+02
              0.723297347269437E+01
              0.776252706193816E+00
              0.723775260303576E+02
              0.101064393955880E+02
              0.119822088649319E+02
             -0.129813646825366E+02
              0.132005940594109E+02
             -0.906831775270983E+02
             -0.324146147468513E+02
             -0.455105156899858E+02
              0.482628953469385E+02
             -0.289505939157388E+02
             -0.655735777110092E+02
              0.535748927590815E+02
             -0.121274241654739E+02
              0.438104794749958E+02
             -0.894461417834298E+02
              0.231092985155829E+02
              0.852719681110429E+01
              0.580734791434611E+01
             -0.826951165554544E+01
             -0.900868047111385E+01
              0.477312190940152E+02
              0.197483797718661E+01
             -0.472740642606022E+02
             -0.175350937282611E+02
              0.275469054755141E+02
             -0.117417136889385E+03
             -0.925562079588807E+02
              0.394893532100059E+01
              0.116998191699359E+02
             -0.411266915346709E+02
             -0.389544121956095E+01
              0.111612575031055E+03
              0.304705983614879E+02
             -0.569086515007004E+02
              0.920544306430597E+01
             -0.957977672183907E+01
              0.105391330587701E+02
             -0.336266616683296E+02
              0.194593578758640E+02
              0.283469270529260E+02
             -0.292573690574091E+01
              0.107658931363194E+03
             -0.140092179424975E+02
             -0.314465538753154E+02
              0.141585267259003E+02
              0.464608833012617E+02
             -0.354361146357483E+02
             -0.315973406027604E+01
              0.960496866948387E+02
             -0.462860937618132E+01
              0.619205418547401E+02
              0.134732752650763E+02
             -0.895588505700262E+01
             -0.304422164566129E+02
              0.564024097094875E+02
             -0.511416287771987E+02
             -0.220010409164615E+01
             -0.169100493868038E+02
             -0.403355055981239E+02
              0.184577307033652E+02
              0.238451044559392E+02
              0.116072514186639E+02
              0.725813620606004E+00
             -0.382520942786781E+02
              0.214206877667950E+02
             -0.673251116691068E+01
             -0.245196536780731E+02
             -0.209550155979454E+02
              0.202145644812766E+02
             -0.599202028056368E+01
             -0.347433254741363E+02
             -0.106161176366216E+03
              0.102692459906419E+02
              0.247954942444274E+02
             -0.385260150898688E+02
             -0.209926690234877E+02
              0.803425027403241E+02
              0.647869148707034E+01
              0.308865358524970E+02
              0.386384658667936E+01
              0.319996373235215E+02
              0.646928571553337E+01
             -0.371043042854333E+02
             -0.232058756873229E+01
              0.873313546650303E+01
              0.272511608218770E+02
              0.778105846412710E+02
              0.505066838275449E+02
              0.180331851702647E+00
              0.169078320728120E+02
              0.610505170406458E+02
              0.234589699745601E+02
             -0.749397447593177E+02
             -0.272495951661146E+02
              0.150542161640965E+02
              0.556933392386674E+01
              0.253696243376866E+02
             -0.545286186858858E+02
              0.894657987911503E+01
              0.384356505176505E+02
              0.495637730620754E+02
             -0.432791850122730E+02
             -0.689503579069827E+01
             -0.206734126873272E+01
             -0.132695632774935E+02
             -0.363934425881931E+02
             -0.214610041357008E+02
             -0.200738755510505E+01
              0.788945256177601E+01
              0.419484273917627E+02
             -0.306484587003681E+02
              0.822441760558158E+02
              0.325748027466673E+02
              0.218791536451179E+02
              0.331688782107677E+02
              0.321786819885149E+02
              0.344965452804982E+02
              0.534530169212066E+02
             -0.431725044113845E+02
              0.616812852708604E+02
             -0.111769825907576E+03
              0.305836529439415E+02
             -0.106036813203091E+03
              0.850766276628693E+02
              0.687097587154699E+02
             -0.109435346561452E+02
             -0.490986420782281E+02
             -0.427780787900740E+02
             -0.620868638669191E+02
             -0.625785473788995E+02
              0.549499363200810E+02
              0.403439401165767E+02
              0.235522987011852E+02
              0.372298638565079E+02
              0.401211018676310E+02
             -0.380254790788500E+02
             -0.197149871953195E+02
              0.584256214477673E+02
             -0.115733058616842E+02
              0.549711068084451E+02
              0.695942923507954E+02
             -0.554903478795115E+01
             -0.702901991047967E+02
             -0.867414163279705E+00
             -0.249262283826911E+01
             -0.877204487657150E+01
             -0.183765383178337E+01
             -0.649987852300404E+02
             -0.209891034362189E+02
              0.535135571320687E+01
              0.896226726688241E+01
              0.466681243206160E+02
             -0.395780366445649E+02
              0.654697808961060E+02
             -0.423461733686935E+02
              0.209393315183824E+02
              0.348344165963828E+02
 
 BEEF-vdW xc energy contributions
           1 :   -779.350650353989     
           2 :    715.929564666283     
           3 :   -606.207174360300     
           4 :    477.152652324077     
           5 :   -356.082728502327     
           6 :    262.628385344837     
           7 :   -204.323905690888     
           8 :    176.626119587838     
           9 :   -166.928808315603     
          10 :    160.674602268272     
          11 :   -147.085997937210     
          12 :    122.368074196176     
          13 :   -89.5642861633440     
          14 :    55.6832356203175     
          15 :   -27.7461496894704     
          16 :    9.53253683236028     
          17 :  -0.285055012272323     
          18 :   -4.35928945461296     
          19 :    9.90076417489377     
          20 :   -20.2737220378298     
          21 :    36.1447749941432     
          22 :   -54.8877662162432     
          23 :    72.0842109285034     
          24 :   -83.7308659763711     
          25 :    88.0673431624889     
          26 :   -86.2185635028989     
          27 :    81.4491896818627     
          28 :   -77.4843566057182     
          29 :    76.7418589285318     
          30 :   -79.3126449471143     
          31 :   -85.4460193329593     
          32 :   -65.4748100077567     

     Writing output data file ./pwscf.save/
 
     init_run     :    332.20s CPU    336.58s WALL (       1 calls)
     electrons    :  12997.06s CPU  13126.40s WALL (       1 calls)
     forces       :    100.23s CPU    101.39s WALL (       1 calls)

     Called by init_run:
     wfcinit      :    284.07s CPU    287.47s WALL (       1 calls)
     potinit      :     45.16s CPU     45.49s WALL (       1 calls)
     hinit0       :      1.12s CPU      1.15s WALL (       1 calls)

     Called by electrons:
     c_bands      :  10779.02s CPU  10880.27s WALL (      20 calls)
     sum_band     :   1530.47s CPU   1542.98s WALL (      20 calls)
     v_of_rho     :    132.58s CPU    136.86s WALL (      21 calls)
     newd         :     31.32s CPU     42.71s WALL (      21 calls)
     PAW_pot      :    140.36s CPU    140.39s WALL (      21 calls)
     mix_rho      :    429.22s CPU    429.97s WALL (      20 calls)
     vdW_kernel   :     33.46s CPU     33.46s WALL (       1 calls)

     Called by c_bands:
     init_us_2    :     79.40s CPU     79.65s WALL (     546 calls)
     cegterg      :   9979.78s CPU  10080.42s WALL (     260 calls)

     Called by *egterg:
     cdiaghg      :     80.00s CPU     80.11s WALL (    1415 calls)
     h_psi        :   6429.30s CPU   6465.94s WALL (    1428 calls)
     s_psi        :   1061.63s CPU   1062.27s WALL (    1428 calls)
     g_psi        :     16.28s CPU     16.29s WALL (    1155 calls)

     Called by h_psi:
     h_psi:calbec :    985.80s CPU    986.54s WALL (    1428 calls)
     vloc_psi     :   4355.59s CPU   4359.22s WALL (    1428 calls)
     add_vuspsi   :   1062.18s CPU   1062.84s WALL (    1428 calls)

     General routines
     calbec       :   1452.87s CPU   1453.76s WALL (    1740 calls)
     fft          :     48.98s CPU     49.00s WALL (    3280 calls)
     ffts         :    136.27s CPU    136.33s WALL (    9611 calls)
     fftw         :   4458.02s CPU   4461.10s WALL (  330562 calls)
 
     Parallel routines
 
     PWSCF        :      3h46m CPU      3h48m WALL

 
   This run was terminated on:  17:53:43  26Sep2022            

=------------------------------------------------------------------------------=
   JOB DONE.
=------------------------------------------------------------------------------=
