
     Program PWSCF v.6.7MaX starts on 20May2022 at 14:48:53 

     This program is part of the open-source Quantum ESPRESSO suite
     for quantum simulation of materials; please cite
         "P. Giannozzi et al., J. Phys.:Condens. Matter 21 395502 (2009);
         "P. Giannozzi et al., J. Phys.:Condens. Matter 29 465901 (2017);
          URL http://www.quantum-espresso.org", 
     in publications or presentations arising from this work. More details at
     http://www.quantum-espresso.org/quote

     Parallel version (MPI), running on     1 processors

     MPI processes distributed on     1 nodes
     Reading input from c2ho-ensemble.in
Warning: card &CELL ignored
Warning: card / ignored

     Current dimensions of program PWSCF are:
     Max number of different atomic species (ntypx) = 10
     Max number of k-points (npk) =  40000
     Max angular momentum in pseudopotentials (lmaxx) =  3
     file Pt.pbe-n-kjpaw_psl.1.0.0.UPF: wavefunction(s)  6S 5D renormalized
     file C.pbe-n-kjpaw_psl.1.0.0.UPF: wavefunction(s)  2S 2P renormalized
     file O.pbe-nl-kjpaw_psl.1.0.0.UPF: wavefunction(s)  2S 2P renormalized
     file H.pbe-kjpaw_psl.1.0.0.UPF: wavefunction(s)  1S renormalized

     **************************************************************************
     Initializing libbeef V0.1.2 with the BEEF-vdW functional.
     Citation: Wellendorff et al., PRB 85, 235149 (2012).
     **************************************************************************


     IMPORTANT: XC functional enforced from input :
     Exchange-correlation= BEEF-VDW
                           (   1   4  43  14   2   0   0)
     Any further DFT definition will be discarded
     Please, verify this is what you really want


     Subspace diagonalization in iterative solution of the eigenvalue problem:
     a serial algorithm will be used

 
     G-vector sticks info
     --------------------
     sticks:   dense  smooth     PW     G-vecs:    dense   smooth      PW
     Sum        4267    4267   1159               711689   711689  100193
 


     bravais-lattice index     =            0
     lattice parameter (alat)  =      16.0349  a.u.
     unit-cell volume          =   11329.0865 (a.u.)^3
     number of atoms/cell      =           40
     number of atomic types    =            4
     number of electrons       =       375.00
     number of Kohn-Sham states=          226
     kinetic-energy cutoff     =      60.0000  Ry
     charge density cutoff     =     240.0000  Ry
     scf convergence threshold =      1.0E-06
     mixing beta               =       0.7000
     number of iterations used =            8  local-TF  mixing
     Exchange-correlation= BEEF-VDW
                           (   1   4  43  14   2   0   0)

     celldm(1)=  16.034858  celldm(2)=   0.000000  celldm(3)=   0.000000
     celldm(4)=   0.000000  celldm(5)=   0.000000  celldm(6)=   0.000000

     crystal axes: (cart. coord. in units of alat)
               a(1) = (   1.000000   0.000000   0.000000 )  
               a(2) = (   0.500000   0.866025   0.000000 )  
               a(3) = (   0.000000   0.000000   3.172992 )  

     reciprocal axes: (cart. coord. in units 2 pi/alat)
               b(1) = (  1.000000 -0.577350  0.000000 )  
               b(2) = (  0.000000  1.154701  0.000000 )  
               b(3) = (  0.000000  0.000000  0.315160 )  


     PseudoPot. # 1 for Pt read from file:
     /users/bkreitz1/quantum-espresso/potentials/Pt.pbe-n-kjpaw_psl.1.0.0.UPF
     MD5 check sum: 04dc8a03c51ece93fc7b5889c2958091
     Pseudo is Projector augmented-wave + core cor, Zval = 10.0
     Generated using 'atomic' code by A. Dal Corso  v.6.7MaX
     Shape of augmentation charge: PSQ
     Using radial grid of 1277 points,  6 beta functions with: 
                l(1) =   0
                l(2) =   0
                l(3) =   1
                l(4) =   1
                l(5) =   2
                l(6) =   2
     Q(r) pseudized with 0 coefficients 


     PseudoPot. # 2 for C  read from file:
     /users/bkreitz1/quantum-espresso/potentials/C.pbe-n-kjpaw_psl.1.0.0.UPF
     MD5 check sum: a169b0ebad56f5ec0d79c4633f80bf22
     Pseudo is Projector augmented-wave + core cor, Zval =  4.0
     Generated using 'atomic' code by A. Dal Corso  v.6.7MaX
     Shape of augmentation charge: PSQ
     Using radial grid of 1073 points,  4 beta functions with: 
                l(1) =   0
                l(2) =   0
                l(3) =   1
                l(4) =   1
     Q(r) pseudized with 0 coefficients 


     PseudoPot. # 3 for O  read from file:
     /users/bkreitz1/quantum-espresso/potentials/O.pbe-nl-kjpaw_psl.1.0.0.UPF
     MD5 check sum: eef08af8b58d9ec80f8fdb78829eb7cf
     Pseudo is Projector augmented-wave + core cor, Zval =  6.0
     Generated using 'atomic' code by A. Dal Corso  v.6.7MaX
     Shape of augmentation charge: PSQ
     Using radial grid of 1095 points,  4 beta functions with: 
                l(1) =   0
                l(2) =   0
                l(3) =   1
                l(4) =   1
     Q(r) pseudized with 0 coefficients 


     PseudoPot. # 4 for H  read from file:
     /users/bkreitz1/quantum-espresso/potentials/H.pbe-kjpaw_psl.1.0.0.UPF
     MD5 check sum: ae98473e6dc62675f0d0baffdab24f65
     Pseudo is Projector augmented-wave, Zval =  1.0
     Generated using 'atomic' code by A. Dal Corso  v.6.7MaX
     Shape of augmentation charge: PSQ
     Using radial grid of  929 points,  2 beta functions with: 
                l(1) =   0
                l(2) =   0
     Q(r) pseudized with 0 coefficients 


     atomic species   valence    mass     pseudopotential
        Pt            10.00   195.08400     Pt( 1.00)
        C              4.00    12.01100     C ( 1.00)
        O              6.00    15.99900     O ( 1.00)
        H              1.00     1.00800     H ( 1.00)

     No symmetry found



   Cartesian axes

     site n.     atom                  positions (alat units)
         1           Pt  tau(   1) = (   0.0000000   0.0000000   1.0017346  )
         2           Pt  tau(   2) = (   0.3333333   0.0000000   1.0017346  )
         3           Pt  tau(   3) = (   0.6666667   0.0000000   1.0017346  )
         4           Pt  tau(   4) = (   0.1666667   0.2886751   1.0017346  )
         5           Pt  tau(   5) = (   0.5000000   0.2886751   1.0017346  )
         6           Pt  tau(   6) = (   0.8333333   0.2886751   1.0017346  )
         7           Pt  tau(   7) = (   0.3333333   0.5773503   1.0017346  )
         8           Pt  tau(   8) = (   0.6666667   0.5773503   1.0017346  )
         9           Pt  tau(   9) = (   1.0000000   0.5773503   1.0017346  )
        10           Pt  tau(  10) = (   0.1666667   0.0962250   1.2739001  )
        11           Pt  tau(  11) = (   0.5000000   0.0962250   1.2739001  )
        12           Pt  tau(  12) = (   0.8333333   0.0962250   1.2739001  )
        13           Pt  tau(  13) = (   0.3333333   0.3849002   1.2739001  )
        14           Pt  tau(  14) = (   0.6666667   0.3849002   1.2739001  )
        15           Pt  tau(  15) = (   1.0000000   0.3849002   1.2739001  )
        16           Pt  tau(  16) = (   0.5000000   0.6735753   1.2739001  )
        17           Pt  tau(  17) = (   0.8333333   0.6735753   1.2739001  )
        18           Pt  tau(  18) = (   1.1666667   0.6735753   1.2739001  )
        19           Pt  tau(  19) = (  -0.0024634   0.1937064   1.5473589  )
        20           Pt  tau(  20) = (   0.3357926   0.1937043   1.5473560  )
        21           Pt  tau(  21) = (   0.6666600   0.1923472   1.5453784  )
        22           Pt  tau(  22) = (   0.1666650   0.4801231   1.5422327  )
        23           Pt  tau(  23) = (   0.5010005   0.4802975   1.5461104  )
        24           Pt  tau(  24) = (   0.8323261   0.4803001   1.5461115  )
        25           Pt  tau(  25) = (   0.3338698   0.7687616   1.5419468  )
        26           Pt  tau(  26) = (   0.6666669   0.7684243   1.5431366  )
        27           Pt  tau(  27) = (   0.9994563   0.7687636   1.5419447  )
        28           Pt  tau(  28) = (   0.0003195  -0.0032998   1.8175178  )
        29           Pt  tau(  29) = (   0.3330019  -0.0033020   1.8175160  )
        30           Pt  tau(  30) = (   0.6666564  -0.0093550   1.8142055  )
        31           Pt  tau(  31) = (   0.1666607   0.2850519   1.8179016  )
        32           Pt  tau(  32) = (   0.4995187   0.2821863   1.8323420  )
        33           Pt  tau(  33) = (   0.8337888   0.2821848   1.8323468  )
        34           Pt  tau(  34) = (   0.3316711   0.5736099   1.8163759  )
        35           Pt  tau(  35) = (   0.6666599   0.5832959   1.8294499  )
        36           Pt  tau(  36) = (   1.0016488   0.5736117   1.8163741  )
        37           C   tau(  37) = (   0.6666471   0.3166630   2.0062640  )
        38           C   tau(  38) = (   0.6666691   0.4838477   2.0486734  )
        39           O   tau(  39) = (   0.6666982   0.5545880   2.1712570  )
        40           H   tau(  40) = (   0.6666429   0.2321540   2.1046143  )

     number of k points=    13  Marzari-Vanderbilt smearing, width (Ry)=  0.0200
                       cart. coord. in units 2pi/alat
        k(    1) = (   0.0000000   0.0000000   0.0000000), wk =   0.0800000
        k(    2) = (   0.0000000   0.2309401   0.0000000), wk =   0.1600000
        k(    3) = (   0.0000000   0.4618802   0.0000000), wk =   0.1600000
        k(    4) = (   0.2000000  -0.1154701   0.0000000), wk =   0.1600000
        k(    5) = (   0.2000000   0.1154701   0.0000000), wk =   0.1600000
        k(    6) = (   0.2000000   0.3464102   0.0000000), wk =   0.1600000
        k(    7) = (   0.2000000  -0.5773503   0.0000000), wk =   0.1600000
        k(    8) = (   0.2000000  -0.3464102   0.0000000), wk =   0.1600000
        k(    9) = (   0.4000000  -0.2309401   0.0000000), wk =   0.1600000
        k(   10) = (   0.4000000  -0.0000000   0.0000000), wk =   0.1600000
        k(   11) = (   0.4000000   0.2309401   0.0000000), wk =   0.1600000
        k(   12) = (   0.4000000  -0.6928203   0.0000000), wk =   0.1600000
        k(   13) = (   0.4000000  -0.4618802   0.0000000), wk =   0.1600000

     Dense  grid:   711689 G-vectors     FFT dimensions: (  80,  80, 256)

     Estimated max dynamical RAM per process >       8.65 GB

     Check: negative core charge=   -0.000002

     Initial potential from superposition of free atoms

     starting charge  374.99380, renormalised to  375.00000

     negative rho (up, down):  1.215E-02 0.000E+00


     %%%%%%%%%%%%%%%%%%%%%%%%%%%%%%%%%%%%%%%%%%%%%%%%%%%%%%%%%%%%%%%%%%%%%%%%
     %                                                                      %
     % You are using vdW-DF, which was implemented by the Thonhauser group. %
     % Please cite the following two papers that made this development      %
     % possible and the two reviews that describe the various versions:     %
     %                                                                      %
     %   T. Thonhauser et al., PRL 115, 136402 (2015).                      %
     %   T. Thonhauser et al., PRB 76, 125112 (2007).                       %
     %   K. Berland et al., Rep. Prog. Phys. 78, 066501 (2015).             %
     %   D.C. Langreth et al., J. Phys.: Condens. Matter 21, 084203 (2009). %
     %                                                                      %
     %                                                                      %
     % If you are calculating the stress with vdW-DF, please also cite:     %
     %                                                                      %
     %   R. Sabatini et al., J. Phys.: Condens. Matter 24, 424209 (2012).   %
     %                                                                      %
     %%%%%%%%%%%%%%%%%%%%%%%%%%%%%%%%%%%%%%%%%%%%%%%%%%%%%%%%%%%%%%%%%%%%%%%%


     Starting wfcs are  337 randomized atomic wfcs
     Checking if some PAW data can be deallocated... 

     total cpu time spent up to now is      312.2 secs

     Self-consistent Calculation

     iteration #  1     ecut=    60.00 Ry     beta= 0.70
     Davidson diagonalization with overlap
     ethr =  1.00E-02,  avg # of iterations =  2.0

     Threshold (ethr) on eigenvalues was too large:
     Diagonalizing with lowered threshold

     Davidson diagonalization with overlap
     ethr =  8.83E-04,  avg # of iterations =  2.5

     negative rho (up, down):  1.698E-02 0.000E+00

     total cpu time spent up to now is     1474.9 secs

     total energy              =  -27835.54619854 Ry
     estimated scf accuracy    <       3.54206928 Ry

     iteration #  2     ecut=    60.00 Ry     beta= 0.70
     Davidson diagonalization with overlap
     ethr =  9.45E-04,  avg # of iterations =  2.0

     negative rho (up, down):  1.657E-02 0.000E+00

     total cpu time spent up to now is     2027.9 secs

     total energy              =  -27835.80894440 Ry
     estimated scf accuracy    <       1.20104418 Ry

     iteration #  3     ecut=    60.00 Ry     beta= 0.70
     Davidson diagonalization with overlap
     ethr =  3.20E-04,  avg # of iterations =  2.0

     negative rho (up, down):  1.599E-02 0.000E+00

     total cpu time spent up to now is     2588.3 secs

     total energy              =  -27835.88939322 Ry
     estimated scf accuracy    <       0.51612615 Ry

     iteration #  4     ecut=    60.00 Ry     beta= 0.70
     Davidson diagonalization with overlap
     ethr =  1.38E-04,  avg # of iterations =  8.6

     negative rho (up, down):  1.508E-02 0.000E+00

     total cpu time spent up to now is     3234.9 secs

     total energy              =  -27835.93449561 Ry
     estimated scf accuracy    <       0.16607593 Ry

     iteration #  5     ecut=    60.00 Ry     beta= 0.70
     Davidson diagonalization with overlap
     ethr =  4.43E-05,  avg # of iterations =  9.5

     negative rho (up, down):  1.404E-02 0.000E+00

     total cpu time spent up to now is     3970.0 secs

     total energy              =  -27835.95406799 Ry
     estimated scf accuracy    <       0.04222187 Ry

     iteration #  6     ecut=    60.00 Ry     beta= 0.70
     Davidson diagonalization with overlap
     c_bands:  1 eigenvalues not converged
     c_bands:  1 eigenvalues not converged
     c_bands:  1 eigenvalues not converged
     ethr =  1.13E-05,  avg # of iterations = 12.8

     negative rho (up, down):  1.323E-02 0.000E+00

     total cpu time spent up to now is     4736.1 secs

     total energy              =  -27835.96026829 Ry
     estimated scf accuracy    <       0.00619397 Ry

     iteration #  7     ecut=    60.00 Ry     beta= 0.70
     Davidson diagonalization with overlap
     c_bands:  1 eigenvalues not converged
     c_bands:  2 eigenvalues not converged
     c_bands:  2 eigenvalues not converged
     ethr =  1.65E-06,  avg # of iterations = 14.2

     negative rho (up, down):  1.291E-02 0.000E+00

     total cpu time spent up to now is     5628.8 secs

     total energy              =  -27835.96201408 Ry
     estimated scf accuracy    <       0.00287625 Ry

     iteration #  8     ecut=    60.00 Ry     beta= 0.70
     Davidson diagonalization with overlap
     c_bands:  1 eigenvalues not converged
     c_bands:  1 eigenvalues not converged
     ethr =  7.67E-07,  avg # of iterations =  5.2

     negative rho (up, down):  1.279E-02 0.000E+00

     total cpu time spent up to now is     6207.6 secs

     total energy              =  -27835.96223106 Ry
     estimated scf accuracy    <       0.00151877 Ry

     iteration #  9     ecut=    60.00 Ry     beta= 0.70
     Davidson diagonalization with overlap
     ethr =  4.05E-07,  avg # of iterations =  1.4

     negative rho (up, down):  1.271E-02 0.000E+00

     total cpu time spent up to now is     6720.8 secs

     total energy              =  -27835.96232226 Ry
     estimated scf accuracy    <       0.00033385 Ry

     iteration # 10     ecut=    60.00 Ry     beta= 0.70
     Davidson diagonalization with overlap
     ethr =  8.90E-08,  avg # of iterations =  4.0

     negative rho (up, down):  1.267E-02 0.000E+00

     total cpu time spent up to now is     7372.3 secs

     total energy              =  -27835.96238542 Ry
     estimated scf accuracy    <       0.00015126 Ry

     iteration # 11     ecut=    60.00 Ry     beta= 0.70
     Davidson diagonalization with overlap
     ethr =  4.03E-08,  avg # of iterations =  2.2

     negative rho (up, down):  1.267E-02 0.000E+00

     total cpu time spent up to now is     7930.7 secs

     total energy              =  -27835.96239995 Ry
     estimated scf accuracy    <       0.00007650 Ry

     iteration # 12     ecut=    60.00 Ry     beta= 0.70
     Davidson diagonalization with overlap
     ethr =  2.04E-08,  avg # of iterations =  2.2

     negative rho (up, down):  1.272E-02 0.000E+00

     total cpu time spent up to now is     8496.9 secs

     total energy              =  -27835.96240726 Ry
     estimated scf accuracy    <       0.00003175 Ry

     iteration # 13     ecut=    60.00 Ry     beta= 0.70
     Davidson diagonalization with overlap
     ethr =  8.47E-09,  avg # of iterations =  3.9

     negative rho (up, down):  1.284E-02 0.000E+00

     total cpu time spent up to now is     9144.8 secs

     total energy              =  -27835.96241191 Ry
     estimated scf accuracy    <       0.00001149 Ry

     iteration # 14     ecut=    60.00 Ry     beta= 0.70
     Davidson diagonalization with overlap
     ethr =  3.06E-09,  avg # of iterations =  4.1

     negative rho (up, down):  1.289E-02 0.000E+00

     total cpu time spent up to now is     9819.2 secs

     total energy              =  -27835.96241436 Ry
     estimated scf accuracy    <       0.00000231 Ry

     iteration # 15     ecut=    60.00 Ry     beta= 0.70
     Davidson diagonalization with overlap
     ethr =  6.16E-10,  avg # of iterations =  4.7

     negative rho (up, down):  1.293E-02 0.000E+00

     total cpu time spent up to now is    10675.8 secs

     total energy              =  -27835.96241533 Ry
     estimated scf accuracy    <       0.00000177 Ry

     iteration # 16     ecut=    60.00 Ry     beta= 0.70
     Davidson diagonalization with overlap
     ethr =  4.72E-10,  avg # of iterations =  1.0

     negative rho (up, down):  1.329E-02 0.000E+00

     total cpu time spent up to now is    11145.6 secs

     End of self-consistent calculation

          k = 0.0000 0.0000 0.0000 ( 88877 PWs)   bands (ev):

   -20.4835 -12.4853  -7.3013  -7.0734  -5.9324  -5.3653  -4.8860  -4.7113
    -4.6823  -4.6781  -4.6649  -4.6489  -4.6337  -4.6089  -4.4575  -4.4447
    -4.1681  -4.1112  -4.1051  -4.0925  -4.0452  -4.0431  -3.8628  -3.6658
    -3.6538  -3.6340  -3.6031  -3.5884  -3.4724  -3.4312  -3.4268  -3.4229
    -3.3739  -3.3387  -3.3019  -3.2372  -3.2270  -3.2133  -3.2015  -3.1953
    -3.1739  -3.1564  -3.1422  -3.1294  -3.1111  -3.0902  -2.7403  -2.6733
    -2.5875  -2.5857  -2.5748  -2.5682  -2.5424  -2.5036  -2.4954  -2.4849
    -2.3633  -2.3516  -2.3121  -2.3048  -2.1884  -1.9462  -1.8399  -1.7980
    -1.7717  -1.7591  -1.7465  -1.7261  -1.7072  -1.6208  -1.5785  -1.5774
    -1.5745  -1.5654  -1.5592  -1.5583  -1.5281  -1.5039  -1.5038  -1.4940
    -1.4754  -1.4586  -1.4539  -1.4441  -1.3812  -1.3722  -1.3649  -1.3635
    -1.3379  -1.3366  -1.1802  -1.1632  -1.1475  -1.1216  -1.1162  -1.1074
    -1.0993  -1.0775  -1.0352  -1.0294  -1.0152  -0.9859  -0.9274  -0.9227
    -0.8817  -0.8786  -0.8626  -0.8331  -0.7628  -0.7471  -0.7424  -0.7185
    -0.7043  -0.6988  -0.5675  -0.3323  -0.3243  -0.2983  -0.2914  -0.2307
    -0.2242  -0.2215  -0.2005  -0.1860  -0.1035  -0.0922  -0.0687  -0.0562
    -0.0149   0.0208   0.0288   0.0501   0.0705   0.1342   0.1420   0.2234
     0.2599   0.2678   0.2728   0.2778   0.3364   0.4586   0.4904   0.5164
     0.5181   0.5229   0.5545   0.5709   0.5978   0.6747   0.7408   0.7455
     0.7623   0.7901   0.8085   0.8167   0.8684   0.8804   0.9064   0.9461
     0.9566   0.9627   0.9686   0.9687   0.9853   0.9867   1.0003   1.0017
     1.0620   1.0728   1.0738   1.0810   1.0835   1.1581   1.1595   1.1795
     1.1898   1.1923   1.2237   1.2411   1.2670   1.3188   1.3247   1.3263
     1.3316   1.3461   1.3645   1.3859   1.3940   1.4430   1.4458   1.4577
     1.4680   1.4867   1.6036   1.6215   1.7208   1.7346   1.7360   1.7719
     1.7733   1.7912   1.9865   2.2827   2.3381   2.6054   2.6554   2.6582
     2.6810   3.2771   3.8728   4.5181   4.9433   4.9634   4.9764   5.2029
     5.5923   6.0941   6.2915   6.5880   6.5930   6.6084   6.6261   6.6542
     6.6709   6.7370

          k = 0.0000 0.2309 0.0000 ( 88872 PWs)   bands (ev):

   -20.4835 -12.4848  -7.3086  -6.9225  -5.8173  -5.3338  -5.1446  -4.8640
    -4.7979  -4.7511  -4.5358  -4.5070  -4.4744  -4.4505  -4.3704  -4.3648
    -4.2311  -4.1710  -4.0445  -4.0270  -4.0041  -3.9744  -3.8516  -3.7012
    -3.6160  -3.5964  -3.5876  -3.5104  -3.5098  -3.4651  -3.4515  -3.4365
    -3.4106  -3.3998  -3.3109  -3.3055  -3.2707  -3.2145  -3.1925  -3.1878
    -3.1734  -3.0267  -3.0126  -2.9815  -2.9741  -2.9301  -2.7681  -2.7454
    -2.6847  -2.6644  -2.6499  -2.6238  -2.6145  -2.5120  -2.4622  -2.3782
    -2.3561  -2.3335  -2.2975  -2.2874  -2.1847  -2.0193  -2.0141  -1.9337
    -1.9115  -1.9008  -1.8529  -1.8524  -1.8006  -1.7689  -1.7419  -1.7223
    -1.7165  -1.6999  -1.6431  -1.5967  -1.5859  -1.5567  -1.5192  -1.4923
    -1.4897  -1.4596  -1.3836  -1.3806  -1.3640  -1.3450  -1.3016  -1.2953
    -1.2948  -1.2471  -1.2192  -1.1991  -1.1724  -1.1450  -1.1418  -1.1048
    -1.0902  -1.0631  -1.0416  -1.0368  -1.0050  -0.9970  -0.9577  -0.9404
    -0.9327  -0.9143  -0.8640  -0.8581  -0.8111  -0.7937  -0.7667  -0.7554
    -0.7011  -0.6824  -0.6624  -0.6355  -0.6327  -0.6190  -0.6169  -0.4342
    -0.3373  -0.2922  -0.2848  -0.2477  -0.2324  -0.2013  -0.1951  -0.1703
    -0.1205  -0.0574   0.0353   0.0554   0.1127   0.1290   0.1325   0.1508
     0.1830   0.2034   0.2292   0.2541   0.3075   0.3296   0.3729   0.4017
     0.4035   0.4752   0.5415   0.5628   0.5753   0.6096   0.6107   0.6310
     0.6910   0.7008   0.7721   0.7730   0.7970   0.8020   0.8365   0.8669
     0.9050   0.9202   0.9797   0.9971   1.0098   1.0351   1.1063   1.1239
     1.1431   1.1521   1.1918   1.2205   1.2784   1.2833   1.3064   1.3130
     1.3499   1.3611   1.3953   1.4203   1.4230   1.4437   1.4516   1.4844
     1.4873   1.5869   1.6065   1.6334   1.6596   1.6870   1.6995   1.7218
     1.7492   1.7598   1.7758   1.8276   1.8514   1.9005   1.9484   2.0250
     2.0604   2.0734   2.1035   2.1270   2.4334   2.8000   2.8555   3.2432
     3.3196   3.4884   3.7512   4.4152   4.7160   4.8528   5.3143   5.3638
     5.5368   5.5462   5.8696   6.1163   6.3987   6.5058   6.5440   6.6972
     6.8051   6.8117

          k = 0.0000 0.4619 0.0000 ( 88924 PWs)   bands (ev):

   -20.4835 -12.4841  -7.3150  -6.5012  -5.8836  -5.5614  -5.1384  -4.8822
    -4.8341  -4.7912  -4.5938  -4.4459  -4.4256  -4.2720  -4.1679  -4.1439
    -4.0586  -4.0552  -3.9593  -3.9148  -3.8499  -3.8315  -3.8192  -3.7707
    -3.7244  -3.6767  -3.6547  -3.6177  -3.6140  -3.5925  -3.5470  -3.4900
    -3.4820  -3.2683  -3.2585  -3.2390  -3.2342  -3.1955  -3.1864  -3.0224
    -3.0017  -2.9849  -2.9753  -2.9432  -2.9299  -2.8617  -2.7580  -2.7098
    -2.6913  -2.6636  -2.6204  -2.6184  -2.5650  -2.5093  -2.4986  -2.4853
    -2.4791  -2.3835  -2.3030  -2.2985  -2.2843  -2.2632  -2.1281  -2.1042
    -2.0922  -2.0762  -2.0505  -2.0383  -1.9171  -1.8842  -1.8655  -1.8333
    -1.8332  -1.7409  -1.7407  -1.7351  -1.6396  -1.6215  -1.5957  -1.5645
    -1.5138  -1.4981  -1.4709  -1.4359  -1.4173  -1.4127  -1.3755  -1.3671
    -1.3576  -1.3427  -1.3339  -1.3065  -1.2587  -1.2556  -1.2239  -1.2193
    -1.1720  -1.1528  -1.1406  -1.1125  -1.0843  -1.0071  -1.0001  -0.9678
    -0.9491  -0.9319  -0.9159  -0.8939  -0.8350  -0.8123  -0.7410  -0.7222
    -0.7029  -0.6735  -0.6583  -0.6209  -0.5365  -0.5329  -0.4487  -0.4142
    -0.3959  -0.3400  -0.3046  -0.2970  -0.2948  -0.2653  -0.2446  -0.1870
    -0.1817  -0.1709  -0.1603  -0.1330  -0.1210  -0.0925  -0.0581  -0.0249
     0.0238   0.0626   0.0841   0.1437   0.1573   0.2305   0.2786   0.3353
     0.3638   0.4125   0.4905   0.5136   0.5140   0.5564   0.6017   0.6020
     0.6422   0.6648   0.6895   0.7266   0.7304   0.7932   0.8186   0.8394
     0.8946   0.9171   0.9294   0.9700   0.9879   1.0439   1.0761   1.1582
     1.1812   1.1998   1.2363   1.2896   1.3193   1.3288   1.3329   1.4074
     1.4159   1.4754   1.4942   1.5130   1.5147   1.5958   1.6257   1.6536
     1.6669   1.6723   1.6810   1.7214   1.7412   1.8807   1.8991   1.9059
     1.9229   1.9238   2.0364   2.1528   2.2086   2.3723   2.5421   2.6329
     2.9002   2.9512   3.0800   3.1347   3.2816   3.3716   3.7130   3.7415
     4.0550   4.1858   4.2337   4.2999   4.3789   4.4204   4.6866   4.7093
     4.9279   5.0773   5.4059   5.5927   5.7539   5.9783   6.3116   6.5286
     6.7581   6.7826

          k = 0.2000-0.1155 0.0000 ( 88872 PWs)   bands (ev):

   -20.4835 -12.4848  -7.3026  -6.9266  -5.8151  -5.3277  -5.1577  -4.8678
    -4.7820  -4.7479  -4.5539  -4.5292  -4.4643  -4.4187  -4.4034  -4.3354
    -4.1965  -4.1595  -4.0849  -4.0332  -4.0181  -3.9693  -3.7991  -3.7111
    -3.6101  -3.6007  -3.5749  -3.5559  -3.5117  -3.4859  -3.4476  -3.4164
    -3.4012  -3.3828  -3.3393  -3.3081  -3.2807  -3.2245  -3.2117  -3.1947
    -3.1617  -3.0682  -3.0074  -2.9842  -2.9672  -2.9483  -2.7978  -2.7201
    -2.6960  -2.6568  -2.6283  -2.6188  -2.5887  -2.5005  -2.4604  -2.3973
    -2.3628  -2.3297  -2.3050  -2.2563  -2.2269  -2.0473  -1.9897  -1.9461
    -1.9111  -1.8974  -1.8844  -1.8339  -1.8084  -1.7844  -1.7462  -1.7395
    -1.7157  -1.6539  -1.6309  -1.6082  -1.5859  -1.5587  -1.5300  -1.4897
    -1.4730  -1.4548  -1.3931  -1.3792  -1.3635  -1.3393  -1.3212  -1.3050
    -1.2900  -1.2414  -1.2265  -1.2101  -1.1671  -1.1592  -1.1423  -1.1065
    -1.1000  -1.0570  -1.0401  -1.0229  -0.9916  -0.9843  -0.9589  -0.9388
    -0.9304  -0.9015  -0.8697  -0.8306  -0.8217  -0.7813  -0.7560  -0.7301
    -0.7074  -0.6893  -0.6750  -0.6338  -0.6279  -0.6040  -0.5820  -0.4384
    -0.3577  -0.3287  -0.2810  -0.2241  -0.2204  -0.1998  -0.1856  -0.1270
    -0.0545  -0.0091   0.0202   0.0544   0.1103   0.1241   0.1441   0.1766
     0.1829   0.2031   0.2339   0.2724   0.3022   0.3679   0.3869   0.3949
     0.4057   0.4311   0.4978   0.5520   0.5880   0.5956   0.6082   0.6574
     0.6883   0.7072   0.7679   0.7773   0.7883   0.7994   0.8479   0.8751
     0.9020   0.9175   0.9757   0.9891   1.0043   1.0190   1.0647   1.1108
     1.1402   1.1527   1.1925   1.2246   1.2595   1.2837   1.3008   1.3210
     1.3357   1.3584   1.3900   1.4076   1.4197   1.4338   1.4495   1.4874
     1.4920   1.5749   1.6086   1.6408   1.6544   1.6783   1.6980   1.7163
     1.7389   1.7531   1.7736   1.8116   1.8730   1.8987   1.9081   1.9634
     2.0630   2.0763   2.0827   2.2823   2.4328   2.5816   3.0414   3.2196
     3.3052   3.4230   3.8992   4.3659   4.6216   4.9778   5.2681   5.4012
     5.4951   5.6668   5.7819   6.1083   6.3951   6.4571   6.5219   6.7434
     6.8203   6.8453

          k = 0.2000 0.1155 0.0000 ( 88872 PWs)   bands (ev):

   -20.4835 -12.4848  -7.3026  -6.9266  -5.8151  -5.3277  -5.1577  -4.8678
    -4.7820  -4.7479  -4.5539  -4.5292  -4.4644  -4.4187  -4.4034  -4.3354
    -4.1965  -4.1595  -4.0848  -4.0332  -4.0181  -3.9692  -3.7991  -3.7112
    -3.6101  -3.6007  -3.5749  -3.5559  -3.5118  -3.4859  -3.4476  -3.4164
    -3.4012  -3.3828  -3.3393  -3.3081  -3.2807  -3.2245  -3.2117  -3.1947
    -3.1617  -3.0682  -3.0074  -2.9842  -2.9672  -2.9483  -2.7978  -2.7201
    -2.6960  -2.6567  -2.6283  -2.6189  -2.5887  -2.5004  -2.4604  -2.3973
    -2.3628  -2.3297  -2.3050  -2.2563  -2.2269  -2.0474  -1.9897  -1.9462
    -1.9112  -1.8974  -1.8845  -1.8339  -1.8084  -1.7844  -1.7462  -1.7395
    -1.7157  -1.6539  -1.6309  -1.6082  -1.5859  -1.5587  -1.5300  -1.4896
    -1.4729  -1.4548  -1.3931  -1.3792  -1.3635  -1.3393  -1.3212  -1.3050
    -1.2901  -1.2414  -1.2264  -1.2101  -1.1671  -1.1592  -1.1423  -1.1065
    -1.1000  -1.0570  -1.0401  -1.0229  -0.9916  -0.9843  -0.9589  -0.9388
    -0.9303  -0.9015  -0.8697  -0.8305  -0.8217  -0.7813  -0.7560  -0.7300
    -0.7074  -0.6893  -0.6750  -0.6338  -0.6279  -0.6040  -0.5820  -0.4384
    -0.3577  -0.3286  -0.2810  -0.2240  -0.2204  -0.1998  -0.1856  -0.1270
    -0.0545  -0.0091   0.0202   0.0544   0.1103   0.1241   0.1441   0.1766
     0.1829   0.2031   0.2339   0.2724   0.3022   0.3679   0.3869   0.3949
     0.4057   0.4311   0.4978   0.5520   0.5880   0.5956   0.6082   0.6575
     0.6883   0.7071   0.7679   0.7773   0.7883   0.7994   0.8478   0.8751
     0.9020   0.9175   0.9757   0.9891   1.0043   1.0190   1.0647   1.1108
     1.1402   1.1527   1.1925   1.2247   1.2595   1.2837   1.3008   1.3210
     1.3357   1.3585   1.3900   1.4076   1.4197   1.4338   1.4494   1.4874
     1.4920   1.5749   1.6086   1.6408   1.6544   1.6783   1.6980   1.7163
     1.7389   1.7531   1.7736   1.8116   1.8730   1.8987   1.9081   1.9634
     2.0630   2.0763   2.0826   2.2823   2.4327   2.5816   3.0413   3.2196
     3.3052   3.4230   3.8992   4.3660   4.6216   4.9777   5.2681   5.4012
     5.4951   5.6668   5.7819   6.1083   6.3951   6.4572   6.5218   6.7434
     6.8204   6.8459

          k = 0.2000 0.3464 0.0000 ( 88900 PWs)   bands (ev):

   -20.4835 -12.4842  -7.3096  -6.6389  -5.6546  -5.4219  -5.4035  -5.1844
    -4.8350  -4.5529  -4.3713  -4.3324  -4.3247  -4.3125  -4.2675  -4.2520
    -4.2157  -4.1478  -4.1160  -4.0877  -3.8560  -3.7690  -3.7557  -3.7329
    -3.7157  -3.6499  -3.6280  -3.5370  -3.5236  -3.4933  -3.4774  -3.4194
    -3.3981  -3.3691  -3.3484  -3.3330  -3.2845  -3.2600  -3.2410  -3.2097
    -3.1502  -3.1071  -2.9252  -2.8675  -2.7980  -2.7883  -2.7444  -2.7315
    -2.7071  -2.6842  -2.6550  -2.6336  -2.5872  -2.4993  -2.4799  -2.4074
    -2.3733  -2.3530  -2.3115  -2.2801  -2.2289  -2.2142  -2.1914  -2.1084
    -2.0224  -2.0088  -1.9817  -1.9500  -1.9149  -1.8856  -1.8614  -1.8441
    -1.8209  -1.7872  -1.6678  -1.6555  -1.6498  -1.6212  -1.5939  -1.5657
    -1.5399  -1.5079  -1.4785  -1.4375  -1.4058  -1.3598  -1.3410  -1.3295
    -1.3206  -1.2918  -1.2814  -1.2675  -1.2344  -1.2094  -1.2000  -1.1659
    -1.1427  -1.0760  -1.0685  -1.0498  -1.0309  -1.0032  -0.9805  -0.9615
    -0.9533  -0.9239  -0.9102  -0.9071  -0.8860  -0.8712  -0.8399  -0.8016
    -0.7557  -0.7367  -0.7080  -0.6807  -0.6213  -0.5798  -0.5693  -0.4843
    -0.4343  -0.3753  -0.3484  -0.2997  -0.2673  -0.2375  -0.2100  -0.1882
    -0.1545  -0.1461  -0.1079  -0.0762  -0.0613  -0.0193   0.0308   0.0702
     0.1338   0.1627   0.1775   0.2013   0.2204   0.2562   0.3274   0.3417
     0.3812   0.4116   0.4390   0.4825   0.5118   0.5520   0.5848   0.6220
     0.6566   0.6791   0.7178   0.7253   0.7461   0.7536   0.7766   0.7969
     0.8105   0.8462   0.9078   0.9661   1.0276   1.0391   1.0929   1.1764
     1.2434   1.2904   1.3097   1.3217   1.3705   1.4052   1.4281   1.4523
     1.4643   1.4989   1.5118   1.5185   1.5400   1.5523   1.5826   1.6002
     1.6458   1.6749   1.7010   1.7118   1.7398   1.7820   1.8364   1.9083
     1.9466   1.9738   2.0048   2.0219   2.0564   2.1257   2.1921   2.3603
     2.5807   2.7298   2.7473   3.0554   3.2099   3.2826   3.3077   3.6414
     3.7902   4.0574   4.1330   4.2024   4.2644   4.6009   5.0085   5.1288
     5.4005   5.4846   5.6955   5.7820   6.0141   6.1825   6.1992   6.3293
     6.4910   6.6295

          k = 0.2000-0.5774 0.0000 ( 88896 PWs)   bands (ev):

   -20.4835 -12.4838  -7.3123  -6.1287  -6.0922  -5.5593  -5.4362  -4.9534
    -4.8921  -4.6865  -4.4918  -4.3278  -4.2670  -4.1881  -4.1640  -4.0505
    -4.0368  -3.9439  -3.9305  -3.8911  -3.8662  -3.8208  -3.7959  -3.7839
    -3.7558  -3.7269  -3.6569  -3.6325  -3.5951  -3.5870  -3.5632  -3.5447
    -3.4583  -3.3619  -3.3291  -3.2597  -3.2401  -3.1975  -3.1893  -3.1709
    -3.1066  -3.0852  -3.0023  -2.9687  -2.8711  -2.7852  -2.7661  -2.7390
    -2.6818  -2.6101  -2.5796  -2.5688  -2.4666  -2.4403  -2.4328  -2.4016
    -2.3643  -2.2863  -2.2764  -2.2482  -2.2213  -2.1974  -2.1780  -2.1556
    -2.1436  -2.1118  -2.1027  -2.0603  -2.0384  -2.0260  -1.9441  -1.9290
    -1.8803  -1.8394  -1.8042  -1.7221  -1.7136  -1.6627  -1.6574  -1.6358
    -1.6116  -1.5858  -1.5312  -1.5148  -1.5049  -1.4609  -1.4359  -1.4120
    -1.3974  -1.3043  -1.3010  -1.2877  -1.2794  -1.2354  -1.1971  -1.1440
    -1.1141  -1.0836  -1.0614  -1.0402  -1.0256  -1.0160  -0.9947  -0.9797
    -0.9656  -0.9392  -0.9260  -0.8862  -0.8702  -0.8538  -0.8426  -0.8255
    -0.8151  -0.7947  -0.7672  -0.7145  -0.6149  -0.5540  -0.5129  -0.4783
    -0.4156  -0.3876  -0.3707  -0.3487  -0.2843  -0.2704  -0.2551  -0.2272
    -0.1997  -0.1891  -0.1405  -0.1318  -0.0870  -0.0465  -0.0026   0.0263
     0.0285   0.0795   0.1510   0.1814   0.2020   0.2630   0.3031   0.3476
     0.3729   0.3861   0.4217   0.4501   0.4599   0.4726   0.4991   0.5552
     0.5972   0.6162   0.6278   0.6580   0.6894   0.7187   0.7313   0.8317
     0.8423   0.9094   0.9652   1.0194   1.0406   1.1318   1.1534   1.1857
     1.2437   1.2838   1.2929   1.3341   1.3891   1.4211   1.4469   1.4652
     1.4813   1.5080   1.5545   1.5683   1.6353   1.6484   1.6601   1.6768
     1.6793   1.7091   1.7205   1.7914   1.8473   1.8568   1.9093   1.9331
     1.9432   1.9944   2.0074   2.0752   2.1723   2.5472   2.8966   2.9761
     3.0922   3.1067   3.3563   3.4038   3.4649   3.5145   3.7655   3.9577
     4.1143   4.1726   4.3909   4.5447   4.5712   4.6987   4.8385   4.9126
     4.9820   5.0340   5.2039   5.2982   5.4101   5.7023   5.9673   6.1153
     6.2341   6.3407

          k = 0.2000-0.3464 0.0000 ( 88900 PWs)   bands (ev):

   -20.4835 -12.4842  -7.3096  -6.6389  -5.6546  -5.4219  -5.4035  -5.1844
    -4.8350  -4.5530  -4.3713  -4.3324  -4.3247  -4.3124  -4.2675  -4.2519
    -4.2157  -4.1478  -4.1160  -4.0877  -3.8560  -3.7690  -3.7557  -3.7329
    -3.7157  -3.6499  -3.6280  -3.5370  -3.5236  -3.4933  -3.4774  -3.4194
    -3.3981  -3.3691  -3.3483  -3.3329  -3.2845  -3.2600  -3.2411  -3.2098
    -3.1501  -3.1071  -2.9252  -2.8675  -2.7980  -2.7883  -2.7444  -2.7315
    -2.7071  -2.6842  -2.6550  -2.6336  -2.5872  -2.4993  -2.4799  -2.4074
    -2.3733  -2.3530  -2.3115  -2.2801  -2.2289  -2.2142  -2.1914  -2.1085
    -2.0224  -2.0087  -1.9817  -1.9499  -1.9149  -1.8857  -1.8614  -1.8441
    -1.8209  -1.7872  -1.6677  -1.6555  -1.6498  -1.6212  -1.5939  -1.5657
    -1.5399  -1.5079  -1.4785  -1.4375  -1.4058  -1.3598  -1.3411  -1.3295
    -1.3206  -1.2918  -1.2814  -1.2676  -1.2345  -1.2094  -1.2000  -1.1659
    -1.1427  -1.0760  -1.0685  -1.0498  -1.0309  -1.0032  -0.9805  -0.9615
    -0.9533  -0.9239  -0.9103  -0.9071  -0.8860  -0.8712  -0.8399  -0.8016
    -0.7557  -0.7367  -0.7080  -0.6807  -0.6213  -0.5798  -0.5693  -0.4843
    -0.4343  -0.3753  -0.3485  -0.2996  -0.2673  -0.2375  -0.2101  -0.1882
    -0.1545  -0.1461  -0.1079  -0.0762  -0.0613  -0.0193   0.0309   0.0701
     0.1338   0.1627   0.1775   0.2013   0.2204   0.2563   0.3274   0.3417
     0.3812   0.4116   0.4390   0.4825   0.5118   0.5520   0.5848   0.6220
     0.6566   0.6791   0.7178   0.7253   0.7461   0.7537   0.7766   0.7969
     0.8106   0.8462   0.9078   0.9661   1.0276   1.0391   1.0929   1.1764
     1.2434   1.2904   1.3097   1.3217   1.3705   1.4052   1.4281   1.4523
     1.4643   1.4989   1.5118   1.5185   1.5400   1.5523   1.5826   1.6002
     1.6458   1.6749   1.7010   1.7118   1.7398   1.7820   1.8364   1.9083
     1.9466   1.9738   2.0048   2.0219   2.0564   2.1257   2.1921   2.3603
     2.5807   2.7298   2.7473   3.0554   3.2099   3.2826   3.3078   3.6414
     3.7902   4.0574   4.1330   4.2024   4.2644   4.6009   5.0084   5.1289
     5.4005   5.4847   5.6955   5.7820   6.0141   6.1825   6.1992   6.3293
     6.4911   6.6295

          k = 0.4000-0.2309 0.0000 ( 88924 PWs)   bands (ev):

   -20.4835 -12.4839  -7.3035  -6.5072  -5.8838  -5.5527  -5.1562  -4.8855
    -4.8173  -4.7891  -4.6249  -4.4444  -4.3764  -4.2448  -4.1540  -4.1101
    -4.0880  -4.0561  -3.9729  -3.8910  -3.8592  -3.8341  -3.8222  -3.7386
    -3.7054  -3.6806  -3.6475  -3.6343  -3.5993  -3.5665  -3.5431  -3.5031
    -3.4885  -3.4400  -3.2731  -3.2508  -3.2289  -3.2104  -3.1989  -3.1262
    -3.0120  -2.9895  -2.9808  -2.9646  -2.9270  -2.8546  -2.7564  -2.7106
    -2.6828  -2.6540  -2.6212  -2.6012  -2.5505  -2.5225  -2.5036  -2.4859
    -2.4594  -2.3618  -2.3094  -2.2947  -2.2757  -2.2319  -2.1512  -2.1363
    -2.1060  -2.0718  -2.0568  -2.0202  -1.9168  -1.8907  -1.8721  -1.8473
    -1.8164  -1.7461  -1.7376  -1.7233  -1.6733  -1.6152  -1.5854  -1.5416
    -1.5205  -1.4963  -1.4804  -1.4480  -1.4280  -1.4197  -1.3894  -1.3689
    -1.3610  -1.3399  -1.3222  -1.3073  -1.2936  -1.2515  -1.2123  -1.1965
    -1.1687  -1.1533  -1.1297  -1.0899  -1.0437  -1.0213  -0.9914  -0.9696
    -0.9420  -0.9139  -0.8944  -0.8644  -0.8305  -0.8075  -0.7450  -0.7011
    -0.6891  -0.6480  -0.6190  -0.5653  -0.5347  -0.4868  -0.4537  -0.4115
    -0.3935  -0.3474  -0.3124  -0.3008  -0.2907  -0.2448  -0.2216  -0.2054
    -0.1850  -0.1743  -0.1570  -0.1434  -0.0948  -0.0916  -0.0082   0.0058
     0.0484   0.0764   0.1023   0.1405   0.1550   0.2134   0.2981   0.3162
     0.3633   0.3888   0.4543   0.5069   0.5275   0.5530   0.6021   0.6154
     0.6455   0.6648   0.7080   0.7126   0.7301   0.7871   0.8211   0.8720
     0.9009   0.9080   0.9322   0.9475   0.9896   1.0404   1.1016   1.1616
     1.1733   1.1959   1.2137   1.2947   1.3103   1.3304   1.3369   1.3800
     1.4246   1.4630   1.4791   1.5038   1.5238   1.5989   1.6115   1.6461
     1.6603   1.6667   1.6792   1.7072   1.7371   1.8681   1.8906   1.9003
     1.9165   1.9198   2.0251   2.1494   2.1628   2.3142   2.4364   2.6021
     2.9085   2.9602   2.9837   3.1911   3.3241   3.5186   3.5760   3.7868
     4.0257   4.1871   4.2113   4.2837   4.4033   4.4888   4.6246   4.7691
     4.9143   5.1623   5.3378   5.5858   5.8720   6.0137   6.2162   6.5034
     6.6968   6.8295

          k = 0.4000-0.0000 0.0000 ( 88900 PWs)   bands (ev):

   -20.4835 -12.4841  -7.3015  -6.6454  -5.6410  -5.4244  -5.4108  -5.1897
    -4.8256  -4.5643  -4.3651  -4.3322  -4.3251  -4.2870  -4.2676  -4.2397
    -4.2196  -4.1402  -4.1017  -4.0906  -3.9080  -3.7560  -3.7437  -3.7298
    -3.6926  -3.6557  -3.5838  -3.5344  -3.5208  -3.5150  -3.4827  -3.4571
    -3.3890  -3.3802  -3.3538  -3.3468  -3.2688  -3.2644  -3.2459  -3.2191
    -3.1679  -3.0970  -3.0742  -2.8750  -2.8210  -2.7972  -2.7530  -2.7260
    -2.7017  -2.6960  -2.6409  -2.6229  -2.5191  -2.5015  -2.4807  -2.4026
    -2.3627  -2.3505  -2.2917  -2.2831  -2.2495  -2.2181  -2.2086  -2.0759
    -2.0410  -2.0228  -1.9863  -1.9628  -1.9231  -1.8833  -1.8691  -1.8435
    -1.8070  -1.7928  -1.6674  -1.6662  -1.6468  -1.6215  -1.5892  -1.5757
    -1.5311  -1.5036  -1.4698  -1.4394  -1.4096  -1.3722  -1.3464  -1.3370
    -1.3049  -1.2927  -1.2778  -1.2433  -1.2292  -1.2097  -1.1785  -1.1541
    -1.1120  -1.0791  -1.0713  -1.0401  -1.0262  -1.0058  -0.9922  -0.9727
    -0.9391  -0.9284  -0.9016  -0.8983  -0.8874  -0.8455  -0.8270  -0.8118
    -0.7638  -0.7230  -0.6955  -0.6371  -0.6115  -0.5836  -0.5663  -0.4856
    -0.4373  -0.3706  -0.3390  -0.2779  -0.2471  -0.2321  -0.2080  -0.1706
    -0.1612  -0.1450  -0.1045  -0.0825  -0.0413  -0.0055   0.0287   0.0986
     0.1380   0.1579   0.2009   0.2106   0.2361   0.2677   0.2798   0.3430
     0.3887   0.4088   0.4515   0.4634   0.5208   0.5559   0.5732   0.6003
     0.6436   0.6643   0.6889   0.7231   0.7483   0.7561   0.7801   0.7940
     0.8113   0.8475   0.8999   0.9571   1.0053   1.0136   1.0955   1.2029
     1.2426   1.2918   1.3069   1.3138   1.3550   1.4161   1.4378   1.4541
     1.4703   1.4884   1.5161   1.5243   1.5451   1.5549   1.5866   1.5890
     1.6477   1.6617   1.7008   1.7136   1.7365   1.7814   1.8714   1.8988
     1.9235   1.9684   2.0135   2.0400   2.0652   2.0975   2.1925   2.2336
     2.5891   2.6869   2.8729   2.9698   3.1566   3.2493   3.2856   3.6746
     3.8129   4.0546   4.1334   4.2078   4.3679   4.5346   4.9301   5.2988
     5.3991   5.5769   5.6749   5.7695   6.0466   6.1410   6.1834   6.2962
     6.3465   6.6433

          k = 0.4000 0.2309 0.0000 ( 88924 PWs)   bands (ev):

   -20.4835 -12.4839  -7.3035  -6.5072  -5.8838  -5.5527  -5.1562  -4.8855
    -4.8173  -4.7891  -4.6248  -4.4444  -4.3764  -4.2448  -4.1540  -4.1101
    -4.0880  -4.0561  -3.9729  -3.8910  -3.8592  -3.8341  -3.8222  -3.7386
    -3.7054  -3.6806  -3.6475  -3.6342  -3.5993  -3.5665  -3.5431  -3.5031
    -3.4885  -3.4400  -3.2731  -3.2508  -3.2290  -3.2104  -3.1989  -3.1262
    -3.0120  -2.9894  -2.9808  -2.9646  -2.9270  -2.8547  -2.7564  -2.7106
    -2.6827  -2.6540  -2.6212  -2.6012  -2.5506  -2.5225  -2.5036  -2.4858
    -2.4594  -2.3618  -2.3094  -2.2947  -2.2757  -2.2319  -2.1513  -2.1363
    -2.1060  -2.0718  -2.0568  -2.0202  -1.9169  -1.8907  -1.8721  -1.8473
    -1.8164  -1.7461  -1.7376  -1.7233  -1.6733  -1.6151  -1.5854  -1.5416
    -1.5205  -1.4964  -1.4804  -1.4480  -1.4280  -1.4197  -1.3894  -1.3689
    -1.3611  -1.3399  -1.3222  -1.3072  -1.2936  -1.2515  -1.2123  -1.1965
    -1.1687  -1.1533  -1.1297  -1.0898  -1.0437  -1.0213  -0.9914  -0.9696
    -0.9420  -0.9139  -0.8943  -0.8644  -0.8305  -0.8075  -0.7450  -0.7010
    -0.6891  -0.6480  -0.6190  -0.5653  -0.5347  -0.4868  -0.4537  -0.4115
    -0.3935  -0.3474  -0.3124  -0.3008  -0.2907  -0.2448  -0.2216  -0.2054
    -0.1850  -0.1743  -0.1570  -0.1434  -0.0948  -0.0916  -0.0082   0.0058
     0.0485   0.0764   0.1023   0.1405   0.1550   0.2134   0.2981   0.3162
     0.3633   0.3888   0.4543   0.5068   0.5275   0.5530   0.6021   0.6154
     0.6455   0.6648   0.7080   0.7126   0.7301   0.7871   0.8211   0.8720
     0.9009   0.9080   0.9322   0.9475   0.9896   1.0404   1.1016   1.1616
     1.1733   1.1959   1.2137   1.2947   1.3103   1.3304   1.3369   1.3800
     1.4247   1.4630   1.4791   1.5038   1.5239   1.5989   1.6115   1.6461
     1.6603   1.6667   1.6792   1.7072   1.7371   1.8681   1.8906   1.9003
     1.9165   1.9198   2.0251   2.1494   2.1628   2.3142   2.4364   2.6022
     2.9084   2.9602   2.9837   3.1911   3.3241   3.5186   3.5760   3.7867
     4.0257   4.1871   4.2113   4.2837   4.4034   4.4888   4.6246   4.7691
     4.9143   5.1623   5.3378   5.5858   5.8720   6.0138   6.2162   6.5035
     6.6969   6.8295

          k = 0.4000-0.6928 0.0000 ( 88896 PWs)   bands (ev):

   -20.4835 -12.4837  -7.3055  -6.1271  -6.1022  -5.5599  -5.4154  -4.9572
    -4.9341  -4.6682  -4.4535  -4.3210  -4.2799  -4.1809  -4.1411  -4.0623
    -4.0392  -3.9513  -3.9252  -3.8741  -3.8369  -3.8178  -3.7981  -3.7792
    -3.7633  -3.7330  -3.6860  -3.6093  -3.5991  -3.5892  -3.5582  -3.4995
    -3.4810  -3.4253  -3.3435  -3.2965  -3.2616  -3.2242  -3.1983  -3.1644
    -3.1438  -3.0965  -2.9898  -2.9627  -2.8990  -2.7793  -2.7716  -2.7302
    -2.6697  -2.6422  -2.5852  -2.5298  -2.4632  -2.4414  -2.4156  -2.3825
    -2.3618  -2.3217  -2.3025  -2.2661  -2.2206  -2.1936  -2.1767  -2.1528
    -2.1293  -2.1173  -2.0844  -2.0665  -2.0423  -2.0262  -1.9499  -1.9194
    -1.8655  -1.8408  -1.7698  -1.7297  -1.7184  -1.6825  -1.6616  -1.6361
    -1.6069  -1.5899  -1.5720  -1.5344  -1.5000  -1.4590  -1.4496  -1.3931
    -1.3541  -1.3121  -1.2934  -1.2859  -1.2657  -1.2261  -1.1719  -1.1226
    -1.1069  -1.0911  -1.0602  -1.0367  -1.0226  -1.0029  -0.9801  -0.9675
    -0.9498  -0.9397  -0.9249  -0.9024  -0.8691  -0.8572  -0.8360  -0.8229
    -0.8144  -0.7929  -0.7697  -0.6747  -0.5852  -0.5369  -0.5155  -0.4575
    -0.4434  -0.3784  -0.3724  -0.3417  -0.3026  -0.2937  -0.2581  -0.2453
    -0.2114  -0.1807  -0.1484  -0.1056  -0.0926  -0.0443   0.0027   0.0322
     0.0460   0.0862   0.1644   0.1985   0.2247   0.2499   0.3173   0.3451
     0.3816   0.3942   0.4403   0.4533   0.4653   0.4851   0.5302   0.5609
     0.5882   0.5989   0.6255   0.6709   0.6830   0.7114   0.7387   0.7763
     0.8404   0.9032   0.9758   0.9991   1.0417   1.1364   1.1527   1.1716
     1.1950   1.2786   1.2940   1.3331   1.3912   1.4161   1.4499   1.4835
     1.4921   1.5116   1.5464   1.5556   1.6269   1.6460   1.6499   1.6768
     1.6846   1.7096   1.7206   1.7894   1.8364   1.8734   1.9102   1.9304
     1.9384   1.9905   2.0128   2.1060   2.2030   2.3881   2.7964   3.0199
     3.0917   3.1395   3.3479   3.3981   3.4399   3.5692   3.7363   4.0006
     4.0931   4.2109   4.2924   4.5369   4.6424   4.6993   4.7957   4.8541
     4.9840   5.0686   5.2381   5.3747   5.5128   5.6503   6.0256   6.1161
     6.1796   6.2549

          k = 0.4000-0.4619 0.0000 ( 88896 PWs)   bands (ev):

   -20.4835 -12.4837  -7.3055  -6.1271  -6.1022  -5.5599  -5.4154  -4.9571
    -4.9342  -4.6682  -4.4534  -4.3210  -4.2800  -4.1809  -4.1411  -4.0623
    -4.0392  -3.9513  -3.9252  -3.8741  -3.8369  -3.8178  -3.7981  -3.7792
    -3.7633  -3.7330  -3.6860  -3.6093  -3.5991  -3.5892  -3.5582  -3.4995
    -3.4810  -3.4253  -3.3435  -3.2965  -3.2616  -3.2243  -3.1983  -3.1644
    -3.1438  -3.0965  -2.9898  -2.9627  -2.8990  -2.7794  -2.7716  -2.7302
    -2.6697  -2.6422  -2.5852  -2.5298  -2.4632  -2.4415  -2.4157  -2.3825
    -2.3617  -2.3216  -2.3025  -2.2661  -2.2206  -2.1937  -2.1767  -2.1528
    -2.1293  -2.1174  -2.0843  -2.0665  -2.0423  -2.0262  -1.9499  -1.9194
    -1.8655  -1.8407  -1.7698  -1.7296  -1.7185  -1.6826  -1.6616  -1.6361
    -1.6069  -1.5899  -1.5720  -1.5345  -1.5000  -1.4590  -1.4497  -1.3931
    -1.3541  -1.3121  -1.2934  -1.2859  -1.2657  -1.2261  -1.1719  -1.1226
    -1.1069  -1.0911  -1.0602  -1.0367  -1.0226  -1.0029  -0.9801  -0.9675
    -0.9498  -0.9397  -0.9249  -0.9024  -0.8691  -0.8572  -0.8360  -0.8229
    -0.8144  -0.7929  -0.7697  -0.6747  -0.5852  -0.5369  -0.5155  -0.4575
    -0.4434  -0.3784  -0.3723  -0.3417  -0.3026  -0.2937  -0.2581  -0.2453
    -0.2114  -0.1808  -0.1484  -0.1056  -0.0927  -0.0443   0.0027   0.0322
     0.0460   0.0862   0.1643   0.1985   0.2246   0.2499   0.3173   0.3451
     0.3816   0.3942   0.4403   0.4533   0.4653   0.4851   0.5302   0.5609
     0.5882   0.5989   0.6255   0.6709   0.6830   0.7114   0.7387   0.7762
     0.8403   0.9032   0.9758   0.9991   1.0417   1.1364   1.1527   1.1717
     1.1950   1.2786   1.2940   1.3331   1.3912   1.4161   1.4499   1.4835
     1.4921   1.5116   1.5464   1.5556   1.6269   1.6460   1.6499   1.6768
     1.6846   1.7096   1.7206   1.7894   1.8363   1.8734   1.9102   1.9304
     1.9384   1.9905   2.0128   2.1060   2.2029   2.3881   2.7964   3.0198
     3.0917   3.1395   3.3479   3.3981   3.4399   3.5692   3.7363   4.0006
     4.0931   4.2109   4.2924   4.5369   4.6424   4.6993   4.7958   4.8541
     4.9840   5.0686   5.2381   5.3747   5.5127   5.6502   6.0256   6.1161
     6.1795   6.2550

     the Fermi energy is     1.7144 ev

!    total energy              =  -27835.96241429 Ry

     total all-electron energy =  -1326947.102920 Ry
     estimated scf accuracy    <       0.00000043 Ry
     smearing contrib. (-TS)   =       0.00285263 Ry
     internal energy E=F+TS    =  -27835.96526693 Ry

     The total energy is F=E-TS. E is the sum of the following terms:
     one-electron contribution =  -27003.46601242 Ry
     hartree contribution      =   13803.94524436 Ry
     xc contribution           =    -908.00619394 Ry
     ewald contribution        =   11768.78563479 Ry
     one-center paw contrib.   =  -25497.22393972 Ry

     convergence has been achieved in  16 iterations

     negative rho (up, down):  1.329E-02 0.000E+00

     Forces acting on atoms (cartesian axes, Ry/au):

     atom    1 type  1   force =    -0.00218588   -0.00048114   -0.00517340
     atom    2 type  1   force =     0.00218135   -0.00047520   -0.00517210
     atom    3 type  1   force =    -0.00000623   -0.00032717   -0.00453422
     atom    4 type  1   force =     0.00000147    0.00131246   -0.00427650
     atom    5 type  1   force =    -0.00064403   -0.00007367   -0.00322671
     atom    6 type  1   force =     0.00063481   -0.00006663   -0.00323859
     atom    7 type  1   force =    -0.00001721    0.00068282   -0.00400283
     atom    8 type  1   force =    -0.00000445    0.00052017   -0.00337946
     atom    9 type  1   force =     0.00000434    0.00068294   -0.00399966
     atom   10 type  1   force =     0.00000706    0.00276793   -0.00472953
     atom   11 type  1   force =    -0.00303069    0.00149828    0.00514478
     atom   12 type  1   force =     0.00300383    0.00151004    0.00515341
     atom   13 type  1   force =    -0.00015584   -0.00317183    0.00529056
     atom   14 type  1   force =    -0.00001029    0.00039385    0.01064327
     atom   15 type  1   force =     0.00014804   -0.00315156    0.00529798
     atom   16 type  1   force =     0.00121060    0.00065382    0.00273651
     atom   17 type  1   force =    -0.00120892    0.00066454    0.00275463
     atom   18 type  1   force =    -0.00001965   -0.00024091    0.00113332
     atom   19 type  1   force =    -0.00004385    0.00004443    0.00010981
     atom   20 type  1   force =     0.00003587    0.00003867    0.00010004
     atom   21 type  1   force =     0.00000110    0.00006792    0.00013923
     atom   22 type  1   force =    -0.00001059   -0.00014222   -0.00005679
     atom   23 type  1   force =     0.00002027   -0.00001983   -0.00005746
     atom   24 type  1   force =    -0.00002286   -0.00001844   -0.00005980
     atom   25 type  1   force =     0.00004298   -0.00002759   -0.00008758
     atom   26 type  1   force =     0.00000172   -0.00005943    0.00027382
     atom   27 type  1   force =    -0.00006204   -0.00003012   -0.00009603
     atom   28 type  1   force =    -0.00006055    0.00007660    0.00003236
     atom   29 type  1   force =     0.00004386    0.00006784    0.00003174
     atom   30 type  1   force =    -0.00000695    0.00012914   -0.00000583
     atom   31 type  1   force =    -0.00000702    0.00000958    0.00006458
     atom   32 type  1   force =     0.00020646   -0.00039291    0.00060302
     atom   33 type  1   force =    -0.00020034   -0.00039205    0.00060064
     atom   34 type  1   force =    -0.00009703    0.00000064    0.00007717
     atom   35 type  1   force =    -0.00000139   -0.00033958    0.00008586
     atom   36 type  1   force =     0.00008732   -0.00000488    0.00007177
     atom   37 type  2   force =     0.00047844   -0.00667020    0.00839275
     atom   38 type  2   force =    -0.00030437   -0.00021058    0.00179962
     atom   39 type  3   force =    -0.00000629   -0.00008924   -0.00064972
     atom   40 type  4   force =    -0.00000305    0.00526349   -0.00779066

     Total force =     0.014452     Total SCF correction =     0.002025
     SCF correction compared to forces is large: reduce conv_thr to get better values

     negative rho (up, down):  1.329E-02 0.000E+00

     negative rho (up, down):  1.329E-02 0.000E+00

     negative rho (up, down):  1.329E-02 0.000E+00

     negative rho (up, down):  1.329E-02 0.000E+00

     negative rho (up, down):  1.329E-02 0.000E+00

     negative rho (up, down):  1.329E-02 0.000E+00

     negative rho (up, down):  1.329E-02 0.000E+00

     negative rho (up, down):  1.329E-02 0.000E+00

     negative rho (up, down):  1.329E-02 0.000E+00

     negative rho (up, down):  1.329E-02 0.000E+00

     negative rho (up, down):  1.329E-02 0.000E+00

     negative rho (up, down):  1.329E-02 0.000E+00

     negative rho (up, down):  1.329E-02 0.000E+00

     negative rho (up, down):  1.329E-02 0.000E+00

     negative rho (up, down):  1.329E-02 0.000E+00

     negative rho (up, down):  1.329E-02 0.000E+00

     negative rho (up, down):  1.329E-02 0.000E+00

     negative rho (up, down):  1.329E-02 0.000E+00

     negative rho (up, down):  1.329E-02 0.000E+00

     negative rho (up, down):  1.329E-02 0.000E+00

     negative rho (up, down):  1.329E-02 0.000E+00

     negative rho (up, down):  1.329E-02 0.000E+00

     negative rho (up, down):  1.329E-02 0.000E+00

     negative rho (up, down):  1.329E-02 0.000E+00

     negative rho (up, down):  1.329E-02 0.000E+00

     negative rho (up, down):  1.329E-02 0.000E+00

     negative rho (up, down):  1.329E-02 0.000E+00

     negative rho (up, down):  1.329E-02 0.000E+00

     negative rho (up, down):  1.329E-02 0.000E+00

     negative rho (up, down):  1.329E-02 0.000E+00

     negative rho (up, down):  1.329E-02 0.000E+00

     negative rho (up, down):  1.329E-02 0.000E+00

     negative rho (up, down):  1.329E-02 0.000E+00

     negative rho (up, down):  1.329E-02 0.000E+00
 BEEFens 2000 ensemble energies
             -0.607646297005197E+02
             -0.362561286512107E+01
             -0.158708637648298E+02
              0.430134848818137E+02
             -0.221489228774947E+02
             -0.205730959445710E+02
             -0.352750705495281E+02
             -0.866420376590077E+02
             -0.466205037410060E+02
             -0.473843950097250E+02
             -0.369862119696779E+02
              0.226014626153578E+01
              0.407421202090774E+01
              0.765338030725439E+01
              0.266655679411923E+01
              0.475654168618261E+02
             -0.209348350798796E+02
             -0.230978695716488E+02
              0.193150839479867E+02
             -0.112572730985231E+03
              0.537258700591683E+02
             -0.290342846663386E+02
             -0.335398807605318E+01
             -0.114346282031406E+02
             -0.887361640147242E+01
             -0.467832911231605E+01
              0.884291420790704E+02
             -0.186956933364543E+02
             -0.903971032438938E+01
             -0.519218153767654E+02
              0.817305107666941E+02
             -0.187991835967278E+02
             -0.375694532722323E+02
              0.249940600191705E+02
             -0.284873793448236E+01
              0.164081108660770E+02
             -0.486926760826469E+01
              0.108433680087505E+02
              0.288310763994096E+02
             -0.103476869419220E+03
              0.559233563330492E+02
              0.142518704456468E+02
             -0.169356508432196E+01
             -0.362350367086905E+02
              0.123319214443410E+02
             -0.146793115798592E+02
              0.399032215821734E+02
              0.365531631791170E+02
             -0.308820608926932E+02
             -0.275637340349542E+02
             -0.328805725776291E+02
             -0.352559831508424E+02
              0.136077180704359E+02
             -0.491832947543635E+02
              0.115699071979182E+02
              0.624066371143649E+02
              0.636171073425161E+02
              0.356440025065228E+02
              0.154552446562266E+02
              0.270717659971558E+02
              0.892743258816264E+02
              0.213373523930567E+02
             -0.549536637837890E+02
             -0.157440649374399E+02
             -0.236231800039267E+02
              0.631003748993262E+02
             -0.775062906114877E+02
             -0.672789749719824E+02
             -0.259508239624128E+02
             -0.643401783961735E+01
             -0.472020509283796E+02
              0.271107975269789E+02
              0.802233731164370E+01
              0.869109777211224E+01
             -0.397704714419981E+02
             -0.347465270631383E+02
             -0.542617772040945E+02
              0.391283485756430E+02
             -0.296364444659932E+02
              0.265296006509106E+02
             -0.714119575258605E+01
             -0.318676777268369E+02
             -0.577641499139430E+02
             -0.177040295012559E+02
             -0.907410049708938E+01
             -0.125238698359990E+02
              0.412793583324814E+02
              0.683490507951284E+02
             -0.386209294874507E+02
             -0.796157887910090E+02
             -0.219975850726501E+02
              0.111712856524644E+03
             -0.593193880999033E+02
              0.356736158739555E+02
             -0.958790044357295E+01
             -0.664519070630930E+02
              0.254901747904603E+02
              0.398948832554694E+02
             -0.199029577096618E+02
              0.400939373486154E+02
             -0.296601639484359E+02
             -0.478722647548824E+02
              0.867043856881946E+02
              0.454844274184436E+02
              0.337247326156153E+02
              0.146777740359552E+02
              0.205777899175615E+02
              0.857982677220597E+02
             -0.257060258370585E+02
              0.788354408201491E+01
             -0.142653376051840E+03
              0.181674561647087E+02
             -0.717497558383288E+02
              0.151159001692777E+02
              0.204931248703629E+02
             -0.333298782594463E+02
             -0.558222604655218E+02
              0.656683317637260E+01
             -0.304545794683611E+02
              0.308350174527308E+02
             -0.530700235114308E+02
              0.173032525663371E+01
             -0.357561096022586E+02
             -0.425363406984854E+01
             -0.106578495470649E+01
              0.181087287469102E+02
              0.142908539347809E+01
             -0.653747372574844E+01
              0.591079454679839E+02
              0.909705448106382E+02
              0.484844604754334E+02
              0.832100656927135E+02
             -0.115339900252288E+02
              0.143520773779835E+02
              0.542073693099038E+02
             -0.111382123638055E+02
             -0.736901545123856E+02
             -0.384446194028329E+02
             -0.522512286759753E+02
             -0.277153264142592E+02
              0.327655987809712E+02
             -0.116975323601382E+03
             -0.187474401380072E+02
              0.414717243955766E+02
             -0.386896763626780E+02
             -0.366122968120056E+02
              0.544675484144459E+02
              0.401451117367668E+02
             -0.354509100620745E+02
              0.137440470203376E+02
             -0.273502850581073E+02
              0.343752310152901E+02
              0.448292051624708E+01
              0.211658805972990E+02
             -0.886260643364053E+02
             -0.481061611597900E+02
             -0.996186761481329E+01
              0.325034205483431E+01
             -0.367279210206472E+02
              0.106178126187974E+03
             -0.231427198044340E+02
             -0.399264384172748E+02
              0.389650844621121E+02
             -0.495178698532055E+02
             -0.363716985617399E+02
              0.325258516307335E+02
              0.124570883392647E+02
              0.164678843460334E+02
              0.116489111661091E+02
             -0.133033501916080E+02
              0.225644992121424E+02
              0.591183718825383E+02
             -0.312319398477443E+02
              0.162703004695462E+02
              0.935885919701815E+02
              0.341201175226009E+02
             -0.730973239204604E+01
             -0.188800491751857E+02
              0.153591163094192E+03
             -0.164190051906536E+02
              0.363699731379109E+02
              0.194591529632037E+02
              0.362476082989087E+02
              0.893593669312619E+02
              0.543864026973281E+02
             -0.241697209004041E+01
              0.227979641506702E+02
              0.485567921731528E+02
              0.364228473918893E+02
             -0.526311064783953E+02
              0.937436188206726E+02
             -0.826890086016756E+02
             -0.198655080300157E+02
              0.583884666876306E+02
              0.673494783937686E+01
              0.790879219289889E+01
              0.341626999200695E+02
              0.299646426503456E+02
              0.354259256937978E+02
             -0.638718626023191E+02
              0.288685953003176E+01
             -0.298013848176062E+02
             -0.874173192805199E+01
             -0.145646453511586E+01
             -0.722432288698750E+01
             -0.415479953000749E+01
              0.860662536810934E+02
             -0.101283910524626E+02
             -0.276913141596395E+02
             -0.497483769495340E+01
              0.140097944181434E+02
             -0.564918135456197E+02
             -0.407510197796649E+02
             -0.382714696985909E+02
             -0.631262407079239E+02
             -0.169997927963517E+02
             -0.448179109342656E+02
              0.163795580071103E+02
             -0.241116908170527E+01
             -0.104527915679085E+02
             -0.936045245854700E+01
              0.809131235678154E+01
             -0.243485642826272E+02
              0.690293522324670E+02
             -0.808265131864985E+02
             -0.141312198337065E+02
             -0.174435555247954E+02
              0.182252178039120E+02
              0.214479796452352E+02
             -0.464542224769461E+02
             -0.202394395356874E+02
              0.441512555846362E+02
             -0.276633156538380E+02
              0.187170730731455E+02
              0.383561888949660E+02
             -0.322833773994250E+01
              0.114338415670614E+03
             -0.230776848570794E+02
             -0.341634648701937E+02
              0.580850548577280E+01
             -0.228449529398246E+02
              0.528481559552233E+02
             -0.337480871239550E+02
              0.106524665200461E+02
              0.641965550611856E+02
             -0.126538670669412E+02
              0.120426276265405E+03
              0.126076493432908E+03
             -0.650840899909640E+02
              0.591437405238117E+02
              0.166558285405603E+02
             -0.518502184018936E+02
              0.216655064392683E+02
              0.354139056745636E+02
              0.363117420521674E+02
              0.136143447466699E+01
              0.159596934805454E+02
              0.696619458483916E+02
             -0.247293244358302E+02
              0.181528513912895E+02
              0.740429548000816E+02
             -0.373242299682293E+02
             -0.129639394156662E+02
              0.509176594497226E+02
              0.297811375495824E+02
              0.781737742869933E+02
              0.222828010924266E+02
              0.623931841947439E+01
              0.280889003603333E+02
              0.383784025673361E+02
             -0.472112077024161E+02
              0.330345034823591E+01
              0.129583327784780E+02
              0.113873539001411E+02
              0.220756690019158E+02
             -0.575597023200524E+02
              0.366793101421656E+02
             -0.444683873562702E+02
             -0.347833093399940E+02
              0.178009444914265E+02
             -0.181795446235274E+02
              0.555752118375657E+02
             -0.256908432291484E+02
              0.267151122875305E+02
              0.368837298735162E+02
              0.830557348530146E+02
              0.575584724490177E+02
              0.462382357131295E+02
             -0.106172957683985E+02
             -0.390588407339607E+01
             -0.332526336729964E+02
              0.751644186100056E+02
              0.798455521952640E+02
              0.362418209100711E+02
             -0.192186358513995E+02
              0.512715134629237E+02
             -0.163255935645087E+02
              0.215382094246640E+02
              0.615309944173293E+02
              0.214826942980147E+01
             -0.104506630421985E+02
             -0.283600582916367E+02
             -0.512082544494077E+02
              0.946858679856791E+02
              0.440122978058598E+02
             -0.559812051635199E+02
             -0.964492141534541E+01
              0.250430060913037E+02
             -0.998890559697924E+01
              0.593055229237102E+02
              0.152469190215738E+02
              0.800521830357164E+02
              0.279699889500344E+02
             -0.264743215005906E+02
              0.249628721361410E+02
             -0.502730841638947E+01
             -0.324453311742352E+02
              0.133513976103502E+02
              0.206221153411428E+02
              0.934035184268689E+02
              0.798692675291925E+02
              0.551717626517332E+02
              0.732110312371021E+02
              0.800324185330609E+01
             -0.274163492626819E+02
              0.163414246119292E+02
             -0.368657006841554E+02
             -0.476881747016604E+02
             -0.564692309919338E+02
             -0.266932035472391E+02
             -0.109875814248334E+03
             -0.291716122919909E+02
             -0.838581835909324E+02
              0.210300714352389E+02
             -0.477797906858107E+02
              0.397267938870983E+02
             -0.942656467318818E+02
             -0.330586659669242E+02
              0.549757593217648E+02
              0.208097015417114E+02
             -0.831853531833399E+02
              0.632320008548099E+02
             -0.257117043359054E+02
              0.513278495692551E+02
             -0.243301976346116E+02
             -0.752621666817435E+02
              0.112214735091294E+02
             -0.612353399370430E+02
             -0.168705909380547E+02
             -0.147028981485359E+01
              0.419114879761230E+02
              0.127209471606663E+03
             -0.462584804064617E+02
             -0.363297935101249E+02
             -0.966323331661101E+00
             -0.130616045164929E+02
             -0.823949937120672E+02
             -0.597797704086884E+02
              0.518191365249165E+02
             -0.289600777853178E+02
              0.169354468675773E+02
             -0.490262921200581E+02
             -0.132011249353780E+02
             -0.437984860592196E+02
              0.566491788169183E+02
              0.151635570219725E+02
             -0.231988496012741E+02
             -0.126963456616335E+02
              0.667607492636564E+01
             -0.621085586959924E+01
              0.442420745111317E+02
             -0.252469888310171E+02
              0.273877173567473E+01
              0.339735406490536E+02
              0.171779775614492E+02
             -0.159811576818722E+02
              0.156534562435281E+03
              0.538585984364598E+02
              0.116803481445206E+01
              0.161960770312062E+02
             -0.615689275835013E+02
              0.315453183921613E+02
             -0.722906678201450E+02
             -0.252449616073840E+02
             -0.523479325988039E+02
             -0.220335072518269E+02
              0.569967446430026E+02
             -0.537882746714398E+02
              0.160955562857743E+02
             -0.407833374880397E+01
              0.389112724159673E+01
             -0.434651543715062E+02
             -0.479128101246972E+02
             -0.398225147037670E+01
             -0.426041309482548E+02
             -0.217736334545151E+02
             -0.439117304447258E+02
             -0.119547152438884E+02
             -0.359572673173629E+02
             -0.517452185591409E+02
              0.213278953351700E+02
             -0.209806970164156E+02
              0.187996512083437E+02
              0.977111811037951E+01
             -0.739146656986829E+02
             -0.549131471107465E+02
             -0.398528583630287E+02
              0.354999145988484E+02
              0.272131477591284E+01
             -0.627870158354897E+02
              0.586521031420327E+02
             -0.401799854126813E+02
              0.545559500545803E+02
             -0.289918213767918E+02
             -0.446810853429061E+02
              0.299227828219175E+02
             -0.658845970254086E+02
             -0.380654113546137E+02
              0.673869747359222E+02
              0.204239288105867E+02
             -0.360396397118108E+02
              0.490116261719775E+02
             -0.174251510365153E+02
             -0.323282279297780E+02
             -0.302358818940262E+02
             -0.501446434463863E+02
              0.249601643062760E+02
             -0.934502999880507E+02
             -0.841761159233918E+02
             -0.734863386584561E+01
             -0.307289965743773E+02
             -0.576411271622093E+02
              0.723042754275302E+02
              0.131738628684445E+03
             -0.361759084361506E+02
             -0.255031309330411E+01
             -0.638212447971754E+02
              0.651650473977335E+02
              0.170966630900559E+02
             -0.181706919837698E+02
             -0.410737545138871E+02
              0.148976925184037E+02
             -0.587258370868648E+02
             -0.198063503399698E+02
             -0.906374481236807E+02
              0.337489111440194E+02
              0.169361425839854E+02
              0.184666906773055E+01
             -0.704653765680257E+01
             -0.329912077865051E+02
             -0.758157097469893E+01
              0.125709742902142E+03
             -0.199404764602052E+02
             -0.437926248248226E+02
             -0.684983592299587E+02
              0.109334395938607E+02
             -0.342569788883108E+02
              0.590334465098505E+01
              0.261911978558238E+02
              0.102189443131266E+02
              0.278249989843496E+02
              0.119951594846085E+02
              0.630661862103264E+02
              0.317521747781492E+02
             -0.326988800795930E+02
              0.355918667514086E+02
              0.380158747002312E+02
              0.121112533045736E+02
              0.487774118752408E+02
             -0.224924535734949E+02
              0.767033703775535E+02
              0.172465866513369E+02
             -0.272620287671923E+02
             -0.723735524007039E+01
             -0.186634958745928E+02
              0.262428819517093E+02
             -0.235163562927590E+02
             -0.103914243536167E+00
             -0.850394251561511E+01
              0.811201202402179E+02
              0.500876088607299E+02
             -0.688570531613490E+02
             -0.475082355595080E+01
             -0.556517327096717E+02
             -0.159976095315013E+02
             -0.268622011085808E+02
              0.376097631337666E+01
              0.575369979741138E+00
             -0.257866594633074E+02
              0.813915501251381E+01
             -0.603923702943887E+01
             -0.128865234715408E+02
              0.860485201634221E+02
              0.182289067469482E+02
             -0.808136966384559E+02
             -0.459200580834256E+02
              0.946281367411453E+02
              0.278238807480419E+02
             -0.106982604196512E+02
              0.104732125989602E+03
             -0.195468200554363E+02
             -0.123293608423553E+02
             -0.538500338936728E+01
              0.107540547819532E+02
              0.272677540058607E+02
              0.781580065988445E+01
              0.305853954317952E+02
             -0.188416762014546E+02
             -0.303983224049105E+02
             -0.418462992822955E+02
             -0.477721357466791E+02
              0.464856921982575E+02
              0.127102470154044E+02
              0.388197427354586E+02
              0.133668955874813E+02
              0.856994313738726E+02
              0.156683920097661E+02
             -0.847412995314255E+02
             -0.334976734284338E+02
              0.134182005937769E+02
             -0.303333698066097E+02
              0.627513580898716E+02
             -0.888473293855691E+01
              0.149161236732271E+02
              0.497972199774736E+02
             -0.708517702417608E+02
              0.149993717947753E+03
              0.208952412433315E+02
              0.271764539767044E+02
              0.348109986615663E+02
              0.103933504162674E+02
             -0.158640889145158E+01
              0.359168375225911E+02
             -0.357563150945730E+02
              0.774445897787263E+02
              0.685819028519404E+02
             -0.406602901009583E+02
              0.149708965425028E+02
              0.671345918210604E+02
             -0.224399014011482E+02
              0.154482279600746E+02
              0.436082839158698E+02
              0.423127752764266E+02
             -0.786119005569370E+02
             -0.153044213753342E+02
             -0.356974647529919E+02
             -0.149140715326325E+01
             -0.764942416422284E+01
             -0.548022420568111E+01
             -0.181256929047961E+02
             -0.294071494958043E+02
              0.632262680172275E+01
              0.112056285549359E+02
              0.536523822338673E+02
             -0.390833767532031E+02
              0.374721379165298E+02
              0.439151320281539E+02
             -0.187267168418003E+02
              0.873999804177260E+02
             -0.699065373075227E+02
             -0.103363532939391E+03
             -0.659264325724940E+01
             -0.269637393082189E+01
              0.387126550376456E+01
              0.790681334888632E+02
             -0.107365286398863E+02
              0.417280477515157E+02
              0.444199084588296E+02
              0.386045360621462E+02
             -0.995525868893890E+01
              0.628913200765978E+02
             -0.133889644915387E+02
             -0.307855374421778E+02
             -0.480428842734009E+02
              0.587359995210616E+01
              0.370464252136015E+02
             -0.605052683412362E+01
              0.393922208175086E+02
             -0.177264612381532E+01
              0.656534095767685E+02
              0.187978201280351E+02
              0.999926889189916E+01
             -0.121964203301200E+02
              0.332834600984070E+02
              0.363318758672019E+02
              0.233267428072457E+02
             -0.514804787444575E+00
             -0.551386646026020E+02
              0.261216066559269E+02
              0.175516771577589E+02
              0.403479632406258E+02
              0.272825905521171E+02
              0.373081873641649E+02
             -0.605688172415671E+01
              0.251235007269042E+02
             -0.298951873049327E+02
             -0.197563932065930E+01
             -0.570297901643201E+02
             -0.308613431018592E+02
              0.379464574135590E+02
             -0.937248568352056E+02
              0.295086334865909E+02
              0.184317739554265E+02
              0.841521589486814E+02
             -0.301381735936245E+02
              0.329819982879627E+02
             -0.138018681326919E+02
             -0.464789949820008E+02
             -0.763234169468175E+02
             -0.525035838890891E+01
             -0.861344268438983E+02
              0.200271046243038E+02
             -0.247904663477156E+02
              0.306260560918216E+02
              0.237086408812061E+02
             -0.241373080032875E+02
             -0.265583034083537E+02
              0.391678414443478E+02
             -0.589042443936006E+02
             -0.116779918292696E+02
             -0.196469927711633E+02
              0.212879742859336E+02
             -0.895527816672967E+01
              0.364167226702301E+01
             -0.201111418573797E+02
              0.559816782966110E+02
             -0.439854405440365E+02
              0.790021353438908E+01
              0.586303476245885E+02
             -0.323805191998275E+02
              0.360043387241734E+01
             -0.884472319997235E+01
             -0.670812442482544E+02
             -0.483774696603586E+02
             -0.864124642950456E+01
              0.241115554048411E+02
              0.302770888567138E+02
              0.859839350133041E+01
             -0.415574807583505E+01
              0.152404886734706E+02
             -0.440866466419373E+02
              0.334721027417595E+01
             -0.531927597931543E+02
             -0.325245511769035E+02
              0.475507450958594E+02
             -0.295683282972990E+02
              0.623349192574371E+02
             -0.214822031369965E+02
              0.354505769207316E+02
              0.242141905964423E+02
             -0.645143800378517E+02
             -0.281128697696355E+02
              0.933464641504736E+01
             -0.372227393101248E+02
             -0.340268873640285E+02
             -0.831331888845732E+02
             -0.540368962790043E+02
             -0.511416900875247E+02
             -0.416331849092629E+02
             -0.976139624042332E+00
              0.996525394200060E+01
              0.100947385789112E+01
              0.153353899560765E+02
             -0.550344480311060E+02
              0.141969922929172E+02
              0.256741765927413E+02
             -0.667976368929767E+02
             -0.703248798121641E+02
             -0.431906208196781E+02
             -0.172110546340009E+02
              0.178980512843646E+02
              0.456499216130055E+01
             -0.426999065429707E+02
              0.367140528189514E+02
             -0.216381945008486E+02
              0.518368066427058E+02
             -0.888768132639496E+02
              0.598514788316860E+02
             -0.210374364739116E+01
             -0.368980048408741E+02
             -0.216987385454227E+02
              0.472429581287801E+01
              0.375328682594143E+02
             -0.757633907864153E+02
             -0.121113395569657E+02
             -0.216991010967679E+02
              0.512097398498422E+02
              0.866216104989013E+02
             -0.966762016268847E+02
              0.945774239069272E+02
              0.468799065175724E+02
             -0.726788473353314E+02
             -0.367371955929597E+02
              0.753139402615805E+02
              0.633110088341682E+02
             -0.181224764140229E+02
             -0.464448190840022E+01
              0.732929732360016E+01
              0.650124996270949E+02
             -0.509250648074673E+02
              0.158852748498957E+02
             -0.473146876788024E+01
              0.348524522227799E+02
             -0.748313005139158E+02
             -0.650448447742476E+01
             -0.351853060223687E+02
              0.461493117439237E+02
              0.469637565399640E+02
             -0.863260466123118E+02
             -0.488004801220851E+02
             -0.256727453047365E+02
             -0.339826011367815E+02
             -0.109639935050158E+02
             -0.243466490388255E+02
              0.428084413255120E+02
              0.401978499252801E+02
             -0.568043651732137E+01
             -0.416974847487711E+02
             -0.851751653843256E+02
              0.443778246636659E+02
             -0.524286903781610E+02
             -0.313417798776723E+02
              0.547875254374752E+01
             -0.323016233406468E+02
             -0.398743911038711E+02
             -0.240472437914819E+02
             -0.385871214345239E+02
             -0.271406376895018E+02
             -0.483481480410551E+02
              0.565067648780105E+02
              0.639469604237412E+02
             -0.170823847076417E+01
             -0.261779527649157E+02
             -0.626554564315188E+01
              0.441932912812124E+02
             -0.869589930399297E+02
             -0.146663286272855E+02
              0.524703617979567E+02
              0.664561920842130E+02
             -0.244974024451424E+02
              0.917663616058849E+01
              0.524334680661298E+02
              0.198434452232321E+02
             -0.832109063569931E+01
             -0.453919647467387E+02
              0.280948245211171E+02
             -0.353200601957342E+02
             -0.165269340489713E+02
             -0.153231355063447E+02
             -0.200640215216685E+02
              0.195053761457738E+02
              0.801576808562103E+02
              0.188271300950706E+01
              0.535503427125187E+01
             -0.889023249489300E+02
             -0.176076430384679E+02
             -0.353388368317870E+02
              0.278362446173219E+01
             -0.410233029836283E+02
              0.731665359625114E+02
[...]
              0.283950275261450E+02
              0.142054529570832E+03
              0.242595671814195E+02
              0.122781976494765E+02
             -0.465365036959509E+02
             -0.639034680243092E+02
             -0.189223011876265E+02
              0.329933875496986E+02
             -0.428004481957680E+01
              0.189984779483651E+02
              0.336629564417079E+02
             -0.587810084335627E+02
              0.222757545098507E+02
              0.583374699093350E+02
              0.554107611977914E+02
             -0.420792417091377E+01
             -0.138954330712932E+01
             -0.995043359673761E+01
             -0.483221053921916E+02
             -0.675991619311968E+02
              0.787001449817114E+02
             -0.524340008248583E+01
             -0.588963499884501E+02
              0.169944217460679E+01
             -0.205531772339294E+02
              0.939939318993160E+02
             -0.216790400256177E+02
             -0.354056288449472E+02
              0.335487837231673E+02
             -0.145884007000677E+02
              0.390244594075909E+02
             -0.241659713972405E+01
              0.101264238533300E+03
              0.490254636404556E+02
             -0.513680790657212E+01
             -0.322454186612558E+02
              0.232576102325046E+02
             -0.529399797591940E+02
             -0.128201347422767E+02
              0.586636386982690E+02
             -0.288105301147243E+02
             -0.439186044762777E+02
             -0.223474684931513E+02
              0.519606736769285E+02
              0.125184884766420E+02
             -0.850253031142161E+02
              0.304307033104205E+02
              0.152493618199078E+02
              0.576529092364962E+01
             -0.514222307896995E+02
             -0.378313433972198E+01
              0.323733491890345E+02
              0.513812108393388E+02
              0.633350303132966E+02
              0.229260928809561E+02
              0.785860098661487E+00
             -0.498582306991988E+02
             -0.510698825663522E+02
             -0.749327763572381E+02
             -0.613906524092181E+01
              0.309381577192432E+02
             -0.379044968279834E+01
              0.547771486102146E+02
             -0.318421908006958E+02
              0.166882846871770E+02
             -0.102511484511268E+02
             -0.289880078588936E+02
              0.586410909924255E+02
              0.793766718347990E+01
              0.604996546400346E+02
              0.509102916660856E+01
              0.265554536182319E+02
             -0.192980238149341E+02
              0.587165176414100E+02
             -0.111300397559572E+02
             -0.142911205619109E+00
             -0.791321275227260E+02
             -0.128597969881503E+02
              0.720249963077555E+02
              0.674428801079497E+02
              0.252097326875981E+02
             -0.130558066868254E+02
              0.342017489451581E+01
             -0.173605104931749E+02
             -0.202794140914111E+01
              0.908963680638631E+02
              0.123110806655814E+01
             -0.190632332684793E+02
             -0.110939634630403E+03
             -0.553830147582876E+02
             -0.375480693001037E+02
             -0.659818093796240E+02
             -0.556274457812546E+02
             -0.683757499698208E+02
             -0.447742792872425E+02
             -0.411648144431942E+02
             -0.452514742012613E+02
              0.484176094044096E+02
             -0.294857645196225E+02
             -0.997578047955790E+02
              0.419520415748541E+02
             -0.260318925720342E+02
             -0.792162238438443E+02
              0.945345407681673E+02
             -0.219922144855998E+02
              0.228545971848343E+02
              0.455894823040167E+02
             -0.138420880556799E+01
              0.254576181833082E+02
              0.469969140487032E+01
              0.414302549697531E+00
             -0.150644143710963E+02
             -0.716584381334077E+02
              0.133310095236197E+02
             -0.129605458316582E+03
              0.624715116804075E+02
             -0.441210970902711E+02
             -0.163018784573857E+02
             -0.158382490370302E+02
              0.713416990133573E+01
             -0.228117273930005E+02
              0.297729287760645E+02
             -0.521299376349579E+02
              0.367903380636532E+02
              0.371146705735853E+02
              0.168982266732393E+02
              0.100486151298636E+02
              0.198101531112243E+02
              0.621613808387661E+01
              0.310994957802424E+02
             -0.801127624494711E+01
             -0.592657341316142E+02
              0.758826303323485E+01
             -0.152843319607647E+02
             -0.192892315957982E+01
              0.506599271898071E+02
             -0.828138030954343E+02
             -0.151184653103530E+01
              0.569516706012337E+00
              0.996228144242195E+01
              0.319052134914854E+02
             -0.123828592047282E+02
              0.837038238933920E+02
              0.488751721881209E+02
             -0.183647153966940E+02
             -0.960358274449618E+01
              0.105235663710283E+01
              0.770820859591441E+02
             -0.587229249842345E+02
             -0.105928606076899E+03
              0.309537991415757E+02
             -0.163170929082510E+02
             -0.139438501284064E+02
              0.130785225951315E+02
              0.769776014790515E+02
              0.464932936470223E+02
             -0.153791279362947E+02
             -0.503614272127929E+02
             -0.548780835591066E+01
              0.306882856977502E+02
             -0.111633617488635E+02
             -0.756788561640840E+02
             -0.269576957462775E+01
             -0.891072474709981E+02
             -0.476187865308358E+02
              0.769415336421773E+02
             -0.484145122091133E+02
             -0.637360810570635E+02
             -0.515100886538514E+02
             -0.350187644856216E+02
              0.341173524695142E+02
              0.822676736402316E+02
             -0.354926392906805E+01
              0.277012774950140E+02
             -0.183870526968392E+02
             -0.694911164271582E+02
              0.465681555832007E+02
             -0.445535409977259E+02
              0.322373848151620E+02
              0.376979005810759E+02
             -0.655252496844236E+01
              0.391390768384739E+02
              0.439131149276227E+02
              0.100773603768767E+03
             -0.156454424413927E+02
             -0.456339630456421E+02
             -0.613749409322381E+02
             -0.124032116587170E+02
             -0.232967418923203E+02
              0.103189009410268E+03
             -0.449561153589931E+02
              0.105311085635198E+02
              0.974773319701541E+01
             -0.265144024121990E+02
             -0.799658900486839E+02
             -0.699663902098570E+01
              0.981197991508715E+02
              0.936848668613396E+01
              0.810325204081863E+01
             -0.527426569525532E+02
             -0.606367152356668E+02
             -0.562154339493644E+01
              0.501191943398641E+02
             -0.222133429122810E+02
              0.108136209573894E+03
             -0.435763458538169E+02
              0.146534864005818E+02
             -0.224819989199344E+02
             -0.719452144699760E+02
              0.168017898343265E+01
             -0.502279233474833E+02
             -0.761702905617585E+02
              0.615028866821547E+01
              0.237468577419560E+01
              0.514817806139524E+02
              0.187462392406294E+02
             -0.323948456242557E+02
              0.230415125738390E+02
             -0.811734516883392E+02
             -0.522672001983741E+02
              0.903050294332557E+02
              0.142832488457007E+02
             -0.188446454490399E+02
             -0.353025221325368E+02
             -0.269741067127393E+01
             -0.586922143603044E+01
              0.830941325128728E+02
              0.418134803898111E+02
             -0.166515311078891E+02
             -0.122257546863907E+02
             -0.428299638676800E+02
             -0.201172892489018E+02
             -0.671150550647303E+02
              0.460233804509570E+02
              0.546911354436457E+01
              0.145208629592563E+02
              0.156127880071377E+02
             -0.559663416095827E+00
             -0.168559553549676E+02
             -0.312486124729005E+01
             -0.100556325000474E+03
             -0.230227971767376E+02
             -0.763872026849901E+01
             -0.949903778295530E+01
              0.547567628810888E+02
              0.624481127442045E+02
              0.164978030146376E+02
             -0.971917604641322E+02
              0.648528103094311E+02
             -0.215328643964673E+02
             -0.377581146890604E+02
             -0.865423932408743E+02
             -0.387658559513138E+02
              0.564975873253786E+02
              0.244332847102307E+02
              0.513971183744570E+01
              0.292576758160080E+02
             -0.565667653549486E+02
             -0.422739832992672E+02
              0.515928638683530E+02
              0.387762691367509E+02
              0.519759119087183E+02
             -0.126193065618591E+01
              0.685170006337046E+01
              0.570238560255087E+02
              0.964128018158925E+02
             -0.300828655109488E+02
              0.323162599031739E+02
             -0.118151307723833E+02
             -0.412684108785402E+02
             -0.314600657193788E+02
             -0.300341087763276E+02
             -0.131547974489700E+02
             -0.524242753625386E+02
             -0.217713516723605E+02
             -0.141364958597256E+03
              0.369328773023681E+02
              0.207023028994856E+02
             -0.393582807632032E+01
             -0.380658643368581E+02
             -0.204705280266848E+02
             -0.527420737770373E+02
              0.151452021626100E+02
              0.821210058359829E+02
             -0.252480386750880E+02
             -0.163196686700493E+02
              0.238361367304612E+02
             -0.489823946757293E+02
              0.881790646915882E+02
              0.154754502915878E+02
              0.226764325958097E+02
              0.491112622919387E+02
              0.323603653453944E+01
              0.542873706277751E+02
              0.143134709688554E+02
             -0.106861918688861E+02
              0.733881909865542E+01
              0.814167912800485E+00
              0.728423727796743E+02
              0.101160262544775E+02
              0.120521478656450E+02
             -0.130112245884100E+02
              0.132454336476090E+02
             -0.912455664169379E+02
             -0.326444416522424E+02
             -0.457888786223770E+02
              0.486187026509555E+02
             -0.291416110550581E+02
             -0.659539156997809E+02
              0.539177078087682E+02
             -0.122266480812906E+02
              0.440746281782336E+02
             -0.900037330949974E+02
              0.232618558265827E+02
              0.859967691125161E+01
              0.582434230684214E+01
             -0.832157416877652E+01
             -0.904268749197411E+01
              0.480026108243019E+02
              0.200329400162536E+01
             -0.475573017516967E+02
             -0.176216518121466E+02
              0.277210148571698E+02
             -0.118089176734064E+03
             -0.931241614203219E+02
              0.397284075767226E+01
              0.117628879120113E+02
             -0.413540376516684E+02
             -0.390413488138353E+01
              0.112278288816082E+03
              0.307285168332876E+02
             -0.572393159463232E+02
              0.926760328546251E+01
             -0.965712695501237E+01
              0.105646276375825E+02
             -0.337937110338949E+02
              0.195434280293919E+02
              0.285021106319089E+02
             -0.301199937772390E+01
              0.108319914909190E+03
             -0.140541567913648E+02
             -0.316457248461049E+02
              0.143046887544550E+02
              0.467145554021178E+02
             -0.356456910827903E+02
             -0.318750521570293E+01
              0.965984727993570E+02
             -0.465893053293075E+01
              0.622426838912243E+02
              0.135634626312432E+02
             -0.905550961371937E+01
             -0.305855245648045E+02
              0.567600932419136E+02
             -0.514936145753946E+02
             -0.221816104020257E+01
             -0.170175974764311E+02
             -0.405884839199229E+02
              0.185079603644615E+02
              0.239339461181285E+02
              0.116360068292927E+02
              0.718119699357317E+00
             -0.384957251104430E+02
              0.215873355478646E+02
             -0.675329742009711E+01
             -0.247025474137283E+02
             -0.211024902348737E+02
              0.203892368116751E+02
             -0.597959248305222E+01
             -0.349640912124999E+02
             -0.106759118639969E+03
              0.102931190847653E+02
              0.249313642280648E+02
             -0.387709037783891E+02
             -0.211149580589355E+02
              0.808072438537844E+02
              0.649990607821826E+01
              0.311073878157339E+02
              0.390492793127538E+01
              0.322279940119837E+02
              0.646645880721542E+01
             -0.373529636875751E+02
             -0.228622102645548E+01
              0.878194375059752E+01
              0.274053492525172E+02
              0.783289997926485E+02
              0.508121079010864E+02
              0.174938067878429E+00
              0.169169991111745E+02
              0.613958342677742E+02
              0.236208965556406E+02
             -0.754077199218195E+02
             -0.274071227584825E+02
              0.151376438147234E+02
              0.563077196514365E+01
              0.255459496448248E+02
             -0.548618639737551E+02
              0.902403139356846E+01
              0.386278175810257E+02
              0.498730900839119E+02
             -0.435611185678884E+02
             -0.693955422351894E+01
             -0.208155633970819E+01
             -0.133977318543232E+02
             -0.366297240065580E+02
             -0.215681831215635E+02
             -0.199208558678744E+01
              0.793137590792628E+01
              0.421885215347144E+02
             -0.308799296381243E+02
              0.827247860627200E+02
              0.328083864857345E+02
              0.219975164887300E+02
              0.333300217537139E+02
              0.323816342066887E+02
              0.346293834490181E+02
              0.537953592276207E+02
             -0.434468473675249E+02
              0.620430797240319E+02
             -0.112398274231021E+03
              0.307859151262314E+02
             -0.106683227492300E+03
              0.855923966401651E+02
              0.691593286374250E+02
             -0.110076164291258E+02
             -0.494029222521003E+02
             -0.429985741690036E+02
             -0.624482868502944E+02
             -0.629471752449596E+02
              0.552500774584813E+02
              0.406134679250042E+02
              0.237228050347545E+02
              0.374563872328623E+02
              0.403482152357700E+02
             -0.382607831022863E+02
             -0.198183232400118E+02
              0.587307761752366E+02
             -0.116124999758819E+02
              0.552399571900251E+02
              0.700277895363146E+02
             -0.553594154255421E+01
             -0.707196695960995E+02
             -0.924837166382645E+00
             -0.245693294080843E+01
             -0.884048167397918E+01
             -0.179067335191371E+01
             -0.653961107940294E+02
             -0.211417716282834E+02
              0.538518229715618E+01
              0.897456895257366E+01
              0.469462391581331E+02
             -0.398216035578207E+02
              0.658701890964110E+02
             -0.425931120954374E+02
              0.210459378473253E+02
              0.350849834571346E+02
 
 BEEF-vdW xc energy contributions
           1 :   -784.146177205381     
           2 :    720.512673865842     
           3 :   -610.278692622162     
           4 :    480.387686585489     
           5 :   -358.268966420771     
           6 :    263.761770771872     
           7 :   -204.599211894392     
           8 :    176.346468454870     
           9 :   -166.385702790117     
          10 :    160.062980866973     
          11 :   -146.489653354496     
          12 :    121.804795528520     
          13 :   -89.0425398045091     
          14 :    55.2299224937321     
          15 :   -27.3979569659951     
          16 :    9.30894481691462     
          17 :  -0.163818624334795     
          18 :   -4.44255299282145     
          19 :    10.0240645281651     
          20 :   -20.4843915287348     
          21 :    36.4280705655805     
          22 :   -55.1700816178243     
          23 :    72.2708188340026     
          24 :   -83.7578456199763     
          25 :    87.9378939480960     
          26 :   -86.0026826168305     
          27 :    81.2488395923400     
          28 :   -77.3806736292557     
          29 :    76.7503429681304     
          30 :   -79.3675061830264     
          31 :   -85.9248825253715     
          32 :   -65.8808235298031     

     Writing output data file ./pwscf.save/
 
     init_run     :    307.61s CPU    312.01s WALL (       1 calls)
     electrons    :  10726.44s CPU  10833.45s WALL (       1 calls)
     forces       :     97.91s CPU     99.16s WALL (       1 calls)

     Called by init_run:
     wfcinit      :    258.67s CPU    262.07s WALL (       1 calls)
     potinit      :     45.59s CPU     45.90s WALL (       1 calls)
     hinit0       :      1.45s CPU      1.48s WALL (       1 calls)

     Called by electrons:
     c_bands      :   8972.81s CPU   9055.15s WALL (      17 calls)
     sum_band     :   1147.20s CPU   1158.36s WALL (      17 calls)
     v_of_rho     :    112.24s CPU    115.71s WALL (      17 calls)
     newd         :     26.46s CPU     36.85s WALL (      17 calls)
     PAW_pot      :    117.49s CPU    117.50s WALL (      17 calls)
     mix_rho      :    396.59s CPU    397.11s WALL (      17 calls)
     vdW_kernel   :     33.59s CPU     33.59s WALL (       1 calls)

     Called by c_bands:
     init_us_2    :     68.14s CPU     68.44s WALL (     468 calls)
     cegterg      :   8317.02s CPU   8398.99s WALL (     221 calls)

     Called by *egterg:
     cdiaghg      :     88.68s CPU     88.70s WALL (    1276 calls)
     h_psi        :   5173.39s CPU   5202.01s WALL (    1302 calls)
     s_psi        :    929.64s CPU    929.70s WALL (    1302 calls)
     g_psi        :     15.52s CPU     15.53s WALL (    1068 calls)

     Called by h_psi:
     h_psi:calbec :    875.38s CPU    875.59s WALL (    1302 calls)
     vloc_psi     :   3344.34s CPU   3345.27s WALL (    1302 calls)
     add_vuspsi   :    929.65s CPU    929.80s WALL (    1302 calls)

     General routines
     calbec       :   1273.64s CPU   1273.91s WALL (    1575 calls)
     fft          :     44.20s CPU     44.21s WALL (    3037 calls)
     ffts         :    125.42s CPU    125.44s WALL (    9754 calls)
     fftw         :   3437.74s CPU   3438.27s WALL (  300860 calls)
 
     Parallel routines
 
     PWSCF        :      3h 7m CPU      3h 9m WALL

 
   This run was terminated on:  17:58:48  20May2022            

=------------------------------------------------------------------------------=
   JOB DONE.
=------------------------------------------------------------------------------=
