
     Program PWSCF v.6.7MaX starts on 20May2022 at 14:49:58 

     This program is part of the open-source Quantum ESPRESSO suite
     for quantum simulation of materials; please cite
         "P. Giannozzi et al., J. Phys.:Condens. Matter 21 395502 (2009);
         "P. Giannozzi et al., J. Phys.:Condens. Matter 29 465901 (2017);
          URL http://www.quantum-espresso.org", 
     in publications or presentations arising from this work. More details at
     http://www.quantum-espresso.org/quote

     Parallel version (MPI), running on     1 processors

     MPI processes distributed on     1 nodes
     Reading input from c3h3-ensemble.in
Warning: card &CELL ignored
Warning: card / ignored

     Current dimensions of program PWSCF are:
     Max number of different atomic species (ntypx) = 10
     Max number of k-points (npk) =  40000
     Max angular momentum in pseudopotentials (lmaxx) =  3
     file Pt.pbe-n-kjpaw_psl.1.0.0.UPF: wavefunction(s)  6S 5D renormalized
     file C.pbe-n-kjpaw_psl.1.0.0.UPF: wavefunction(s)  2S 2P renormalized
     file H.pbe-kjpaw_psl.1.0.0.UPF: wavefunction(s)  1S renormalized

     **************************************************************************
     Initializing libbeef V0.1.2 with the BEEF-vdW functional.
     Citation: Wellendorff et al., PRB 85, 235149 (2012).
     **************************************************************************


     IMPORTANT: XC functional enforced from input :
     Exchange-correlation= BEEF-VDW
                           (   1   4  43  14   2   0   0)
     Any further DFT definition will be discarded
     Please, verify this is what you really want


     Subspace diagonalization in iterative solution of the eigenvalue problem:
     a serial algorithm will be used

 
     G-vector sticks info
     --------------------
     sticks:   dense  smooth     PW     G-vecs:    dense   smooth      PW
     Sum        4267    4267   1159               754533   754533  106297
 


     bravais-lattice index     =            0
     lattice parameter (alat)  =      16.0349  a.u.
     unit-cell volume          =   12012.3507 (a.u.)^3
     number of atoms/cell      =           42
     number of atomic types    =            3
     number of electrons       =       375.00
     number of Kohn-Sham states=          226
     kinetic-energy cutoff     =      60.0000  Ry
     charge density cutoff     =     240.0000  Ry
     scf convergence threshold =      1.0E-06
     mixing beta               =       0.7000
     number of iterations used =            8  local-TF  mixing
     Exchange-correlation= BEEF-VDW
                           (   1   4  43  14   2   0   0)

     celldm(1)=  16.034858  celldm(2)=   0.000000  celldm(3)=   0.000000
     celldm(4)=   0.000000  celldm(5)=   0.000000  celldm(6)=   0.000000

     crystal axes: (cart. coord. in units of alat)
               a(1) = (   1.000000   0.000000   0.000000 )  
               a(2) = (   0.500000   0.866025   0.000000 )  
               a(3) = (   0.000000   0.000000   3.364357 )  

     reciprocal axes: (cart. coord. in units 2 pi/alat)
               b(1) = (  1.000000 -0.577350  0.000000 )  
               b(2) = (  0.000000  1.154701  0.000000 )  
               b(3) = (  0.000000  0.000000  0.297234 )  


     PseudoPot. # 1 for Pt read from file:
     /users/bkreitz1/quantum-espresso/potentials/Pt.pbe-n-kjpaw_psl.1.0.0.UPF
     MD5 check sum: 04dc8a03c51ece93fc7b5889c2958091
     Pseudo is Projector augmented-wave + core cor, Zval = 10.0
     Generated using 'atomic' code by A. Dal Corso  v.6.7MaX
     Shape of augmentation charge: PSQ
     Using radial grid of 1277 points,  6 beta functions with: 
                l(1) =   0
                l(2) =   0
                l(3) =   1
                l(4) =   1
                l(5) =   2
                l(6) =   2
     Q(r) pseudized with 0 coefficients 


     PseudoPot. # 2 for C  read from file:
     /users/bkreitz1/quantum-espresso/potentials/C.pbe-n-kjpaw_psl.1.0.0.UPF
     MD5 check sum: a169b0ebad56f5ec0d79c4633f80bf22
     Pseudo is Projector augmented-wave + core cor, Zval =  4.0
     Generated using 'atomic' code by A. Dal Corso  v.6.7MaX
     Shape of augmentation charge: PSQ
     Using radial grid of 1073 points,  4 beta functions with: 
                l(1) =   0
                l(2) =   0
                l(3) =   1
                l(4) =   1
     Q(r) pseudized with 0 coefficients 


     PseudoPot. # 3 for H  read from file:
     /users/bkreitz1/quantum-espresso/potentials/H.pbe-kjpaw_psl.1.0.0.UPF
     MD5 check sum: ae98473e6dc62675f0d0baffdab24f65
     Pseudo is Projector augmented-wave, Zval =  1.0
     Generated using 'atomic' code by A. Dal Corso  v.6.7MaX
     Shape of augmentation charge: PSQ
     Using radial grid of  929 points,  2 beta functions with: 
                l(1) =   0
                l(2) =   0
     Q(r) pseudized with 0 coefficients 


     atomic species   valence    mass     pseudopotential
        Pt            10.00   195.08400     Pt( 1.00)
        C              4.00    12.01100     C ( 1.00)
        H              1.00     1.00800     H ( 1.00)

     No symmetry found



   Cartesian axes

     site n.     atom                  positions (alat units)
         1           Pt  tau(   1) = (   0.0000000   0.0000000   1.0017346  )
         2           Pt  tau(   2) = (   0.3333333   0.0000000   1.0017346  )
         3           Pt  tau(   3) = (   0.6666667   0.0000000   1.0017346  )
         4           Pt  tau(   4) = (   0.1666667   0.2886751   1.0017346  )
         5           Pt  tau(   5) = (   0.5000000   0.2886751   1.0017346  )
         6           Pt  tau(   6) = (   0.8333333   0.2886751   1.0017346  )
         7           Pt  tau(   7) = (   0.3333333   0.5773503   1.0017346  )
         8           Pt  tau(   8) = (   0.6666667   0.5773503   1.0017346  )
         9           Pt  tau(   9) = (   1.0000000   0.5773503   1.0017346  )
        10           Pt  tau(  10) = (   0.1666667   0.0962250   1.2739001  )
        11           Pt  tau(  11) = (   0.5000000   0.0962250   1.2739001  )
        12           Pt  tau(  12) = (   0.8333333   0.0962250   1.2739001  )
        13           Pt  tau(  13) = (   0.3333333   0.3849002   1.2739001  )
        14           Pt  tau(  14) = (   0.6666667   0.3849002   1.2739001  )
        15           Pt  tau(  15) = (   1.0000000   0.3849002   1.2739001  )
        16           Pt  tau(  16) = (   0.5000000   0.6735753   1.2739001  )
        17           Pt  tau(  17) = (   0.8333333   0.6735753   1.2739001  )
        18           Pt  tau(  18) = (   1.1666667   0.6735753   1.2739001  )
        19           Pt  tau(  19) = (   0.0007938   0.1920949   1.5461313  )
        20           Pt  tau(  20) = (   0.3325710   0.1921931   1.5456260  )
        21           Pt  tau(  21) = (   0.6666651   0.1923282   1.5423229  )
        22           Pt  tau(  22) = (   0.1665385   0.4791286   1.5455107  )
        23           Pt  tau(  23) = (   0.4997489   0.4812412   1.5423050  )
        24           Pt  tau(  24) = (   0.8334884   0.4812460   1.5423082  )
        25           Pt  tau(  25) = (   0.3348934   0.7708108   1.5452718  )
        26           Pt  tau(  26) = (   0.6664163   0.7706146   1.5455836  )
        27           Pt  tau(  27) = (   0.9982813   0.7707793   1.5453544  )
        28           Pt  tau(  28) = (  -0.0032905  -0.0016332   1.8330132  )
        29           Pt  tau(  29) = (   0.3376787  -0.0027952   1.8316869  )
        30           Pt  tau(  30) = (   0.6668970   0.0000581   1.8172696  )
        31           Pt  tau(  31) = (   0.1669301   0.2919880   1.8339888  )
        32           Pt  tau(  32) = (   0.5029263   0.2904128   1.8164874  )
        33           Pt  tau(  33) = (   0.8304200   0.2904602   1.8167901  )
        34           Pt  tau(  34) = (   0.3332580   0.5773149   1.8171702  )
        35           Pt  tau(  35) = (   0.6666242   0.5739326   1.8163776  )
        36           Pt  tau(  36) = (   1.0002028   0.5770180   1.8174612  )
        37           C   tau(  37) = (   0.1702298   0.0941013   1.9672694  )
        38           C   tau(  38) = (   0.1575139   0.0957913   2.1378865  )
        39           C   tau(  39) = (   0.2487429   0.0110963   2.2362886  )
        40           H   tau(  40) = (   0.0652009   0.1714331   2.1849111  )
        41           H   tau(  41) = (   0.2317686   0.0172485   2.3626220  )
        42           H   tau(  42) = (   0.3410219  -0.0653711   2.1932514  )

     number of k points=    13  Marzari-Vanderbilt smearing, width (Ry)=  0.0200
                       cart. coord. in units 2pi/alat
        k(    1) = (   0.0000000   0.0000000   0.0000000), wk =   0.0800000
        k(    2) = (   0.0000000   0.2309401   0.0000000), wk =   0.1600000
        k(    3) = (   0.0000000   0.4618802   0.0000000), wk =   0.1600000
        k(    4) = (   0.2000000  -0.1154701   0.0000000), wk =   0.1600000
        k(    5) = (   0.2000000   0.1154701   0.0000000), wk =   0.1600000
        k(    6) = (   0.2000000   0.3464102   0.0000000), wk =   0.1600000
        k(    7) = (   0.2000000  -0.5773503   0.0000000), wk =   0.1600000
        k(    8) = (   0.2000000  -0.3464102   0.0000000), wk =   0.1600000
        k(    9) = (   0.4000000  -0.2309401   0.0000000), wk =   0.1600000
        k(   10) = (   0.4000000  -0.0000000   0.0000000), wk =   0.1600000
        k(   11) = (   0.4000000   0.2309401   0.0000000), wk =   0.1600000
        k(   12) = (   0.4000000  -0.6928203   0.0000000), wk =   0.1600000
        k(   13) = (   0.4000000  -0.4618802   0.0000000), wk =   0.1600000

     Dense  grid:   754533 G-vectors     FFT dimensions: (  80,  80, 270)

     Estimated max dynamical RAM per process >       9.16 GB

     Check: negative core charge=   -0.000002

     Initial potential from superposition of free atoms

     starting charge  374.99374, renormalised to  375.00000

     negative rho (up, down):  1.153E-02 0.000E+00


     %%%%%%%%%%%%%%%%%%%%%%%%%%%%%%%%%%%%%%%%%%%%%%%%%%%%%%%%%%%%%%%%%%%%%%%%
     %                                                                      %
     % You are using vdW-DF, which was implemented by the Thonhauser group. %
     % Please cite the following two papers that made this development      %
     % possible and the two reviews that describe the various versions:     %
     %                                                                      %
     %   T. Thonhauser et al., PRL 115, 136402 (2015).                      %
     %   T. Thonhauser et al., PRB 76, 125112 (2007).                       %
     %   K. Berland et al., Rep. Prog. Phys. 78, 066501 (2015).             %
     %   D.C. Langreth et al., J. Phys.: Condens. Matter 21, 084203 (2009). %
     %                                                                      %
     %                                                                      %
     % If you are calculating the stress with vdW-DF, please also cite:     %
     %                                                                      %
     %   R. Sabatini et al., J. Phys.: Condens. Matter 24, 424209 (2012).   %
     %                                                                      %
     %%%%%%%%%%%%%%%%%%%%%%%%%%%%%%%%%%%%%%%%%%%%%%%%%%%%%%%%%%%%%%%%%%%%%%%%


     Starting wfcs are  339 randomized atomic wfcs
     Checking if some PAW data can be deallocated... 

     total cpu time spent up to now is      347.0 secs

     Self-consistent Calculation

     iteration #  1     ecut=    60.00 Ry     beta= 0.70
     Davidson diagonalization with overlap
     ethr =  1.00E-02,  avg # of iterations =  2.1

     negative rho (up, down):  1.318E-02 0.000E+00

     total cpu time spent up to now is      980.9 secs

     total energy              =  -27814.09113996 Ry
     estimated scf accuracy    <       4.53064965 Ry

     iteration #  2     ecut=    60.00 Ry     beta= 0.70
     Davidson diagonalization with overlap
     ethr =  1.21E-03,  avg # of iterations =  2.2

     negative rho (up, down):  1.087E-02 0.000E+00

     total cpu time spent up to now is     1628.7 secs

     total energy              =  -27814.68681662 Ry
     estimated scf accuracy    <       1.01336690 Ry

     iteration #  3     ecut=    60.00 Ry     beta= 0.70
     Davidson diagonalization with overlap
     ethr =  2.70E-04,  avg # of iterations = 10.8

     negative rho (up, down):  8.222E-03 0.000E+00

     total cpu time spent up to now is     2469.2 secs

     total energy              =  -27814.83105408 Ry
     estimated scf accuracy    <       0.53394394 Ry

     iteration #  4     ecut=    60.00 Ry     beta= 0.70
     Davidson diagonalization with overlap
     ethr =  1.42E-04,  avg # of iterations =  2.8

     negative rho (up, down):  5.672E-03 0.000E+00

     total cpu time spent up to now is     3107.9 secs

     total energy              =  -27814.87615037 Ry
     estimated scf accuracy    <       0.13983394 Ry

     iteration #  5     ecut=    60.00 Ry     beta= 0.70
     Davidson diagonalization with overlap
     c_bands:  1 eigenvalues not converged
     ethr =  3.73E-05,  avg # of iterations = 10.5

     negative rho (up, down):  3.673E-03 0.000E+00

     total cpu time spent up to now is     4009.1 secs

     total energy              =  -27814.90089590 Ry
     estimated scf accuracy    <       0.09979425 Ry

     iteration #  6     ecut=    60.00 Ry     beta= 0.70
     Davidson diagonalization with overlap
     c_bands:  2 eigenvalues not converged
     ethr =  2.66E-05,  avg # of iterations =  3.4

     negative rho (up, down):  3.150E-03 0.000E+00

     total cpu time spent up to now is     4639.6 secs

     total energy              =  -27814.90645889 Ry
     estimated scf accuracy    <       0.00958638 Ry

     iteration #  7     ecut=    60.00 Ry     beta= 0.70
     Davidson diagonalization with overlap
     c_bands:  2 eigenvalues not converged
     c_bands:  3 eigenvalues not converged
     c_bands:  2 eigenvalues not converged
     c_bands:  3 eigenvalues not converged
     c_bands:  1 eigenvalues not converged
     ethr =  2.56E-06,  avg # of iterations = 17.0

     negative rho (up, down):  3.045E-03 0.000E+00

     total cpu time spent up to now is     5734.9 secs

     total energy              =  -27814.91018129 Ry
     estimated scf accuracy    <       0.00549694 Ry

     iteration #  8     ecut=    60.00 Ry     beta= 0.70
     Davidson diagonalization with overlap
     ethr =  1.47E-06,  avg # of iterations =  9.8

     negative rho (up, down):  3.228E-03 0.000E+00

     total cpu time spent up to now is     6417.5 secs

     total energy              =  -27814.91066617 Ry
     estimated scf accuracy    <       0.00204056 Ry

     iteration #  9     ecut=    60.00 Ry     beta= 0.70
     Davidson diagonalization with overlap
     ethr =  5.44E-07,  avg # of iterations =  9.3

     negative rho (up, down):  3.797E-03 0.000E+00

     total cpu time spent up to now is     7097.7 secs

     total energy              =  -27814.91082515 Ry
     estimated scf accuracy    <       0.00127245 Ry

     iteration # 10     ecut=    60.00 Ry     beta= 0.70
     Davidson diagonalization with overlap
     ethr =  3.39E-07,  avg # of iterations =  4.9

     negative rho (up, down):  5.020E-03 0.000E+00

     total cpu time spent up to now is     7726.5 secs

     total energy              =  -27814.91087250 Ry
     estimated scf accuracy    <       0.00095085 Ry

     iteration # 11     ecut=    60.00 Ry     beta= 0.70
     Davidson diagonalization with overlap
     ethr =  2.54E-07,  avg # of iterations =  4.2

     negative rho (up, down):  8.912E-03 0.000E+00

     total cpu time spent up to now is     8348.9 secs

     total energy              =  -27814.91082589 Ry
     estimated scf accuracy    <       0.00074598 Ry

     iteration # 12     ecut=    60.00 Ry     beta= 0.70
     Davidson diagonalization with overlap
     ethr =  1.99E-07,  avg # of iterations =  3.7

     negative rho (up, down):  1.026E-02 0.000E+00

     total cpu time spent up to now is     8965.8 secs

     total energy              =  -27814.91083240 Ry
     estimated scf accuracy    <       0.00051445 Ry

     iteration # 13     ecut=    60.00 Ry     beta= 0.70
     Davidson diagonalization with overlap
     ethr =  1.37E-07,  avg # of iterations =  1.0

     negative rho (up, down):  1.127E-02 0.000E+00

     total cpu time spent up to now is     9516.4 secs

     total energy              =  -27814.91083646 Ry
     estimated scf accuracy    <       0.00033168 Ry

     iteration # 14     ecut=    60.00 Ry     beta= 0.70
     Davidson diagonalization with overlap
     ethr =  8.84E-08,  avg # of iterations =  2.0

     negative rho (up, down):  1.264E-02 0.000E+00

     total cpu time spent up to now is    10120.0 secs

     total energy              =  -27814.91084219 Ry
     estimated scf accuracy    <       0.00010595 Ry

     iteration # 15     ecut=    60.00 Ry     beta= 0.70
     Davidson diagonalization with overlap
     ethr =  2.83E-08,  avg # of iterations =  2.3

     negative rho (up, down):  1.316E-02 0.000E+00

     total cpu time spent up to now is    10758.2 secs

     total energy              =  -27814.91085059 Ry
     estimated scf accuracy    <       0.00001857 Ry

     iteration # 16     ecut=    60.00 Ry     beta= 0.70
     Davidson diagonalization with overlap
     ethr =  4.95E-09,  avg # of iterations =  4.2

     negative rho (up, down):  1.295E-02 0.000E+00

     total cpu time spent up to now is    11666.4 secs

     total energy              =  -27814.91085847 Ry
     estimated scf accuracy    <       0.00001072 Ry

     iteration # 17     ecut=    60.00 Ry     beta= 0.70
     Davidson diagonalization with overlap
     c_bands:  1 eigenvalues not converged
     ethr =  2.86E-09,  avg # of iterations =  3.4

     negative rho (up, down):  1.326E-02 0.000E+00

     total cpu time spent up to now is    12290.5 secs

     total energy              =  -27814.91085872 Ry
     estimated scf accuracy    <       0.00000604 Ry

     iteration # 18     ecut=    60.00 Ry     beta= 0.70
     Davidson diagonalization with overlap
     ethr =  1.61E-09,  avg # of iterations =  1.2

     negative rho (up, down):  1.316E-02 0.000E+00

     total cpu time spent up to now is    12855.5 secs

     total energy              =  -27814.91085942 Ry
     estimated scf accuracy    <       0.00000136 Ry

     iteration # 19     ecut=    60.00 Ry     beta= 0.70
     Davidson diagonalization with overlap
     ethr =  3.63E-10,  avg # of iterations =  2.9

     negative rho (up, down):  1.301E-02 0.000E+00

     total cpu time spent up to now is    13540.9 secs

     End of self-consistent calculation

          k = 0.0000 0.0000 0.0000 ( 94393 PWs)   bands (ev):

   -13.8433 -10.8273  -7.9294  -7.1122  -5.9965  -5.7022  -5.0545  -4.8281
    -4.7790  -4.7507  -4.7421  -4.7262  -4.7041  -4.6986  -4.5696  -4.4677
    -4.2466  -4.1942  -4.1821  -4.1794  -4.1286  -4.0595  -3.9283  -3.7406
    -3.7390  -3.7319  -3.6391  -3.5743  -3.5448  -3.5172  -3.5151  -3.5119
    -3.4217  -3.3908  -3.3849  -3.3126  -3.3084  -3.2971  -3.2783  -3.2545
    -3.2326  -3.2310  -3.2089  -3.1995  -3.1916  -2.8832  -2.7956  -2.7105
    -2.6620  -2.6552  -2.6506  -2.6181  -2.6162  -2.5839  -2.5796  -2.5731
    -2.4337  -2.4151  -2.3939  -2.3484  -2.2934  -2.2141  -1.9300  -1.9245
    -1.8733  -1.8489  -1.8479  -1.8005  -1.7763  -1.7031  -1.6865  -1.6672
    -1.6598  -1.6527  -1.6493  -1.6422  -1.6110  -1.6027  -1.6009  -1.5681
    -1.5532  -1.5491  -1.5393  -1.5385  -1.4938  -1.4710  -1.4547  -1.4428
    -1.4366  -1.4349  -1.2564  -1.2559  -1.2378  -1.2099  -1.2029  -1.2020
    -1.2008  -1.1885  -1.1257  -1.1240  -1.1108  -1.0369  -1.0193  -0.9964
    -0.9808  -0.9754  -0.9605  -0.8669  -0.8600  -0.8428  -0.8379  -0.8290
    -0.8202  -0.7326  -0.6754  -0.4477  -0.3830  -0.3611  -0.3584  -0.3145
    -0.3115  -0.2992  -0.2954  -0.2811  -0.2745  -0.1680  -0.1656  -0.1139
    -0.1067  -0.0705  -0.0684  -0.0625  -0.0345  -0.0062   0.0414   0.1405
     0.1477   0.1780   0.1787   0.2266   0.2440   0.3812   0.4223   0.4237
     0.4393   0.4759   0.4789   0.5136   0.5572   0.5919   0.6017   0.6239
     0.6661   0.6903   0.6920   0.7131   0.7872   0.7995   0.8070   0.8565
     0.8568   0.8724   0.8738   0.8774   0.8836   0.9045   0.9057   0.9065
     0.9789   0.9822   0.9954   0.9963   1.0006   1.0730   1.0746   1.0881
     1.0921   1.0928   1.1335   1.1338   1.1795   1.2295   1.2341   1.2346
     1.2407   1.2414   1.2875   1.3133   1.3148   1.3504   1.3545   1.3557
     1.3792   1.3935   1.5291   1.5303   1.6380   1.6438   1.6443   1.6810
     1.6821   1.7000   2.2055   2.2076   2.2591   2.4760   2.5460   2.5478
     2.5772   3.3797   3.6491   4.5314   4.8447   4.8470   4.8622   5.1162
     5.2953   5.7012   5.9480   6.3166   6.4086   6.4713   6.4751   6.5087
     6.6209   6.6880

          k = 0.0000 0.2309 0.0000 ( 94254 PWs)   bands (ev):

   -13.8431 -10.8257  -7.9176  -6.9736  -5.9440  -5.6145  -5.2652  -5.0238
    -4.8717  -4.8292  -4.6381  -4.6024  -4.5389  -4.4969  -4.4833  -4.3986
    -4.2804  -4.2232  -4.1379  -4.1139  -4.1045  -4.0024  -3.8508  -3.7957
    -3.6956  -3.6722  -3.6641  -3.5950  -3.5822  -3.5626  -3.5000  -3.4939
    -3.4614  -3.4157  -3.4061  -3.3653  -3.3556  -3.3088  -3.2926  -3.2667
    -3.1637  -3.1363  -3.0784  -3.0614  -3.0317  -2.9125  -2.8364  -2.7918
    -2.7628  -2.7400  -2.7146  -2.6989  -2.6434  -2.5724  -2.5504  -2.4837
    -2.4510  -2.4071  -2.3714  -2.3478  -2.2780  -2.2257  -2.1062  -2.0270
    -2.0165  -1.9812  -1.9702  -1.9291  -1.8886  -1.8796  -1.8579  -1.8364
    -1.8058  -1.7585  -1.7233  -1.6886  -1.6700  -1.6481  -1.6288  -1.5747
    -1.5581  -1.5444  -1.4728  -1.4699  -1.4535  -1.4254  -1.4020  -1.3887
    -1.3657  -1.3280  -1.3102  -1.2831  -1.2534  -1.2379  -1.2177  -1.2045
    -1.1959  -1.1577  -1.1365  -1.1124  -1.0846  -1.0759  -1.0445  -1.0286
    -1.0138  -1.0040  -0.9523  -0.9289  -0.9178  -0.8799  -0.8351  -0.8238
    -0.8008  -0.7938  -0.7600  -0.7336  -0.7257  -0.7194  -0.5842  -0.5242
    -0.4295  -0.3895  -0.3495  -0.3288  -0.3048  -0.2944  -0.2741  -0.2588
    -0.1752  -0.1059  -0.0394  -0.0108   0.0124   0.0479   0.0707   0.0829
     0.0888   0.1067   0.1254   0.1653   0.1726   0.2844   0.3084   0.3133
     0.3371   0.3647   0.4266   0.4609   0.4980   0.5114   0.5308   0.5466
     0.6059   0.6128   0.6764   0.6822   0.6924   0.7130   0.7494   0.7790
     0.8331   0.8418   0.8892   0.8956   0.8964   0.9221   0.9597   1.0272
     1.0529   1.0579   1.1092   1.1272   1.1860   1.1934   1.2072   1.2348
     1.2405   1.2533   1.3071   1.3160   1.3238   1.3463   1.3604   1.3984
     1.4014   1.4876   1.5079   1.5476   1.5682   1.5943   1.6023   1.6262
     1.6543   1.6675   1.6861   1.7201   1.7666   1.8106   1.8537   1.9229
     1.9665   1.9801   2.0087   2.2381   2.3541   2.6295   2.9338   3.1440
     3.2239   3.4261   3.6764   4.2781   4.5640   4.7979   5.1815   5.3143
     5.3809   5.5650   5.6556   5.7968   5.9342   6.2994   6.4052   6.4535
     6.6048   6.6840

          k = 0.0000 0.4619 0.0000 ( 94294 PWs)   bands (ev):

   -13.8430 -10.8232  -7.8996  -6.5695  -5.9662  -5.8578  -5.3060  -5.0223
    -4.9147  -4.8550  -4.7380  -4.5161  -4.4117  -4.3198  -4.2423  -4.1767
    -4.1521  -4.1140  -4.0351  -3.9579  -3.9455  -3.9207  -3.8627  -3.8117
    -3.7760  -3.7568  -3.7288  -3.7099  -3.6763  -3.6349  -3.6100  -3.5716
    -3.5291  -3.3833  -3.3313  -3.3262  -3.3154  -3.3001  -3.2186  -3.1844
    -3.0884  -3.0734  -3.0694  -3.0487  -2.9746  -2.9045  -2.8532  -2.7930
    -2.7658  -2.7308  -2.7070  -2.6805  -2.6363  -2.6187  -2.5808  -2.5695
    -2.5530  -2.4932  -2.4102  -2.3803  -2.3745  -2.3105  -2.2640  -2.2128
    -2.1785  -2.1563  -2.1450  -2.1299  -2.0010  -1.9718  -1.9525  -1.9204
    -1.9077  -1.8355  -1.8299  -1.8131  -1.7254  -1.6935  -1.6814  -1.6413
    -1.6004  -1.5935  -1.5503  -1.5284  -1.5060  -1.4835  -1.4547  -1.4453
    -1.4346  -1.4272  -1.4186  -1.3915  -1.3821  -1.3140  -1.2947  -1.2592
    -1.2360  -1.2331  -1.2123  -1.1842  -1.1287  -1.1026  -1.0705  -1.0466
    -1.0302  -1.0059  -0.9870  -0.9621  -0.9205  -0.9133  -0.8338  -0.7935
    -0.7730  -0.7537  -0.7350  -0.6737  -0.6306  -0.5731  -0.5312  -0.4912
    -0.4862  -0.4448  -0.4108  -0.3805  -0.3717  -0.3620  -0.3231  -0.3031
    -0.2694  -0.2649  -0.2350  -0.2215  -0.2104  -0.1828  -0.1447  -0.0715
    -0.0597  -0.0161   0.0155   0.0563   0.0953   0.1612   0.2174   0.2337
     0.2981   0.3237   0.3479   0.4139   0.4271   0.4967   0.5056   0.5487
     0.5673   0.5718   0.6034   0.6396   0.6487   0.6816   0.7424   0.7490
     0.8007   0.8187   0.8474   0.8539   0.9051   0.9592   1.0000   1.0625
     1.0901   1.1181   1.1493   1.2248   1.2300   1.2505   1.2582   1.2833
     1.3193   1.3757   1.3816   1.4010   1.4325   1.5210   1.5321   1.5520
     1.5625   1.5769   1.5897   1.6246   1.6500   1.7788   1.8015   1.8189
     1.8240   1.8402   1.9290   2.0598   2.1486   2.2498   2.3545   2.5340
     2.8383   2.8575   2.9575   3.1130   3.1280   3.4639   3.5074   3.6830
     3.8577   4.1099   4.1396   4.2240   4.2782   4.3607   4.5274   4.6453
     4.7824   5.0023   5.2738   5.4316   5.7291   5.9295   6.0888   6.1955
     6.4869   6.5409

          k = 0.2000-0.1155 0.0000 ( 94254 PWs)   bands (ev):

   -13.8431 -10.8258  -7.9163  -6.9741  -5.9520  -5.6149  -5.2497  -5.0150
    -4.8937  -4.8200  -4.6331  -4.5685  -4.5454  -4.5193  -4.4545  -4.3906
    -4.3252  -4.2755  -4.1208  -4.1152  -4.0713  -3.9795  -3.9091  -3.7902
    -3.6983  -3.6729  -3.6690  -3.5901  -3.5835  -3.5453  -3.4997  -3.4958
    -3.4741  -3.4293  -3.3966  -3.3740  -3.3502  -3.2961  -3.2918  -3.2575
    -3.1747  -3.1296  -3.0782  -3.0662  -3.0294  -2.8716  -2.8264  -2.7860
    -2.7720  -2.7482  -2.7083  -2.7052  -2.6459  -2.5902  -2.5178  -2.5038
    -2.4493  -2.4027  -2.3792  -2.3193  -2.3016  -2.2437  -2.1042  -2.0298
    -2.0156  -1.9831  -1.9715  -1.9286  -1.8840  -1.8792  -1.8593  -1.8360
    -1.8049  -1.7541  -1.7199  -1.6841  -1.6694  -1.6509  -1.6266  -1.5782
    -1.5601  -1.5471  -1.4743  -1.4701  -1.4559  -1.4237  -1.4005  -1.3897
    -1.3712  -1.3294  -1.2958  -1.2862  -1.2516  -1.2418  -1.2131  -1.1969
    -1.1814  -1.1562  -1.1472  -1.1211  -1.0924  -1.0748  -1.0520  -1.0290
    -1.0202  -1.0115  -0.9738  -0.9302  -0.9115  -0.8668  -0.8299  -0.8252
    -0.7985  -0.7943  -0.7606  -0.7328  -0.7258  -0.7143  -0.5584  -0.5177
    -0.4622  -0.3882  -0.3437  -0.3303  -0.3032  -0.2940  -0.2665  -0.2602
    -0.1546  -0.1027  -0.0466  -0.0166   0.0089   0.0376   0.0732   0.0867
     0.0910   0.1106   0.1205   0.1481   0.1665   0.2839   0.3090   0.3140
     0.3308   0.3841   0.4155   0.4614   0.5022   0.5136   0.5397   0.5520
     0.6036   0.6162   0.6737   0.6830   0.6931   0.7119   0.7449   0.7824
     0.8338   0.8396   0.8858   0.8968   0.8978   0.9247   0.9603   1.0260
     1.0534   1.0598   1.1079   1.1242   1.1863   1.1928   1.2080   1.2357
     1.2393   1.2533   1.3074   1.3161   1.3230   1.3465   1.3606   1.3976
     1.4018   1.4873   1.5045   1.5468   1.5684   1.5958   1.6004   1.6255
     1.6543   1.6669   1.6865   1.7185   1.7669   1.8110   1.8507   1.9254
     1.9665   1.9824   2.0117   2.2384   2.3502   2.6609   2.8944   3.1521
     3.2325   3.5019   3.5578   4.3102   4.6008   4.7327   5.1867   5.3119
     5.4444   5.5040   5.6734   5.7932   6.0029   6.3502   6.3829   6.4225
     6.5001   6.6558

          k = 0.2000 0.1155 0.0000 ( 94254 PWs)   bands (ev):

   -13.8431 -10.8257  -7.9175  -6.9736  -5.9441  -5.6157  -5.2621  -5.0322
    -4.8633  -4.8276  -4.6431  -4.6120  -4.5314  -4.4937  -4.4918  -4.3964
    -4.2795  -4.1912  -4.1552  -4.1136  -4.1086  -4.0098  -3.8445  -3.7976
    -3.6964  -3.6722  -3.6623  -3.5952  -3.5799  -3.5637  -3.4998  -3.4946
    -3.4644  -3.4130  -3.4082  -3.3603  -3.3584  -3.3091  -3.2922  -3.2627
    -3.1589  -3.1343  -3.0826  -3.0602  -3.0317  -2.9298  -2.8323  -2.7917
    -2.7572  -2.7370  -2.7185  -2.7072  -2.6424  -2.5711  -2.5564  -2.4758
    -2.4563  -2.4075  -2.3689  -2.3538  -2.2713  -2.2190  -2.1081  -2.0255
    -2.0174  -1.9815  -1.9624  -1.9364  -1.8887  -1.8803  -1.8567  -1.8362
    -1.8067  -1.7612  -1.7249  -1.6918  -1.6698  -1.6477  -1.6294  -1.5696
    -1.5603  -1.5431  -1.4728  -1.4689  -1.4517  -1.4260  -1.4026  -1.3858
    -1.3678  -1.3277  -1.3188  -1.2837  -1.2535  -1.2339  -1.2195  -1.2055
    -1.1980  -1.1599  -1.1360  -1.1110  -1.0822  -1.0768  -1.0412  -1.0281
    -1.0117  -1.0043  -0.9310  -0.9281  -0.9125  -0.8876  -0.8396  -0.8247
    -0.8021  -0.7936  -0.7585  -0.7353  -0.7258  -0.7222  -0.6010  -0.5254
    -0.4135  -0.3900  -0.3562  -0.3278  -0.3054  -0.2959  -0.2778  -0.2586
    -0.1858  -0.1065  -0.0375  -0.0080   0.0114   0.0540   0.0708   0.0779
     0.0875   0.1056   0.1272   0.1672   0.1867   0.2829   0.3091   0.3129
     0.3442   0.3544   0.4330   0.4596   0.4996   0.5083   0.5298   0.5417
     0.6075   0.6097   0.6780   0.6823   0.6923   0.7119   0.7514   0.7774
     0.8350   0.8402   0.8901   0.8948   0.8986   0.9214   0.9605   1.0256
     1.0538   1.0577   1.1100   1.1279   1.1876   1.1925   1.2091   1.2344
     1.2395   1.2530   1.3068   1.3164   1.3235   1.3465   1.3603   1.3990
     1.4014   1.4865   1.5094   1.5474   1.5680   1.5950   1.6020   1.6261
     1.6541   1.6675   1.6858   1.7204   1.7663   1.8107   1.8543   1.9256
     1.9667   1.9791   2.0105   2.2386   2.3527   2.6160   2.9440   3.1422
     3.2267   3.4152   3.7128   4.2476   4.5497   4.8218   5.1764   5.3187
     5.3877   5.5889   5.6439   5.7903   5.9153   6.2988   6.4034   6.4350
     6.6203   6.7202

          k = 0.2000 0.3464 0.0000 ( 94264 PWs)   bands (ev):

   -13.8430 -10.8237  -7.9033  -6.7006  -5.8921  -5.5241  -5.5106  -5.3677
    -4.9835  -4.6308  -4.4427  -4.4161  -4.4118  -4.3654  -4.3605  -4.3203
    -4.2645  -4.2307  -4.1917  -4.0463  -3.9297  -3.8461  -3.8260  -3.8220
    -3.7808  -3.7278  -3.6477  -3.6155  -3.6045  -3.5722  -3.5332  -3.5007
    -3.4766  -3.4513  -3.4091  -3.3767  -3.3484  -3.3308  -3.3113  -3.2768
    -3.1999  -3.1449  -3.0853  -2.9466  -2.8844  -2.8542  -2.8398  -2.8122
    -2.7833  -2.7616  -2.7362  -2.6640  -2.6515  -2.5940  -2.5606  -2.5052
    -2.4735  -2.4276  -2.4158  -2.3557  -2.3237  -2.2897  -2.2738  -2.2259
    -2.1304  -2.1139  -2.0727  -2.0403  -2.0137  -1.9643  -1.9535  -1.9408
    -1.8999  -1.8754  -1.7593  -1.7426  -1.7343  -1.7141  -1.6828  -1.6728
    -1.6059  -1.5826  -1.5542  -1.5273  -1.4720  -1.4432  -1.4323  -1.4062
    -1.3923  -1.3828  -1.3707  -1.3245  -1.3171  -1.2875  -1.2832  -1.2618
    -1.1755  -1.1712  -1.1408  -1.1333  -1.1170  -1.1001  -1.0856  -1.0401
    -1.0292  -1.0124  -1.0036  -0.9902  -0.9793  -0.9666  -0.9329  -0.8919
    -0.8366  -0.8037  -0.7759  -0.7104  -0.6888  -0.6828  -0.6565  -0.5467
    -0.5210  -0.4602  -0.4376  -0.4117  -0.3490  -0.3165  -0.3010  -0.2843
    -0.2425  -0.2182  -0.1881  -0.1626  -0.1534  -0.0760  -0.0643  -0.0004
     0.0449   0.0739   0.0849   0.1095   0.1371   0.1951   0.2340   0.2616
     0.2868   0.3116   0.3811   0.4093   0.4263   0.4549   0.4681   0.5097
     0.5602   0.5787   0.6225   0.6427   0.6527   0.6701   0.6883   0.7000
     0.7211   0.7462   0.8156   0.8618   0.9425   0.9712   1.0179   1.0986
     1.1895   1.1954   1.2068   1.2388   1.2584   1.3050   1.3436   1.3611
     1.3731   1.4007   1.4133   1.4275   1.4486   1.4627   1.4919   1.5095
     1.5542   1.5807   1.6062   1.6215   1.6457   1.6959   1.7612   1.8175
     1.8716   1.8770   1.8964   1.9306   1.9675   2.0279   2.0917   2.2740
     2.5164   2.6133   2.8396   2.8853   3.0788   3.1619   3.2215   3.6375
     3.7181   3.9271   4.0538   4.1219   4.2308   4.3144   4.8006   5.1610
     5.3057   5.4223   5.5951   5.7468   5.9097   6.0043   6.0385   6.0786
     6.1152   6.1923

          k = 0.2000-0.5774 0.0000 ( 94286 PWs)   bands (ev):

   -13.8429 -10.8225  -7.8938  -6.2102  -6.1628  -5.8629  -5.5715  -5.0951
    -4.9625  -4.8238  -4.5136  -4.3961  -4.3331  -4.2641  -4.1933  -4.1278
    -4.1100  -4.0399  -4.0093  -3.9375  -3.9109  -3.8978  -3.8811  -3.8470
    -3.8227  -3.7837  -3.7308  -3.6883  -3.6815  -3.6629  -3.6446  -3.5622
    -3.5289  -3.4346  -3.3918  -3.3665  -3.3413  -3.2977  -3.2728  -3.2380
    -3.2115  -3.1080  -3.0567  -3.0270  -2.9352  -2.8694  -2.8560  -2.8137
    -2.7670  -2.7274  -2.6713  -2.6128  -2.6000  -2.5402  -2.5052  -2.4889
    -2.4520  -2.4180  -2.3858  -2.3520  -2.3338  -2.2804  -2.2737  -2.2430
    -2.2275  -2.2094  -2.1868  -2.1551  -2.1286  -2.0987  -2.0374  -1.9969
    -1.9608  -1.9273  -1.8456  -1.8085  -1.8004  -1.7711  -1.7390  -1.7190
    -1.6888  -1.6619  -1.6282  -1.6013  -1.5892  -1.5495  -1.5217  -1.4819
    -1.4222  -1.3977  -1.3848  -1.3635  -1.3503  -1.2785  -1.2491  -1.2229
    -1.1999  -1.1795  -1.1418  -1.1239  -1.1015  -1.0922  -1.0711  -1.0615
    -1.0416  -1.0149  -0.9991  -0.9753  -0.9554  -0.9417  -0.9267  -0.9220
    -0.9078  -0.8753  -0.8521  -0.7280  -0.6708  -0.6432  -0.5841  -0.5555
    -0.5060  -0.4627  -0.4421  -0.4114  -0.3844  -0.3727  -0.3393  -0.3286
    -0.3039  -0.2839  -0.2392  -0.2157  -0.1803  -0.1584  -0.0704  -0.0628
    -0.0478   0.0163   0.0358   0.1200   0.1632   0.1727   0.2270   0.2569
     0.2797   0.3034   0.3335   0.3539   0.3696   0.3950   0.4011   0.4740
     0.4935   0.5163   0.5230   0.5809   0.5952   0.6364   0.6431   0.7173
     0.7626   0.8418   0.8771   0.9384   0.9963   1.0445   1.0620   1.1100
     1.1276   1.1896   1.2013   1.2407   1.2906   1.3327   1.3496   1.3779
     1.4016   1.4159   1.4628   1.4771   1.5384   1.5496   1.5548   1.5748
     1.6034   1.6176   1.6291   1.7024   1.7301   1.7812   1.8183   1.8462
     1.8496   1.9007   1.9269   1.9796   2.0874   2.5145   2.7191   2.8868
     3.0099   3.0641   3.2331   3.3013   3.3215   3.4801   3.6554   3.8535
     4.0010   4.1029   4.1472   4.4804   4.5057   4.6072   4.7155   4.7742
     4.8934   4.9579   5.0815   5.2241   5.3876   5.5094   5.8846   6.0246
     6.0797   6.2164

          k = 0.2000-0.3464 0.0000 ( 94264 PWs)   bands (ev):

   -13.8430 -10.8237  -7.9014  -6.7020  -5.9056  -5.5179  -5.5085  -5.3606
    -4.9687  -4.5915  -4.4421  -4.4188  -4.4133  -4.3860  -4.3604  -4.3291
    -4.2512  -4.2370  -4.2115  -4.1164  -3.8716  -3.8377  -3.8343  -3.8194
    -3.7932  -3.7262  -3.7083  -3.6143  -3.6125  -3.5776  -3.5239  -3.4902
    -3.4783  -3.4509  -3.4120  -3.3773  -3.3529  -3.3483  -3.2951  -3.2673
    -3.2093  -3.1565  -2.9674  -2.9296  -2.9076  -2.8634  -2.8369  -2.8115
    -2.7846  -2.7614  -2.7224  -2.6818  -2.6259  -2.5945  -2.5629  -2.4981
    -2.4628  -2.4324  -2.4127  -2.3633  -2.3354  -2.2884  -2.2792  -2.2596
    -2.1238  -2.1134  -2.0740  -2.0410  -2.0094  -1.9682  -1.9577  -1.9327
    -1.9045  -1.8645  -1.7568  -1.7439  -1.7344  -1.7100  -1.6963  -1.6698
    -1.6137  -1.5835  -1.5555  -1.5278  -1.4617  -1.4389  -1.4322  -1.4031
    -1.3881  -1.3796  -1.3682  -1.3261  -1.3217  -1.2991  -1.2792  -1.2499
    -1.2051  -1.1696  -1.1536  -1.1285  -1.1166  -1.1019  -1.0752  -1.0497
    -1.0373  -1.0198  -0.9923  -0.9907  -0.9795  -0.9564  -0.9345  -0.9002
    -0.8404  -0.8204  -0.7719  -0.7062  -0.6935  -0.6789  -0.6589  -0.5395
    -0.5058  -0.4625  -0.4300  -0.3893  -0.3489  -0.3234  -0.2834  -0.2804
    -0.2436  -0.2298  -0.1898  -0.1691  -0.1533  -0.0894  -0.0693   0.0174
     0.0491   0.0780   0.0906   0.1060   0.1336   0.2032   0.2270   0.2671
     0.2884   0.3118   0.3823   0.3998   0.4257   0.4430   0.4626   0.5261
     0.5541   0.5779   0.6232   0.6426   0.6491   0.6682   0.6891   0.7011
     0.7210   0.7510   0.8119   0.8604   0.9499   0.9712   1.0166   1.1052
     1.1865   1.1936   1.2072   1.2349   1.2586   1.3051   1.3444   1.3603
     1.3727   1.4009   1.4145   1.4273   1.4487   1.4631   1.4910   1.5106
     1.5531   1.5805   1.6046   1.6217   1.6465   1.6954   1.7711   1.8163
     1.8647   1.8742   1.8956   1.9335   1.9677   2.0264   2.0921   2.2610
     2.5207   2.6228   2.7893   2.9087   3.1225   3.1607   3.2575   3.5668
     3.7184   3.9334   4.0247   4.0889   4.1564   4.3722   4.9381   5.1499
     5.3059   5.3881   5.5506   5.7706   5.8778   5.9852   6.0284   6.0696
     6.1409   6.2906

          k = 0.4000-0.2309 0.0000 ( 94294 PWs)   bands (ev):

   -13.8429 -10.8233  -7.8963  -6.5718  -5.9963  -5.8404  -5.2921  -5.0001
    -4.9229  -4.8397  -4.7240  -4.5066  -4.3904  -4.3596  -4.2536  -4.2178
    -4.1428  -4.1338  -4.0184  -3.9598  -3.9458  -3.9197  -3.8476  -3.8292
    -3.8076  -3.7605  -3.7405  -3.7118  -3.6759  -3.6590  -3.6232  -3.5705
    -3.5596  -3.3512  -3.3314  -3.3184  -3.3075  -3.2923  -3.2081  -3.1325
    -3.0906  -3.0769  -3.0691  -3.0399  -2.9234  -2.8840  -2.8776  -2.8158
    -2.7686  -2.7125  -2.7074  -2.6717  -2.6602  -2.6159  -2.5757  -2.5701
    -2.5369  -2.5044  -2.4043  -2.3785  -2.3660  -2.3092  -2.2929  -2.2125
    -2.1730  -2.1559  -2.1450  -2.1389  -2.0017  -1.9699  -1.9453  -1.9271
    -1.9095  -1.8326  -1.8301  -1.8114  -1.7415  -1.6928  -1.6875  -1.6370
    -1.5972  -1.5940  -1.5497  -1.5308  -1.5016  -1.4770  -1.4537  -1.4489
    -1.4342  -1.4255  -1.4213  -1.3928  -1.3774  -1.3102  -1.2992  -1.2618
    -1.2366  -1.2332  -1.2251  -1.1920  -1.1236  -1.1039  -1.0729  -1.0461
    -1.0192  -1.0142  -0.9875  -0.9614  -0.9154  -0.8909  -0.8698  -0.7973
    -0.7713  -0.7622  -0.7323  -0.6602  -0.6455  -0.5530  -0.5375  -0.4998
    -0.4852  -0.4305  -0.4185  -0.3765  -0.3721  -0.3561  -0.3165  -0.3008
    -0.2670  -0.2648  -0.2408  -0.2269  -0.1926  -0.1829  -0.1504  -0.0725
    -0.0545  -0.0146   0.0209   0.0465   0.1031   0.1322   0.2227   0.2322
     0.3035   0.3283   0.3403   0.4197   0.4299   0.4969   0.5021   0.5514
     0.5699   0.5709   0.6091   0.6431   0.6478   0.6753   0.7438   0.7497
     0.8013   0.8162   0.8500   0.8544   0.9145   0.9575   1.0045   1.0632
     1.0916   1.1142   1.1383   1.2249   1.2298   1.2492   1.2570   1.2840
     1.3198   1.3748   1.3824   1.4019   1.4333   1.5224   1.5295   1.5520
     1.5609   1.5777   1.5882   1.6238   1.6502   1.7786   1.7996   1.8188
     1.8242   1.8407   1.9288   2.0598   2.1511   2.2538   2.3624   2.5463
     2.8277   2.8559   2.9953   3.0805   3.1296   3.4060   3.5095   3.6922
     3.8603   4.1081   4.1473   4.2270   4.2744   4.3491   4.5343   4.6224
     4.7970   4.9868   5.2776   5.4247   5.8083   5.8890   6.1279   6.2379
     6.3963   6.5559

          k = 0.4000-0.0000 0.0000 ( 94264 PWs)   bands (ev):

   -13.8430 -10.8237  -7.9013  -6.7020  -5.9065  -5.5183  -5.5083  -5.3605
    -4.9680  -4.6044  -4.4417  -4.4172  -4.4119  -4.3817  -4.3604  -4.3264
    -4.2560  -4.2330  -4.2110  -4.1007  -3.8815  -3.8426  -3.8329  -3.8205
    -3.7892  -3.7261  -3.7050  -3.6153  -3.6127  -3.5771  -3.5214  -3.4921
    -3.4779  -3.4503  -3.4132  -3.3750  -3.3555  -3.3482  -3.2907  -3.2635
    -3.2070  -3.1550  -2.9740  -2.9311  -2.9154  -2.8609  -2.8356  -2.8139
    -2.7848  -2.7615  -2.7280  -2.6789  -2.6372  -2.5931  -2.5622  -2.5050
    -2.4708  -2.4267  -2.4122  -2.3591  -2.3298  -2.2891  -2.2756  -2.2515
    -2.1262  -2.1134  -2.0731  -2.0417  -2.0113  -1.9669  -1.9558  -1.9352
    -1.9039  -1.8682  -1.7588  -1.7429  -1.7343  -1.7121  -1.6914  -1.6702
    -1.6121  -1.5832  -1.5555  -1.5284  -1.4654  -1.4405  -1.4336  -1.4023
    -1.3900  -1.3805  -1.3701  -1.3255  -1.3213  -1.2951  -1.2790  -1.2544
    -1.1947  -1.1699  -1.1521  -1.1304  -1.1183  -1.1028  -1.0791  -1.0428
    -1.0352  -1.0169  -0.9931  -0.9889  -0.9795  -0.9606  -0.9336  -0.8945
    -0.8375  -0.8179  -0.7718  -0.7107  -0.6895  -0.6804  -0.6586  -0.5410
    -0.5091  -0.4640  -0.4314  -0.4051  -0.3492  -0.3206  -0.2910  -0.2821
    -0.2437  -0.2238  -0.1893  -0.1654  -0.1532  -0.0839  -0.0687   0.0133
     0.0470   0.0792   0.0842   0.1075   0.1343   0.1990   0.2288   0.2665
     0.2880   0.3116   0.3802   0.4101   0.4253   0.4501   0.4634   0.5203
     0.5572   0.5784   0.6224   0.6428   0.6505   0.6682   0.6889   0.7010
     0.7210   0.7490   0.8130   0.8614   0.9459   0.9713   1.0167   1.1025
     1.1877   1.1946   1.2078   1.2362   1.2593   1.3057   1.3440   1.3601
     1.3741   1.4015   1.4142   1.4274   1.4489   1.4633   1.4909   1.5103
     1.5531   1.5811   1.6039   1.6210   1.6463   1.6954   1.7693   1.8175
     1.8667   1.8745   1.8956   1.9330   1.9682   2.0270   2.0920   2.2639
     2.5225   2.6207   2.7982   2.9040   3.1105   3.1597   3.2442   3.6005
     3.7201   3.9356   4.0414   4.0925   4.1521   4.3600   4.8974   5.1452
     5.3060   5.4056   5.5617   5.7686   5.9017   5.9749   6.0415   6.0621
     6.1208   6.2804

          k = 0.4000 0.2309 0.0000 ( 94294 PWs)   bands (ev):

   -13.8430 -10.8232  -7.8994  -6.5695  -5.9673  -5.8586  -5.3048  -5.0245
    -4.9112  -4.8508  -4.7534  -4.5209  -4.4084  -4.3122  -4.2407  -4.1684
    -4.1563  -4.0963  -4.0478  -3.9572  -3.9457  -3.9207  -3.8687  -3.8100
    -3.7759  -3.7543  -3.7321  -3.7110  -3.6771  -3.6313  -3.6104  -3.5722
    -3.5187  -3.3785  -3.3306  -3.3222  -3.3137  -3.3005  -3.2253  -3.1677
    -3.0889  -3.0723  -3.0690  -3.0533  -2.9927  -2.8975  -2.8513  -2.8110
    -2.7654  -2.7447  -2.7084  -2.6806  -2.6314  -2.6181  -2.5848  -2.5678
    -2.5601  -2.4973  -2.4126  -2.3800  -2.3748  -2.3100  -2.2481  -2.2137
    -2.1834  -2.1569  -2.1431  -2.1212  -2.0019  -1.9765  -1.9534  -1.9181
    -1.9061  -1.8361  -1.8294  -1.8140  -1.7202  -1.6937  -1.6793  -1.6468
    -1.6020  -1.5933  -1.5522  -1.5269  -1.5089  -1.4846  -1.4549  -1.4448
    -1.4357  -1.4268  -1.4176  -1.3921  -1.3848  -1.3115  -1.2918  -1.2596
    -1.2363  -1.2330  -1.2085  -1.1701  -1.1290  -1.0954  -1.0775  -1.0503
    -1.0265  -1.0031  -0.9829  -0.9712  -0.9321  -0.9133  -0.8231  -0.7887
    -0.7770  -0.7474  -0.7359  -0.6822  -0.6186  -0.5867  -0.5306  -0.4894
    -0.4815  -0.4554  -0.4046  -0.3835  -0.3739  -0.3663  -0.3263  -0.3034
    -0.2713  -0.2646  -0.2374  -0.2205  -0.2164  -0.1829  -0.1416  -0.0701
    -0.0643  -0.0167   0.0138   0.0590   0.0901   0.1738   0.2159   0.2369
     0.2904   0.3289   0.3513   0.4130   0.4261   0.4973   0.5125   0.5451
     0.5624   0.5736   0.6030   0.6397   0.6479   0.6835   0.7409   0.7497
     0.7994   0.8197   0.8473   0.8575   0.9018   0.9584   0.9986   1.0635
     1.0906   1.1176   1.1547   1.2234   1.2303   1.2526   1.2557   1.2829
     1.3192   1.3759   1.3835   1.4007   1.4322   1.5205   1.5336   1.5527
     1.5636   1.5769   1.5900   1.6246   1.6500   1.7785   1.8012   1.8185
     1.8242   1.8404   1.9285   2.0598   2.1551   2.2521   2.3467   2.5344
     2.8420   2.8570   2.9453   3.1206   3.1323   3.4791   3.5367   3.6615
     3.8538   4.1108   4.1346   4.2188   4.2751   4.3620   4.5256   4.6520
     4.7807   5.0122   5.2760   5.4153   5.6993   5.9355   6.0971   6.2253
     6.5024   6.6015

          k = 0.4000-0.6928 0.0000 ( 94286 PWs)   bands (ev):

   -13.8429 -10.8224  -7.8937  -6.2074  -6.1664  -5.8634  -5.5714  -5.0794
    -4.9839  -4.8267  -4.4964  -4.3965  -4.3463  -4.2638  -4.1878  -4.1284
    -4.1129  -4.0410  -4.0109  -3.9281  -3.9109  -3.8954  -3.8806  -3.8427
    -3.8196  -3.7857  -3.7366  -3.6893  -3.6811  -3.6679  -3.6446  -3.5556
    -3.5218  -3.4346  -3.3975  -3.3595  -3.3413  -3.2959  -3.2735  -3.2387
    -3.2082  -3.1180  -3.0562  -3.0316  -2.9273  -2.8681  -2.8595  -2.8137
    -2.7741  -2.7252  -2.6857  -2.6119  -2.6016  -2.5407  -2.5051  -2.4836
    -2.4512  -2.4213  -2.3864  -2.3481  -2.3399  -2.2810  -2.2745  -2.2439
    -2.2257  -2.2100  -2.1836  -2.1557  -2.1256  -2.0986  -2.0429  -1.9934
    -1.9621  -1.9273  -1.8359  -1.8085  -1.8014  -1.7690  -1.7394  -1.7194
    -1.6901  -1.6589  -1.6325  -1.6016  -1.5942  -1.5492  -1.5199  -1.4810
    -1.4217  -1.3980  -1.3841  -1.3628  -1.3520  -1.2741  -1.2464  -1.2288
    -1.2003  -1.1743  -1.1416  -1.1218  -1.0992  -1.0928  -1.0715  -1.0630
    -1.0416  -1.0130  -0.9924  -0.9755  -0.9695  -0.9417  -0.9266  -0.9217
    -0.9080  -0.8742  -0.8429  -0.7301  -0.6719  -0.6431  -0.5864  -0.5586
    -0.5004  -0.4623  -0.4417  -0.4169  -0.3862  -0.3770  -0.3396  -0.3285
    -0.2990  -0.2855  -0.2439  -0.2161  -0.1806  -0.1561  -0.0703  -0.0633
    -0.0478   0.0155   0.0392   0.1228   0.1560   0.1717   0.2209   0.2606
     0.2782   0.3019   0.3356   0.3529   0.3679   0.3965   0.4042   0.4732
     0.4945   0.5152   0.5265   0.5807   0.5965   0.6363   0.6444   0.7249
     0.7632   0.8381   0.8756   0.9422   0.9904   1.0437   1.0622   1.1084
     1.1279   1.1903   1.2041   1.2393   1.2911   1.3334   1.3494   1.3776
     1.4015   1.4163   1.4636   1.4780   1.5398   1.5501   1.5547   1.5746
     1.6036   1.6171   1.6292   1.7023   1.7298   1.7814   1.8180   1.8460
     1.8491   1.9010   1.9258   1.9792   2.0870   2.5092   2.7307   2.8892
     3.0099   3.0695   3.2338   3.2976   3.3213   3.4924   3.6343   3.8562
     3.9971   4.1258   4.1453   4.4775   4.5059   4.6154   4.7102   4.7745
     4.8942   4.9730   5.0400   5.2291   5.3880   5.4992   5.8873   6.0126
     6.0914   6.2195

          k = 0.4000-0.4619 0.0000 ( 94286 PWs)   bands (ev):

   -13.8429 -10.8225  -7.8917  -6.2114  -6.1749  -5.8509  -5.5824  -5.0873
    -4.9048  -4.8485  -4.5377  -4.4003  -4.3012  -4.2723  -4.2072  -4.1268
    -4.1035  -4.0270  -4.0117  -3.9724  -3.9175  -3.9057  -3.8810  -3.8611
    -3.8255  -3.7998  -3.7186  -3.6912  -3.6824  -3.6717  -3.6444  -3.5897
    -3.5374  -3.4363  -3.3991  -3.3560  -3.3146  -3.2869  -3.2668  -3.2257
    -3.1931  -3.0942  -3.0555  -3.0198  -2.9028  -2.8720  -2.8569  -2.8265
    -2.7797  -2.7309  -2.6596  -2.6369  -2.5832  -2.5453  -2.5079  -2.4898
    -2.4502  -2.4136  -2.3816  -2.3547  -2.3313  -2.2784  -2.2713  -2.2404
    -2.2280  -2.2057  -2.1896  -2.1543  -2.1321  -2.1000  -2.0340  -1.9965
    -1.9582  -1.9281  -1.8605  -1.8056  -1.7994  -1.7757  -1.7414  -1.7223
    -1.6922  -1.6741  -1.6224  -1.5989  -1.5848  -1.5504  -1.5256  -1.4702
    -1.4235  -1.3985  -1.3842  -1.3622  -1.3476  -1.2838  -1.2518  -1.2127
    -1.2001  -1.1923  -1.1417  -1.1269  -1.1031  -1.0937  -1.0706  -1.0615
    -1.0404  -1.0194  -1.0011  -0.9767  -0.9446  -0.9392  -0.9280  -0.9199
    -0.9077  -0.8810  -0.8592  -0.7259  -0.6704  -0.6428  -0.5850  -0.5575
    -0.5062  -0.4634  -0.4404  -0.4155  -0.3822  -0.3559  -0.3389  -0.3313
    -0.3110  -0.2838  -0.2300  -0.2161  -0.1744  -0.1619  -0.0686  -0.0624
    -0.0527   0.0212   0.0318   0.1209   0.1638   0.1720   0.2431   0.2501
     0.2825   0.3006   0.3260   0.3529   0.3724   0.3908   0.4052   0.4751
     0.4941   0.5150   0.5190   0.5814   0.5959   0.6380   0.6432   0.7111
     0.7621   0.8482   0.8795   0.9323   0.9992   1.0450   1.0614   1.1121
     1.1258   1.1893   1.2002   1.2411   1.2897   1.3337   1.3493   1.3809
     1.4022   1.4164   1.4614   1.4792   1.5353   1.5479   1.5564   1.5737
     1.6041   1.6164   1.6291   1.7033   1.7310   1.7811   1.8178   1.8468
     1.8499   1.9017   1.9282   1.9824   2.0884   2.5275   2.6921   2.8952
     3.0107   3.0599   3.2445   3.2937   3.3255   3.4670   3.6727   3.8323
     4.0213   4.0618   4.1448   4.4700   4.5037   4.6067   4.7218   4.8133
     4.8926   4.9803   5.0386   5.2397   5.3853   5.4889   5.8753   6.0113
     6.0876   6.2611

     the Fermi energy is     1.6226 ev

!    total energy              =  -27814.91085931 Ry

     total all-electron energy =  -1326874.968559 Ry
     estimated scf accuracy    <       0.00000084 Ry
     smearing contrib. (-TS)   =       0.00491427 Ry
     internal energy E=F+TS    =  -27814.91577358 Ry

     The total energy is F=E-TS. E is the sum of the following terms:
     one-electron contribution =  -30259.97359323 Ry
     hartree contribution      =   15430.03867428 Ry
     xc contribution           =    -906.61255386 Ry
     ewald contribution        =   13415.26256772 Ry
     one-center paw contrib.   =  -25493.63086850 Ry

     convergence has been achieved in  19 iterations

     negative rho (up, down):  1.301E-02 0.000E+00

     Forces acting on atoms (cartesian axes, Ry/au):

     atom    1 type  1   force =    -0.00003789   -0.00013228   -0.00315892
     atom    2 type  1   force =     0.00014985   -0.00006950   -0.00319261
     atom    3 type  1   force =    -0.00005187    0.00114791   -0.00376704
     atom    4 type  1   force =     0.00007749    0.00005108   -0.00319210
     atom    5 type  1   force =     0.00028560    0.00011455   -0.00394695
     atom    6 type  1   force =    -0.00026778    0.00010814   -0.00385941
     atom    7 type  1   force =     0.00134252   -0.00082027   -0.00383968
     atom    8 type  1   force =    -0.00006766   -0.00034895   -0.00396470
     atom    9 type  1   force =    -0.00094147   -0.00054706   -0.00374725
     atom   10 type  1   force =    -0.00001410    0.00008070    0.00989394
     atom   11 type  1   force =     0.00021467   -0.00226270    0.00398605
     atom   12 type  1   force =    -0.00011339   -0.00218008    0.00426627
     atom   13 type  1   force =    -0.00190017    0.00137283    0.00393353
     atom   14 type  1   force =    -0.00022999   -0.00003984    0.00150285
     atom   15 type  1   force =     0.00193521    0.00103023    0.00453124
     atom   16 type  1   force =    -0.00217594    0.00086409    0.00378785
     atom   17 type  1   force =     0.00209397    0.00106884    0.00413052
     atom   18 type  1   force =     0.00042013   -0.00021585   -0.00573743
     atom   19 type  1   force =     0.00019543   -0.00018287    0.00025035
     atom   20 type  1   force =     0.00003171   -0.00019039    0.00010453
     atom   21 type  1   force =     0.00005332   -0.00037159    0.00005633
     atom   22 type  1   force =     0.00011640    0.00025075   -0.00014529
     atom   23 type  1   force =    -0.00013458    0.00000548    0.00004527
     atom   24 type  1   force =     0.00030124    0.00005025    0.00008706
     atom   25 type  1   force =    -0.00024207   -0.00028368   -0.00007568
     atom   26 type  1   force =     0.00014649    0.00001583    0.00012158
     atom   27 type  1   force =     0.00049350   -0.00029076   -0.00006471
     atom   28 type  1   force =    -0.00017147   -0.00039928   -0.00038945
     atom   29 type  1   force =     0.00072151   -0.00044136   -0.00021567
     atom   30 type  1   force =     0.00017269   -0.00013167    0.00045709
     atom   31 type  1   force =     0.00022285    0.00026122   -0.00029623
     atom   32 type  1   force =     0.00017629   -0.00022084    0.00046916
     atom   33 type  1   force =     0.00025931   -0.00018641    0.00051220
     atom   34 type  1   force =     0.00024811   -0.00013756    0.00057016
     atom   35 type  1   force =     0.00019627   -0.00006962    0.00054052
     atom   36 type  1   force =     0.00011520   -0.00024045    0.00047290
     atom   37 type  2   force =    -0.00313654    0.00227110    0.00008222
     atom   38 type  2   force =    -0.00031446   -0.00014968   -0.00000138
     atom   39 type  2   force =    -0.00218570    0.00284050    0.00301444
     atom   40 type  3   force =     0.00061092   -0.00069348   -0.00011188
     atom   41 type  3   force =    -0.00078672    0.00073089   -0.00059832
     atom   42 type  3   force =     0.00219109   -0.00165823   -0.00251136

     Total force =     0.007590     Total SCF correction =     0.002233
     SCF correction compared to forces is large: reduce conv_thr to get better values

     negative rho (up, down):  1.301E-02 0.000E+00

     negative rho (up, down):  1.301E-02 0.000E+00

     negative rho (up, down):  1.301E-02 0.000E+00

     negative rho (up, down):  1.301E-02 0.000E+00

     negative rho (up, down):  1.301E-02 0.000E+00

     negative rho (up, down):  1.301E-02 0.000E+00

     negative rho (up, down):  1.301E-02 0.000E+00

     negative rho (up, down):  1.301E-02 0.000E+00

     negative rho (up, down):  1.301E-02 0.000E+00

     negative rho (up, down):  1.301E-02 0.000E+00

     negative rho (up, down):  1.301E-02 0.000E+00

     negative rho (up, down):  1.301E-02 0.000E+00

     negative rho (up, down):  1.301E-02 0.000E+00

     negative rho (up, down):  1.301E-02 0.000E+00

     negative rho (up, down):  1.301E-02 0.000E+00

     negative rho (up, down):  1.301E-02 0.000E+00

     negative rho (up, down):  1.301E-02 0.000E+00

     negative rho (up, down):  1.301E-02 0.000E+00

     negative rho (up, down):  1.301E-02 0.000E+00

     negative rho (up, down):  1.301E-02 0.000E+00

     negative rho (up, down):  1.301E-02 0.000E+00

     negative rho (up, down):  1.301E-02 0.000E+00

     negative rho (up, down):  1.301E-02 0.000E+00

     negative rho (up, down):  1.301E-02 0.000E+00

     negative rho (up, down):  1.301E-02 0.000E+00

     negative rho (up, down):  1.301E-02 0.000E+00

     negative rho (up, down):  1.301E-02 0.000E+00

     negative rho (up, down):  1.301E-02 0.000E+00

     negative rho (up, down):  1.301E-02 0.000E+00

     negative rho (up, down):  1.301E-02 0.000E+00

     negative rho (up, down):  1.301E-02 0.000E+00

     negative rho (up, down):  1.301E-02 0.000E+00

     negative rho (up, down):  1.301E-02 0.000E+00

     negative rho (up, down):  1.301E-02 0.000E+00
 BEEFens 2000 ensemble energies
             -0.606833526038785E+02
             -0.361653826026486E+01
             -0.158325280426804E+02
              0.429587743989692E+02
             -0.221198978601041E+02
             -0.205271280136635E+02
             -0.352365617998692E+02
             -0.865152063892138E+02
             -0.464949123128422E+02
             -0.472781013027271E+02
             -0.369427399665628E+02
              0.227435695968649E+01
              0.406600583641131E+01
              0.761640838904972E+01
              0.265786587117921E+01
              0.475016794327455E+02
             -0.208822144432025E+02
             -0.230115604431958E+02
              0.193114657483030E+02
             -0.112393886140117E+03
              0.536452430288386E+02
             -0.289883335130714E+02
             -0.335332855576790E+01
             -0.114112397033247E+02
             -0.882993836133710E+01
             -0.462927836680234E+01
              0.882829268196739E+02
             -0.187301567096499E+02
             -0.899531710336430E+01
             -0.518511708676289E+02
              0.815527492229592E+02
             -0.187160462212802E+02
             -0.375095931371380E+02
              0.249175210023081E+02
             -0.284912419033725E+01
              0.164252652891852E+02
             -0.485067214992523E+01
              0.108006732584113E+02
              0.288507925700309E+02
             -0.103276313978244E+03
              0.558498538271559E+02
              0.142361132041286E+02
             -0.173043822742807E+01
             -0.361435993486616E+02
              0.123236986649985E+02
             -0.146914220081821E+02
              0.398610941428624E+02
              0.364836210464707E+02
             -0.308056439613975E+02
             -0.275174251868066E+02
             -0.328570094734370E+02
             -0.352174225751119E+02
              0.136403951677297E+02
             -0.490917280301173E+02
              0.115637795447407E+02
              0.623058835685094E+02
              0.635549522296981E+02
              0.355884144529384E+02
              0.154022068992594E+02
              0.270590351293174E+02
              0.891624601147358E+02
              0.212593630267512E+02
             -0.548646833306583E+02
             -0.156996571388833E+02
             -0.236008956828504E+02
              0.629886497620079E+02
             -0.773352006721888E+02
             -0.671885975688060E+02
             -0.259636191774822E+02
             -0.647870613573082E+01
             -0.470709704711430E+02
              0.270733743794043E+02
              0.801591763453780E+01
              0.868087988728547E+01
             -0.397323100585501E+02
             -0.346923147208518E+02
             -0.542025331943677E+02
              0.390421102182357E+02
             -0.296153543286033E+02
              0.265348316950484E+02
             -0.715954751881895E+01
             -0.318019583993465E+02
             -0.576242481539075E+02
             -0.176686509651297E+02
             -0.905973695360308E+01
             -0.124693701755873E+02
              0.412253378652106E+02
              0.682975873762758E+02
             -0.385634075363306E+02
             -0.794695462306574E+02
             -0.219560418145442E+02
              0.111515784219523E+03
             -0.592610234226416E+02
              0.356204298050779E+02
             -0.957362990027798E+01
             -0.663104562185146E+02
              0.254301324552515E+02
              0.397929615921028E+02
             -0.198934597779017E+02
              0.400252638718679E+02
             -0.295964135014374E+02
             -0.478336240971796E+02
              0.866143297703453E+02
              0.454034356535808E+02
              0.336420110398594E+02
              0.146437389838527E+02
              0.205785299219072E+02
              0.856487679902381E+02
             -0.256673813236933E+02
              0.787826017483472E+01
             -0.142402816098857E+03
              0.181089789979473E+02
             -0.716279036161019E+02
              0.150995775948193E+02
              0.204647283407477E+02
             -0.332917544222041E+02
             -0.557255884484679E+02
              0.653773014751118E+01
             -0.304263979657625E+02
              0.308077315377950E+02
             -0.529915622042747E+02
              0.170282458693589E+01
             -0.356945661782364E+02
             -0.423424286901610E+01
             -0.104202562855139E+01
              0.181322157199010E+02
              0.143672861818879E+01
             -0.650832184446426E+01
              0.590518482973519E+02
              0.908393509618023E+02
              0.484273677953911E+02
              0.830266999049706E+02
             -0.115036998174687E+02
              0.143144674463628E+02
              0.541095012787061E+02
             -0.110776235464785E+02
             -0.735917874252323E+02
             -0.384267849906260E+02
             -0.521859744401119E+02
             -0.276735632942874E+02
              0.327259865716624E+02
             -0.116794631429716E+03
             -0.187335896375193E+02
              0.414150169621278E+02
             -0.386213867522683E+02
             -0.365586759109497E+02
              0.544240574391937E+02
              0.400726097213218E+02
             -0.354073688632379E+02
              0.137851330680220E+02
             -0.273314081153459E+02
              0.343207997135401E+02
              0.444230317744217E+01
              0.210941527614490E+02
             -0.884815883341055E+02
             -0.480113397099651E+02
             -0.995188430226244E+01
              0.320668128753627E+01
             -0.366741509751917E+02
              0.106040256172517E+03
             -0.230874931052009E+02
             -0.398677743763929E+02
              0.388792837132660E+02
             -0.494194128426495E+02
             -0.363368205494983E+02
              0.324799688761553E+02
              0.124538180754738E+02
              0.164502468327171E+02
              0.116640493128653E+02
             -0.132853149571611E+02
              0.225082999421578E+02
              0.590019353322087E+02
             -0.311570358475763E+02
              0.162398673354373E+02
              0.934506718686627E+02
              0.340863445061289E+02
             -0.728463315015324E+01
             -0.188766159908861E+02
              0.153360188173712E+03
             -0.164224447331938E+02
              0.363351583470301E+02
              0.194533130453599E+02
              0.361502743520098E+02
              0.892030954848808E+02
              0.542950903857794E+02
             -0.239195004195564E+01
              0.227843997986795E+02
              0.485076817777119E+02
              0.363583918775118E+02
             -0.525606333802557E+02
              0.936079670066923E+02
             -0.825729665382591E+02
             -0.198075101713261E+02
              0.582781652634444E+02
              0.677653480756025E+01
              0.789735855910851E+01
              0.340740245097065E+02
              0.299177771741503E+02
              0.353647721416426E+02
             -0.637643755466670E+02
              0.287163853935670E+01
             -0.297591494646583E+02
             -0.870104985607998E+01
             -0.146885350141201E+01
             -0.724651141809341E+01
             -0.415396614682436E+01
              0.859331175604244E+02
             -0.101005135683999E+02
             -0.276383249231760E+02
             -0.495951328178615E+01
              0.139945118246493E+02
             -0.564109979961784E+02
             -0.407451153858661E+02
             -0.382001172143707E+02
             -0.630470065199492E+02
             -0.169758246333852E+02
             -0.447494822084184E+02
              0.163348346582717E+02
             -0.239430258642241E+01
             -0.104408374922085E+02
             -0.934146019408706E+01
              0.807399419140387E+01
             -0.242586357123932E+02
              0.689425186938023E+02
             -0.807330109688637E+02
             -0.141130316261469E+02
             -0.173931731358897E+02
              0.181848363407436E+02
              0.214633414084868E+02
             -0.463837580971017E+02
             -0.201938985483639E+02
              0.440888157745290E+02
             -0.276066918333198E+02
              0.187092969355047E+02
              0.382751095407227E+02
             -0.323311565422364E+01
              0.114151618130206E+03
             -0.229956800658563E+02
             -0.340991179312246E+02
              0.577917538256355E+01
             -0.228326333699550E+02
              0.527623576781443E+02
             -0.337360076226855E+02
              0.106533785381301E+02
              0.640505061885498E+02
             -0.126208556993003E+02
              0.120258402376856E+03
              0.125888481521780E+03
             -0.649962824304810E+02
              0.590719324660693E+02
              0.166587266451010E+02
             -0.517838784434326E+02
              0.216045464507748E+02
              0.354116402756042E+02
              0.362790696576133E+02
              0.134275300687003E+01
              0.159775317926644E+02
              0.695889707633135E+02
             -0.246975502907600E+02
              0.181303226875053E+02
              0.738901944115678E+02
             -0.372458521926891E+02
             -0.129824141604128E+02
              0.508753671512229E+02
              0.297428330402978E+02
              0.780283631844358E+02
              0.222776954670896E+02
              0.625924291536035E+01
              0.280319154243305E+02
              0.383349399824934E+02
             -0.472004842830464E+02
              0.332314946053162E+01
              0.130051909881731E+02
              0.113874004362841E+02
              0.220598178821718E+02
             -0.575001557455910E+02
              0.366099992852454E+02
             -0.443930752035366E+02
             -0.347519424460564E+02
              0.178176254474570E+02
             -0.181271843950652E+02
              0.555293365411105E+02
             -0.256033055781885E+02
              0.266882203310646E+02
              0.368221180984873E+02
              0.829259271348646E+02
              0.574696442232064E+02
              0.461773559091395E+02
             -0.105366269927443E+02
             -0.392582272741384E+01
             -0.332092880464598E+02
              0.750812470642677E+02
              0.797204423193730E+02
              0.362011506709861E+02
             -0.192080604034604E+02
              0.511888010002572E+02
             -0.162626482782459E+02
              0.214687589700703E+02
              0.614542161956935E+02
              0.214483418112596E+01
             -0.104288822942380E+02
             -0.282893424449638E+02
             -0.511910285953884E+02
              0.945630166354875E+02
              0.439952674979393E+02
             -0.559289521933439E+02
             -0.964821690394524E+01
              0.249796090022243E+02
             -0.995746752792581E+01
              0.592235398945234E+02
              0.152135208447515E+02
              0.799289321260393E+02
              0.279705404097585E+02
             -0.263932083348110E+02
              0.248959551060921E+02
             -0.501585529761485E+01
             -0.323582701344963E+02
              0.133213117575505E+02
              0.205642275808667E+02
              0.933087731157753E+02
              0.797448953422451E+02
              0.551083014972654E+02
              0.730725455696302E+02
              0.801066891875143E+01
             -0.273831812833146E+02
              0.163215521945870E+02
             -0.367868555978054E+02
             -0.476478039285819E+02
             -0.563605518668714E+02
             -0.266569428897646E+02
             -0.109705507597700E+03
             -0.291594748720353E+02
             -0.837461179616669E+02
              0.210234538083288E+02
             -0.477013197989233E+02
              0.396937378358615E+02
             -0.941603829065760E+02
             -0.330231707706998E+02
              0.548364897738832E+02
              0.207744681695485E+02
             -0.830927340527575E+02
              0.631027560374597E+02
             -0.256847011180810E+02
              0.512432439060573E+02
             -0.242424387076257E+02
             -0.751493978959562E+02
              0.111803474616842E+02
             -0.611340986544088E+02
             -0.167969764322077E+02
             -0.148903730498029E+01
              0.418171769225970E+02
              0.127027850694360E+03
             -0.461738933517883E+02
             -0.362647004434065E+02
             -0.977064019385466E+00
             -0.130225962530952E+02
             -0.822729390068165E+02
             -0.596729372171314E+02
              0.517251286443206E+02
             -0.288856657848982E+02
              0.169468265401591E+02
             -0.489369977945335E+02
             -0.131934498322748E+02
             -0.437212074993709E+02
              0.565648330511824E+02
              0.150966391121531E+02
             -0.231738747240430E+02
             -0.127014972878180E+02
              0.668163882573509E+01
             -0.618169413242668E+01
              0.441542992115974E+02
             -0.251975806733728E+02
              0.278467392866548E+01
              0.339536741869140E+02
              0.171201883576364E+02
             -0.159917452352703E+02
              0.156291045537371E+03
              0.538186044870485E+02
              0.117560833073119E+01
              0.161531227778195E+02
             -0.614875465777880E+02
              0.315092440335205E+02
             -0.721969102473971E+02
             -0.252203717031755E+02
             -0.522847938712281E+02
             -0.220143302050028E+02
              0.569438251817154E+02
             -0.537149412932324E+02
              0.161022152897710E+02
             -0.409935109975186E+01
              0.386851094413876E+01
             -0.433797531087110E+02
             -0.478405506899117E+02
             -0.401834013420898E+01
             -0.424837596413241E+02
             -0.217152987562565E+02
             -0.438515508053914E+02
             -0.119258376146481E+02
             -0.359002489025485E+02
             -0.516571052012854E+02
              0.212639611644117E+02
             -0.209077301235757E+02
              0.187930698060540E+02
              0.974673704138698E+01
             -0.738202786078443E+02
             -0.548130450198092E+02
             -0.398415019144383E+02
              0.354088177615245E+02
              0.269304430582068E+01
             -0.626588729245586E+02
              0.585911047509216E+02
             -0.401244823716017E+02
              0.545107520417709E+02
             -0.289688085223191E+02
             -0.446004246986604E+02
              0.298368346851100E+02
             -0.657807317967194E+02
             -0.379967869692450E+02
              0.672641075796544E+02
              0.204107734184233E+02
             -0.360375453765729E+02
              0.489568813452665E+02
             -0.174040316034158E+02
             -0.323021508509125E+02
             -0.301759316363235E+02
             -0.500756388112570E+02
              0.249553536818908E+02
             -0.933266050341107E+02
             -0.840262974642506E+02
             -0.735308728937798E+01
             -0.306926850973342E+02
             -0.575702085330203E+02
              0.721960773060630E+02
              0.131559748375539E+03
             -0.360878652254898E+02
             -0.256469415760148E+01
             -0.637082969558666E+02
              0.650815796181671E+02
              0.170731714322565E+02
             -0.181730066674551E+02
             -0.410076380722918E+02
              0.148664908305294E+02
             -0.586188982198105E+02
             -0.197859873846829E+02
             -0.904664838150589E+02
              0.337031091412849E+02
              0.168838294035844E+02
              0.184509105987513E+01
             -0.707611636661716E+01
             -0.329764418328341E+02
             -0.759991465245838E+01
              0.125559096436612E+03
             -0.199090540524794E+02
             -0.437662643234625E+02
             -0.684113512186001E+02
              0.109361211136850E+02
             -0.342337085698157E+02
              0.591833616676433E+01
              0.261576484407392E+02
              0.102172729172913E+02
              0.278010206103542E+02
              0.119975720386035E+02
              0.629759894233151E+02
              0.316790051427629E+02
             -0.326751213182010E+02
              0.355998209530283E+02
              0.379499979601521E+02
              0.120851535395107E+02
              0.487018447131119E+02
             -0.225003263256771E+02
              0.765758598550652E+02
              0.172445693738703E+02
             -0.272259833047532E+02
             -0.723040920611589E+01
             -0.186519904595257E+02
              0.261873057190018E+02
             -0.234480226878490E+02
             -0.139350018890696E+00
             -0.848987976801288E+01
              0.810008685541093E+02
              0.500170662087708E+02
             -0.686982538526690E+02
             -0.476349608822704E+01
             -0.555380893795750E+02
             -0.159493631690458E+02
             -0.268236910112425E+02
              0.376280230222130E+01
              0.596636020177391E+00
             -0.257652573119632E+02
              0.815352287016407E+01
             -0.602909357909704E+01
             -0.128405289685428E+02
              0.859184148746032E+02
              0.181832104941719E+02
             -0.807400792996589E+02
             -0.458476411756969E+02
              0.945264181697156E+02
              0.277890052299443E+02
             -0.106833931274668E+02
              0.104585000848495E+03
             -0.194722211575555E+02
             -0.123076582007435E+02
             -0.539895753886412E+01
              0.107434936877036E+02
              0.272657665213231E+02
              0.779809037543396E+01
              0.305344941845634E+02
             -0.187971740673413E+02
             -0.303972102327344E+02
             -0.418111995102140E+02
             -0.476881939024424E+02
              0.464107522602520E+02
              0.126815273831940E+02
              0.387662026988221E+02
              0.133526844566928E+02
              0.855888222541020E+02
              0.156496282498912E+02
             -0.846327573879597E+02
             -0.334516145219027E+02
              0.133619616452336E+02
             -0.302777002168428E+02
              0.626688388358148E+02
             -0.886255077307851E+01
              0.148774923288437E+02
              0.497330294873247E+02
             -0.707571188740170E+02
              0.149759232756440E+03
              0.208723023903662E+02
              0.271372590926702E+02
              0.347732775916814E+02
              0.103573199126718E+02
             -0.156559500111746E+01
              0.358392064148596E+02
             -0.357248569501655E+02
              0.773641500482534E+02
              0.685132333664203E+02
             -0.406134184740786E+02
              0.149439984376611E+02
              0.670334861602403E+02
             -0.223902234741077E+02
              0.154511199078245E+02
              0.435074506332980E+02
              0.422270853718874E+02
             -0.784925144255257E+02
             -0.152687145519154E+02
             -0.356065088966714E+02
             -0.148226529253367E+01
             -0.765229788128782E+01
             -0.542316969164540E+01
             -0.180625635642149E+02
             -0.293919944436429E+02
              0.635262149521401E+01
              0.111738708690287E+02
              0.535742570498901E+02
             -0.390478960793083E+02
              0.374687662001198E+02
              0.438647434956995E+02
             -0.186421167768827E+02
              0.872389448591742E+02
             -0.698072934775870E+02
             -0.103216736596408E+03
             -0.661088078964131E+01
             -0.269634666625905E+01
              0.384949225417256E+01
              0.789837718788257E+02
             -0.106978877980067E+02
              0.416827699673773E+02
              0.443804354464428E+02
              0.385451699842488E+02
             -0.996316900839201E+01
              0.627582740947140E+02
             -0.133750762283591E+02
             -0.307523602190704E+02
             -0.479284392602800E+02
              0.588107227949108E+01
              0.369417649673595E+02
             -0.602707885598065E+01
              0.392972596619644E+02
             -0.177177727776365E+01
              0.655324475051195E+02
              0.187334619939683E+02
              0.999514389996338E+01
             -0.121641594898069E+02
              0.332213296368049E+02
              0.362778086664522E+02
              0.232666780487356E+02
             -0.509795965817062E+00
             -0.550659485688965E+02
              0.260942913961364E+02
              0.175289860685243E+02
              0.402530864622325E+02
              0.272320569155061E+02
              0.372602063356176E+02
             -0.603984979158102E+01
              0.251260273327711E+02
             -0.298728539194708E+02
             -0.196940519050872E+01
             -0.569321931320903E+02
             -0.308041748987552E+02
              0.378829329735400E+02
             -0.935816471750545E+02
              0.294443333595165E+02
              0.184036249222663E+02
              0.840556833903136E+02
             -0.300302893156691E+02
              0.329566506649373E+02
             -0.137808028030095E+02
             -0.464216528739471E+02
             -0.761644108228381E+02
             -0.527950953252281E+01
             -0.860227349103979E+02
              0.199674541097260E+02
             -0.247490324146576E+02
              0.305955053499252E+02
              0.237164361930375E+02
             -0.241276758983444E+02
             -0.265493143547153E+02
              0.391030764188814E+02
             -0.588516476027770E+02
             -0.116835548274677E+02
             -0.196188552605087E+02
              0.212771424905801E+02
             -0.889171981313541E+01
              0.363649735450898E+01
             -0.200649219561816E+02
              0.559028302151938E+02
             -0.439946437325793E+02
              0.787646986879292E+01
              0.585655297740220E+02
             -0.323526303238466E+02
              0.360891696836831E+01
             -0.880674475209128E+01
             -0.669531522302493E+02
             -0.482517869844810E+02
             -0.860548275004769E+01
              0.240965514633789E+02
              0.302586810220840E+02
              0.859006718968800E+01
             -0.416641780307259E+01
              0.151958429334837E+02
             -0.439901428165323E+02
              0.332555617783117E+01
             -0.531170353374224E+02
             -0.324925136942168E+02
              0.474950199049482E+02
             -0.295254257573980E+02
              0.622757983846669E+02
             -0.214805269873208E+02
              0.353661889749688E+02
              0.241839140254480E+02
             -0.644246769224669E+02
             -0.280405705993900E+02
              0.933732521804498E+01
             -0.372132218111838E+02
             -0.339667150299244E+02
             -0.830466775822715E+02
             -0.539433400891215E+02
             -0.510644051786707E+02
             -0.415693474138623E+02
             -0.983998915275663E+00
              0.997598250684297E+01
              0.105704420431951E+01
              0.153489486032588E+02
             -0.549571734910770E+02
              0.141947167823645E+02
              0.256921311163019E+02
             -0.666894583503959E+02
             -0.702073619537609E+02
             -0.431524231995641E+02
             -0.172271963961703E+02
              0.178514354566096E+02
              0.455180271666779E+01
             -0.425911529142793E+02
              0.366253619539466E+02
             -0.216231408123979E+02
              0.517564890081555E+02
             -0.887596787454780E+02
              0.598104722734720E+02
             -0.214905695628160E+01
             -0.368540203871527E+02
             -0.216451970373426E+02
              0.471559764436851E+01
              0.374821059894303E+02
             -0.756493278310791E+02
             -0.120837595134842E+02
             -0.216752314629447E+02
              0.511153150694767E+02
              0.865084998318794E+02
             -0.965690083962148E+02
              0.944258510229953E+02
              0.467671138940194E+02
             -0.725694403519216E+02
             -0.366607331370403E+02
              0.752171929380784E+02
              0.632130172382571E+02
             -0.181184698466334E+02
             -0.462915608655089E+01
              0.733149274636239E+01
              0.649426975025922E+02
             -0.508647334916274E+02
              0.158404131056039E+02
             -0.473722893356532E+01
              0.347642231620463E+02
             -0.747241191693154E+02
             -0.648185525997469E+01
             -0.351039523557360E+02
              0.460814838314893E+02
              0.468776456489595E+02
             -0.862315841906309E+02
             -0.487284841292107E+02
             -0.256212927516632E+02
             -0.339700494869007E+02
             -0.109378375406203E+02
             -0.242626696062586E+02
              0.427473598700317E+02
              0.401123366583619E+02
             -0.563714033380126E+01
             -0.416587793654817E+02
             -0.850871930881673E+02
              0.443312561624884E+02
             -0.523332618111955E+02
             -0.313239278591432E+02
              0.547020783936127E+01
             -0.322868760485923E+02
             -0.398148636319087E+02
             -0.240316546375247E+02
             -0.385740190567254E+02
             -0.270877168099656E+02
             -0.482655317053463E+02
              0.564021802008076E+02
              0.638162634347729E+02
             -0.172746314449842E+01
             -0.261226279282106E+02
             -0.624718878238605E+01
              0.441292433166225E+02
             -0.868054757767109E+02
             -0.146394113690837E+02
              0.523712140170414E+02
              0.664213213995029E+02
             -0.244285537614217E+02
              0.913753712884784E+01
              0.523788063555875E+02
              0.198147746795792E+02
             -0.826736320750751E+01
             -0.453375560751103E+02
[...]
              0.283425048804130E+02
              0.141826116964148E+03
              0.242393724018029E+02
              0.122586780885547E+02
             -0.464408018459542E+02
             -0.637827603869475E+02
             -0.188976741160685E+02
              0.329663177258843E+02
             -0.427306952761080E+01
              0.190202652542565E+02
              0.336364666892304E+02
             -0.586428448965055E+02
              0.222452974284251E+02
              0.581865899175850E+02
              0.552875568263402E+02
             -0.420127884251957E+01
             -0.136167926027372E+01
             -0.993135101192212E+01
             -0.482337876154199E+02
             -0.675011079108026E+02
              0.785539440453475E+02
             -0.523368569784324E+01
             -0.587864968254649E+02
              0.172693141168858E+01
             -0.205331952918805E+02
              0.938471417527454E+02
             -0.216710508577582E+02
             -0.353678270220161E+02
              0.335326735316087E+02
             -0.145814142612857E+02
              0.389655351038127E+02
             -0.235325693377087E+01
              0.101080922963633E+03
              0.489837133997133E+02
             -0.507817906174312E+01
             -0.322111258063604E+02
              0.232298259872298E+02
             -0.528605977450443E+02
             -0.127932118520594E+02
              0.585798564280568E+02
             -0.287769025112092E+02
             -0.438399689084084E+02
             -0.223309178807095E+02
              0.518707598893091E+02
              0.124739669761458E+02
             -0.848706234557836E+02
              0.303825995642613E+02
              0.151969311821443E+02
              0.577472629103804E+01
             -0.513546899750910E+02
             -0.377043781199455E+01
              0.323168925536240E+02
              0.512624432672365E+02
              0.632825174792208E+02
              0.229103729642083E+02
              0.765671234306041E+00
             -0.498126717035248E+02
             -0.510004770459255E+02
             -0.747719162020458E+02
             -0.617645873852382E+01
              0.309030308238266E+02
             -0.376819730186969E+01
              0.546949926362785E+02
             -0.318026315587438E+02
              0.166569355546987E+02
             -0.102786383464291E+02
             -0.289579636554152E+02
              0.585653316684103E+02
              0.792021759261024E+01
              0.604400132033875E+02
              0.507567080270587E+01
              0.264980026566368E+02
             -0.192759853978300E+02
              0.586156242997403E+02
             -0.111550462017647E+02
             -0.117978249016030E+00
             -0.790173551122670E+02
             -0.128272265080210E+02
              0.719007139799153E+02
              0.673024511889448E+02
              0.252058267117887E+02
             -0.130408962130603E+02
              0.345546722934964E+01
             -0.173642021656829E+02
             -0.207693292410443E+01
              0.907885274998539E+02
              0.125899538352871E+01
             -0.190569217838774E+02
             -0.110748344373814E+03
             -0.552436125924374E+02
             -0.375033543788039E+02
             -0.658495705346293E+02
             -0.555598170770485E+02
             -0.682525627197643E+02
             -0.447200348510847E+02
             -0.410844571431095E+02
             -0.451957682547618E+02
              0.483475330961161E+02
             -0.294041649389577E+02
             -0.994988592746529E+02
              0.418787024566073E+02
             -0.260128501797442E+02
             -0.790934549164144E+02
              0.943824834031305E+02
             -0.219797940868336E+02
              0.227981903769336E+02
              0.454904157488919E+02
             -0.132973314856019E+01
              0.254526011209448E+02
              0.468709708909239E+01
              0.414199895377987E+00
             -0.150671254940417E+02
             -0.715797450693936E+02
              0.133066297529343E+02
             -0.129376945540853E+03
              0.624339733735981E+02
             -0.440669731180775E+02
             -0.163032887041042E+02
             -0.158286043858275E+02
              0.715679327062737E+01
             -0.227637025749171E+02
              0.296966513271480E+02
             -0.520626215322985E+02
              0.367117556745718E+02
              0.370942645508910E+02
              0.168289228965260E+02
              0.100570238750894E+02
              0.197815987616967E+02
              0.622864780013327E+01
              0.310235807010506E+02
             -0.797903154522635E+01
             -0.592522253247746E+02
              0.757287217523827E+01
             -0.152751032180136E+02
             -0.193383404412111E+01
              0.506355676131647E+02
             -0.826757609590722E+02
             -0.148213371305354E+01
              0.581539801623535E+00
              0.995586225531133E+01
              0.318470850196725E+02
             -0.123626037163573E+02
              0.835748723709976E+02
              0.487411226609745E+02
             -0.183090103325567E+02
             -0.954906636800848E+01
              0.106060429825288E+01
              0.769479998242737E+02
             -0.586168056615917E+02
             -0.105753662766679E+03
              0.309167756161767E+02
             -0.163210735708054E+02
             -0.139467876652290E+02
              0.130653181500518E+02
              0.768404108679225E+02
              0.464113841071796E+02
             -0.153476993522610E+02
             -0.503091529789847E+02
             -0.550166137900405E+01
              0.306382964813336E+02
             -0.111601090374571E+02
             -0.755794680890244E+02
             -0.272579382050355E+01
             -0.890074916772133E+02
             -0.475656046972088E+02
              0.768731144768327E+02
             -0.483612068816655E+02
             -0.636570877212939E+02
             -0.514278696121477E+02
             -0.349843372261769E+02
              0.340895492012021E+02
              0.821537615710152E+02
             -0.358713451791738E+01
              0.276605027740908E+02
             -0.183799937265584E+02
             -0.694044335825051E+02
              0.465056928152596E+02
             -0.445065175523804E+02
              0.321561535841936E+02
              0.376098047735769E+02
             -0.655438329325614E+01
              0.390288627924304E+02
              0.438220003447693E+02
              0.100688925655098E+03
             -0.155885980437331E+02
             -0.456342746463318E+02
             -0.612840273555132E+02
             -0.124058748701240E+02
             -0.233045706628470E+02
              0.103002666324890E+03
             -0.449019917105374E+02
              0.105167875602377E+02
              0.970758325318877E+01
             -0.264620893421110E+02
             -0.798926411628695E+02
             -0.698793144821798E+01
              0.979835733495124E+02
              0.938831849801105E+01
              0.807587365738277E+01
             -0.527171026749473E+02
             -0.605517915428904E+02
             -0.564615778675814E+01
              0.500503991620038E+02
             -0.221867496369715E+02
              0.107965316149368E+03
             -0.435663645690681E+02
              0.146332635329038E+02
             -0.224037628884813E+02
             -0.718494138774700E+02
              0.168605066083768E+01
             -0.501704670736206E+02
             -0.760593048592576E+02
              0.616848724216828E+01
              0.237107603290698E+01
              0.514131108694459E+02
              0.187285644673154E+02
             -0.323675110043768E+02
              0.229882548356354E+02
             -0.811091104605425E+02
             -0.521708542244183E+02
              0.901689927045674E+02
              0.142217710145207E+02
             -0.187878818227085E+02
             -0.352242566730694E+02
             -0.270306640022034E+01
             -0.587988107355625E+01
              0.830251704980409E+02
              0.417711292420815E+02
             -0.165933654207520E+02
             -0.121649769080990E+02
             -0.427431181261233E+02
             -0.200474967405559E+02
             -0.669919792190582E+02
              0.459717969818318E+02
              0.546760470195258E+01
              0.144858404211584E+02
              0.156204246058163E+02
             -0.579077675182027E+00
             -0.168454133678898E+02
             -0.305500629891703E+01
             -0.100441958220609E+03
             -0.229855715816626E+02
             -0.766028286754261E+01
             -0.948330377063175E+01
              0.546308507898556E+02
              0.623911670202428E+02
              0.164853476543974E+02
             -0.970505283493583E+02
              0.647524708845358E+02
             -0.214926475109215E+02
             -0.377037416309544E+02
             -0.864176556363527E+02
             -0.386672058977087E+02
              0.564683946975202E+02
              0.244286529704732E+02
              0.513148608343113E+01
              0.292267068532018E+02
             -0.564889160112156E+02
             -0.422325032769726E+02
              0.515364459939144E+02
              0.387145639231024E+02
              0.518836415108734E+02
             -0.118867323163741E+01
              0.686077610172106E+01
              0.569400781803873E+02
              0.962636013878778E+02
             -0.300094198061958E+02
              0.322974201582751E+02
             -0.118852297162484E+02
             -0.412038492542834E+02
             -0.314399289648682E+02
             -0.300276462021673E+02
             -0.131439698858716E+02
             -0.523354979420503E+02
             -0.217115571591935E+02
             -0.141153794794072E+03
              0.368835567749211E+02
              0.206768081117284E+02
             -0.394340502566345E+01
             -0.380047178239805E+02
             -0.204113575955340E+02
             -0.526951088246046E+02
              0.151072873468998E+02
              0.819965182807283E+02
             -0.252069550936111E+02
             -0.163058168648367E+02
              0.238193858443925E+02
             -0.489398315535467E+02
              0.880280517043421E+02
              0.154327482728130E+02
              0.226128057859895E+02
              0.490229001670796E+02
              0.319050907589479E+01
              0.542088590564408E+02
              0.143118424923270E+02
             -0.106426396969141E+02
              0.732465672032802E+01
              0.776032453277196E+00
              0.726991076421646E+02
              0.101069258167587E+02
              0.120620941812617E+02
             -0.130015862559076E+02
              0.132242708746827E+02
             -0.911075824371249E+02
             -0.325761132619348E+02
             -0.457390910352706E+02
              0.485118982238608E+02
             -0.291104495234358E+02
             -0.658263739939528E+02
              0.538519878309691E+02
             -0.121873171055401E+02
              0.440040794239582E+02
             -0.898515480758538E+02
              0.231945969736048E+02
              0.856606723133896E+01
              0.584940175981887E+01
             -0.833130100941287E+01
             -0.903852899164201E+01
              0.479268842604222E+02
              0.198272658044777E+01
             -0.475230669692885E+02
             -0.176129472172994E+02
              0.276453458849111E+02
             -0.117913635554083E+03
             -0.929629643350870E+02
              0.395548688400390E+01
              0.117690744436990E+02
             -0.413343122516308E+02
             -0.387863030471777E+01
              0.112089392447516E+03
              0.306377097842737E+02
             -0.571537740674853E+02
              0.924997528485454E+01
             -0.964041432692596E+01
              0.105650612076275E+02
             -0.337780242012303E+02
              0.195456492674842E+02
              0.284618831196426E+02
             -0.300231670165226E+01
              0.108178227798147E+03
             -0.140129418843186E+02
             -0.315805791713103E+02
              0.142985791245480E+02
              0.466387669724148E+02
             -0.355685144363459E+02
             -0.317994466710130E+01
              0.964739480240220E+02
             -0.462763524178706E+01
              0.621617089215622E+02
              0.135419461842295E+02
             -0.901653672740542E+01
             -0.305322593137747E+02
              0.566478530693347E+02
             -0.514150345534542E+02
             -0.219582285455948E+01
             -0.169969173112859E+02
             -0.405124757822023E+02
              0.184952732011658E+02
              0.239361240775096E+02
              0.116000143033737E+02
              0.718509977159329E+00
             -0.384633285155083E+02
              0.215276210609439E+02
             -0.673448046623537E+01
             -0.246449049440890E+02
             -0.210542894452790E+02
              0.203103206832038E+02
             -0.596734482767272E+01
             -0.349189418995907E+02
             -0.106620572816229E+03
              0.103036203418609E+02
              0.248569473874425E+02
             -0.387402708236740E+02
             -0.211045687562670E+02
              0.807054971848551E+02
              0.652231201613210E+01
              0.310952305641974E+02
              0.392323553668678E+01
              0.321948189841351E+02
              0.645618035989457E+01
             -0.372972919158737E+02
             -0.234088775262842E+01
              0.876521908469857E+01
              0.273846889693903E+02
              0.781696107506419E+02
              0.507339680459197E+02
              0.182370126926003E+00
              0.169235818510995E+02
              0.613181268938864E+02
              0.235956860507856E+02
             -0.752667260778797E+02
             -0.273587163834830E+02
              0.150885110751253E+02
              0.562568370843820E+01
              0.255101578976953E+02
             -0.547616832165108E+02
              0.898991646117210E+01
              0.386030309226341E+02
              0.497928430196794E+02
             -0.434926439338093E+02
             -0.689824630489233E+01
             -0.208336148649016E+01
             -0.133712329353284E+02
             -0.365464847616891E+02
             -0.215240333232559E+02
             -0.204338624204219E+01
              0.792801740826263E+01
              0.421319426250833E+02
             -0.308325524835484E+02
              0.826092423259546E+02
              0.327510703712420E+02
              0.219856222395613E+02
              0.333054618474465E+02
              0.322997996445061E+02
              0.346267803278500E+02
              0.537137759168947E+02
             -0.433808642140987E+02
              0.619582495401700E+02
             -0.112259623216267E+03
              0.307297772662662E+02
             -0.106519601138188E+03
              0.854615457735752E+02
              0.690629483741195E+02
             -0.109899215239883E+02
             -0.493091347956279E+02
             -0.429526155237323E+02
             -0.623337046189449E+02
             -0.628744913610786E+02
              0.551843549168240E+02
              0.405539075762708E+02
              0.236821518525264E+02
              0.373610631873162E+02
              0.403312120499644E+02
             -0.382099383532408E+02
             -0.197854480886877E+02
              0.586540132759924E+02
             -0.116120851925661E+02
              0.551796885257224E+02
              0.699528234736838E+02
             -0.555535917528827E+01
             -0.706310349971366E+02
             -0.877904834550691E+00
             -0.246954482664465E+01
             -0.882716354645856E+01
             -0.180475110263444E+01
             -0.652902045585831E+02
             -0.210593130295034E+02
              0.539521136195620E+01
              0.899866373329877E+01
              0.468982076703518E+02
             -0.397833909674980E+02
              0.657109012786580E+02
             -0.425303301124659E+02
              0.210466293195720E+02
              0.350373820661621E+02
 
 BEEF-vdW xc energy contributions
           1 :   -782.812580961734     
           2 :    719.131511676983     
           3 :   -608.857940984122     
           4 :    479.009698032742     
           5 :   -357.071741210339     
           6 :    262.876558093958     
           7 :   -204.086097001635     
           8 :    176.161560637395     
           9 :   -166.401158388437     
          10 :    160.127121810765     
          11 :   -146.491097867091     
          12 :    121.707896975880     
          13 :   -88.8876982844544     
          14 :    55.1023809795179     
          15 :   -27.3758815843213     
          16 :    9.41704322015130     
          17 :  -0.364932542179076     
          18 :   -4.21868295286231     
          19 :    9.83897806951836     
          20 :   -20.3613141469592     
          21 :    36.3481415340284     
          22 :   -55.0933855524311     
          23 :    72.1677031247888     
          24 :   -83.6288058792410     
          25 :    87.8126497598162     
          26 :   -85.9241450120236     
          27 :    81.2509440400343     
          28 :   -77.4720981955863     
          29 :    76.9134275704444     
          30 :   -79.5724213834825     
          31 :   -85.8823496524672     
          32 :   -65.8223986223761     

     Writing output data file ./pwscf.save/
 
     init_run     :    342.04s CPU    346.86s WALL (       1 calls)
     electrons    :  13061.94s CPU  13193.96s WALL (       1 calls)
     forces       :    103.78s CPU    105.15s WALL (       1 calls)

     Called by init_run:
     wfcinit      :    293.89s CPU    297.69s WALL (       1 calls)
     potinit      :     45.05s CPU     45.40s WALL (       1 calls)
     hinit0       :      1.17s CPU      1.21s WALL (       1 calls)

     Called by electrons:
     c_bands      :  10893.93s CPU  10996.34s WALL (      19 calls)
     sum_band     :   1502.73s CPU   1515.52s WALL (      19 calls)
     v_of_rho     :    109.23s CPU    113.78s WALL (      20 calls)
     newd         :     30.67s CPU     42.97s WALL (      20 calls)
     PAW_pot      :    141.02s CPU    141.03s WALL (      20 calls)
     mix_rho      :    430.18s CPU    431.01s WALL (      19 calls)
     vdW_kernel   :     33.91s CPU     33.91s WALL (       1 calls)

     Called by c_bands:
     init_us_2    :     79.34s CPU     79.60s WALL (     520 calls)
     cegterg      :  10085.53s CPU  10187.60s WALL (     247 calls)

     Called by *egterg:
     cdiaghg      :    101.99s CPU    102.10s WALL (    1514 calls)
     h_psi        :   6436.48s CPU   6472.24s WALL (    1527 calls)
     s_psi        :   1079.74s CPU   1079.77s WALL (    1527 calls)
     g_psi        :     16.92s CPU     16.93s WALL (    1267 calls)

     Called by h_psi:
     h_psi:calbec :   1014.78s CPU   1014.92s WALL (    1527 calls)
     vloc_psi     :   4313.88s CPU   4315.20s WALL (    1527 calls)
     add_vuspsi   :   1080.37s CPU   1080.47s WALL (    1527 calls)

     General routines
     calbec       :   1483.43s CPU   1483.59s WALL (    1826 calls)
     fft          :     49.37s CPU     49.38s WALL (    3219 calls)
     ffts         :    138.78s CPU    138.80s WALL (    9517 calls)
     fftw         :   4401.12s CPU   4401.87s WALL (  322628 calls)
 
     Parallel routines
 
     PWSCF        :      3h46m CPU      3h49m WALL

 
   This run was terminated on:  18:39:25  20May2022            

=------------------------------------------------------------------------------=
   JOB DONE.
=------------------------------------------------------------------------------=
