
     Program PWSCF v.6.7MaX starts on 20May2022 at 14:51:26 

     This program is part of the open-source Quantum ESPRESSO suite
     for quantum simulation of materials; please cite
         "P. Giannozzi et al., J. Phys.:Condens. Matter 21 395502 (2009);
         "P. Giannozzi et al., J. Phys.:Condens. Matter 29 465901 (2017);
          URL http://www.quantum-espresso.org", 
     in publications or presentations arising from this work. More details at
     http://www.quantum-espresso.org/quote

     Parallel version (MPI), running on     1 processors

     MPI processes distributed on     1 nodes
     Reading input from c3h4-ensemble.in
Warning: card &CELL ignored
Warning: card / ignored

     Current dimensions of program PWSCF are:
     Max number of different atomic species (ntypx) = 10
     Max number of k-points (npk) =  40000
     Max angular momentum in pseudopotentials (lmaxx) =  3
     file Pt.pbe-n-kjpaw_psl.1.0.0.UPF: wavefunction(s)  6S 5D renormalized
     file C.pbe-n-kjpaw_psl.1.0.0.UPF: wavefunction(s)  2S 2P renormalized
     file H.pbe-kjpaw_psl.1.0.0.UPF: wavefunction(s)  1S renormalized

     **************************************************************************
     Initializing libbeef V0.1.2 with the BEEF-vdW functional.
     Citation: Wellendorff et al., PRB 85, 235149 (2012).
     **************************************************************************


     IMPORTANT: XC functional enforced from input :
     Exchange-correlation= BEEF-VDW
                           (   1   4  43  14   2   0   0)
     Any further DFT definition will be discarded
     Please, verify this is what you really want


     Subspace diagonalization in iterative solution of the eigenvalue problem:
     a serial algorithm will be used

 
     G-vector sticks info
     --------------------
     sticks:   dense  smooth     PW     G-vecs:    dense   smooth      PW
     Sum        4267    4267   1159               710561   710561  100073
 


     bravais-lattice index     =            0
     lattice parameter (alat)  =      16.0349  a.u.
     unit-cell volume          =   11311.9637 (a.u.)^3
     number of atoms/cell      =           43
     number of atomic types    =            3
     number of electrons       =       376.00
     number of Kohn-Sham states=          226
     kinetic-energy cutoff     =      60.0000  Ry
     charge density cutoff     =     240.0000  Ry
     scf convergence threshold =      1.0E-06
     mixing beta               =       0.7000
     number of iterations used =            8  local-TF  mixing
     Exchange-correlation= BEEF-VDW
                           (   1   4  43  14   2   0   0)

     celldm(1)=  16.034858  celldm(2)=   0.000000  celldm(3)=   0.000000
     celldm(4)=   0.000000  celldm(5)=   0.000000  celldm(6)=   0.000000

     crystal axes: (cart. coord. in units of alat)
               a(1) = (   1.000000   0.000000   0.000000 )  
               a(2) = (   0.500000   0.866025   0.000000 )  
               a(3) = (   0.000000   0.000000   3.168196 )  

     reciprocal axes: (cart. coord. in units 2 pi/alat)
               b(1) = (  1.000000 -0.577350  0.000000 )  
               b(2) = (  0.000000  1.154701  0.000000 )  
               b(3) = (  0.000000  0.000000  0.315637 )  


     PseudoPot. # 1 for Pt read from file:
     /users/bkreitz1/quantum-espresso/potentials/Pt.pbe-n-kjpaw_psl.1.0.0.UPF
     MD5 check sum: 04dc8a03c51ece93fc7b5889c2958091
     Pseudo is Projector augmented-wave + core cor, Zval = 10.0
     Generated using 'atomic' code by A. Dal Corso  v.6.7MaX
     Shape of augmentation charge: PSQ
     Using radial grid of 1277 points,  6 beta functions with: 
                l(1) =   0
                l(2) =   0
                l(3) =   1
                l(4) =   1
                l(5) =   2
                l(6) =   2
     Q(r) pseudized with 0 coefficients 


     PseudoPot. # 2 for C  read from file:
     /users/bkreitz1/quantum-espresso/potentials/C.pbe-n-kjpaw_psl.1.0.0.UPF
     MD5 check sum: a169b0ebad56f5ec0d79c4633f80bf22
     Pseudo is Projector augmented-wave + core cor, Zval =  4.0
     Generated using 'atomic' code by A. Dal Corso  v.6.7MaX
     Shape of augmentation charge: PSQ
     Using radial grid of 1073 points,  4 beta functions with: 
                l(1) =   0
                l(2) =   0
                l(3) =   1
                l(4) =   1
     Q(r) pseudized with 0 coefficients 


     PseudoPot. # 3 for H  read from file:
     /users/bkreitz1/quantum-espresso/potentials/H.pbe-kjpaw_psl.1.0.0.UPF
     MD5 check sum: ae98473e6dc62675f0d0baffdab24f65
     Pseudo is Projector augmented-wave, Zval =  1.0
     Generated using 'atomic' code by A. Dal Corso  v.6.7MaX
     Shape of augmentation charge: PSQ
     Using radial grid of  929 points,  2 beta functions with: 
                l(1) =   0
                l(2) =   0
     Q(r) pseudized with 0 coefficients 


     atomic species   valence    mass     pseudopotential
        Pt            10.00   195.08400     Pt( 1.00)
        C              4.00    12.01100     C ( 1.00)
        H              1.00     1.00800     H ( 1.00)

     No symmetry found



   Cartesian axes

     site n.     atom                  positions (alat units)
         1           Pt  tau(   1) = (   0.0000000   0.0000000   1.0017346  )
         2           Pt  tau(   2) = (   0.3333333   0.0000000   1.0017346  )
         3           Pt  tau(   3) = (   0.6666667   0.0000000   1.0017346  )
         4           Pt  tau(   4) = (   0.1666667   0.2886751   1.0017346  )
         5           Pt  tau(   5) = (   0.5000000   0.2886751   1.0017346  )
         6           Pt  tau(   6) = (   0.8333333   0.2886751   1.0017346  )
         7           Pt  tau(   7) = (   0.3333333   0.5773503   1.0017346  )
         8           Pt  tau(   8) = (   0.6666667   0.5773503   1.0017346  )
         9           Pt  tau(   9) = (   1.0000000   0.5773503   1.0017346  )
        10           Pt  tau(  10) = (   0.1666667   0.0962250   1.2739001  )
        11           Pt  tau(  11) = (   0.5000000   0.0962250   1.2739001  )
        12           Pt  tau(  12) = (   0.8333333   0.0962250   1.2739001  )
        13           Pt  tau(  13) = (   0.3333333   0.3849002   1.2739001  )
        14           Pt  tau(  14) = (   0.6666667   0.3849002   1.2739001  )
        15           Pt  tau(  15) = (   1.0000000   0.3849002   1.2739001  )
        16           Pt  tau(  16) = (   0.5000000   0.6735753   1.2739001  )
        17           Pt  tau(  17) = (   0.8333333   0.6735753   1.2739001  )
        18           Pt  tau(  18) = (   1.1666667   0.6735753   1.2739001  )
        19           Pt  tau(  19) = (  -0.0039854   0.1933704   1.5475605  )
        20           Pt  tau(  20) = (   0.3357615   0.1935938   1.5516275  )
        21           Pt  tau(  21) = (   0.6649001   0.1915348   1.5462019  )
        22           Pt  tau(  22) = (   0.1639334   0.4786312   1.5414271  )
        23           Pt  tau(  23) = (   0.4987565   0.4778290   1.5460614  )
        24           Pt  tau(  24) = (   0.8293766   0.4776164   1.5480158  )
        25           Pt  tau(  25) = (   0.3324123   0.7675562   1.5402864  )
        26           Pt  tau(  26) = (   0.6650706   0.7672075   1.5427869  )
        27           Pt  tau(  27) = (   0.9965003   0.7664469   1.5400339  )
        28           Pt  tau(  28) = (  -0.0036782  -0.0044641   1.8153576  )
        29           Pt  tau(  29) = (   0.3284870  -0.0057771   1.8166372  )
        30           Pt  tau(  30) = (   0.6606010  -0.0135424   1.8085240  )
        31           Pt  tau(  31) = (   0.1622251   0.2830318   1.8201590  )
        32           Pt  tau(  32) = (   0.4959555   0.2839100   1.8433422  )
        33           Pt  tau(  33) = (   0.8332040   0.2780597   1.8377094  )
        34           Pt  tau(  34) = (   0.3247196   0.5720800   1.8130887  )
        35           Pt  tau(  35) = (   0.6587207   0.5798088   1.8265832  )
        36           Pt  tau(  36) = (   0.9943388   0.5704188   1.8162805  )
        37           C   tau(  37) = (   0.6826338   0.2502151   2.0189597  )
        38           C   tau(  38) = (   0.5887464   0.3745038   2.0802408  )
        39           C   tau(  39) = (   0.6374116   0.5407171   2.0693416  )
        40           H   tau(  40) = (   0.6823973   0.1376886   2.0808406  )
        41           H   tau(  41) = (   0.4982792   0.3443507   2.1664613  )
        42           H   tau(  42) = (   0.5548796   0.6228575   2.1229308  )
        43           H   tau(  43) = (   0.7573347   0.5597770   2.1131144  )

     number of k points=    13  Marzari-Vanderbilt smearing, width (Ry)=  0.0200
                       cart. coord. in units 2pi/alat
        k(    1) = (   0.0000000   0.0000000   0.0000000), wk =   0.0800000
        k(    2) = (   0.0000000   0.2309401   0.0000000), wk =   0.1600000
        k(    3) = (   0.0000000   0.4618802   0.0000000), wk =   0.1600000
        k(    4) = (   0.2000000  -0.1154701   0.0000000), wk =   0.1600000
        k(    5) = (   0.2000000   0.1154701   0.0000000), wk =   0.1600000
        k(    6) = (   0.2000000   0.3464102   0.0000000), wk =   0.1600000
        k(    7) = (   0.2000000  -0.5773503   0.0000000), wk =   0.1600000
        k(    8) = (   0.2000000  -0.3464102   0.0000000), wk =   0.1600000
        k(    9) = (   0.4000000  -0.2309401   0.0000000), wk =   0.1600000
        k(   10) = (   0.4000000  -0.0000000   0.0000000), wk =   0.1600000
        k(   11) = (   0.4000000   0.2309401   0.0000000), wk =   0.1600000
        k(   12) = (   0.4000000  -0.6928203   0.0000000), wk =   0.1600000
        k(   13) = (   0.4000000  -0.4618802   0.0000000), wk =   0.1600000

     Dense  grid:   710561 G-vectors     FFT dimensions: (  80,  80, 256)

     Estimated max dynamical RAM per process >       8.63 GB

     Check: negative core charge=   -0.000002

     Initial potential from superposition of free atoms

     starting charge  375.99373, renormalised to  376.00000

     negative rho (up, down):  1.145E-02 0.000E+00


     %%%%%%%%%%%%%%%%%%%%%%%%%%%%%%%%%%%%%%%%%%%%%%%%%%%%%%%%%%%%%%%%%%%%%%%%
     %                                                                      %
     % You are using vdW-DF, which was implemented by the Thonhauser group. %
     % Please cite the following two papers that made this development      %
     % possible and the two reviews that describe the various versions:     %
     %                                                                      %
     %   T. Thonhauser et al., PRL 115, 136402 (2015).                      %
     %   T. Thonhauser et al., PRB 76, 125112 (2007).                       %
     %   K. Berland et al., Rep. Prog. Phys. 78, 066501 (2015).             %
     %   D.C. Langreth et al., J. Phys.: Condens. Matter 21, 084203 (2009). %
     %                                                                      %
     %                                                                      %
     % If you are calculating the stress with vdW-DF, please also cite:     %
     %                                                                      %
     %   R. Sabatini et al., J. Phys.: Condens. Matter 24, 424209 (2012).   %
     %                                                                      %
     %%%%%%%%%%%%%%%%%%%%%%%%%%%%%%%%%%%%%%%%%%%%%%%%%%%%%%%%%%%%%%%%%%%%%%%%


     Starting wfcs are  340 randomized atomic wfcs
     Checking if some PAW data can be deallocated... 

     total cpu time spent up to now is      314.5 secs

     Self-consistent Calculation

     iteration #  1     ecut=    60.00 Ry     beta= 0.70
     Davidson diagonalization with overlap
     ethr =  1.00E-02,  avg # of iterations =  2.1

     Threshold (ethr) on eigenvalues was too large:
     Diagonalizing with lowered threshold

     Davidson diagonalization with overlap
     ethr =  9.03E-04,  avg # of iterations =  2.4

     negative rho (up, down):  1.203E-02 0.000E+00

     total cpu time spent up to now is     1473.4 secs

     total energy              =  -27815.77891697 Ry
     estimated scf accuracy    <       3.67665730 Ry

     iteration #  2     ecut=    60.00 Ry     beta= 0.70
     Davidson diagonalization with overlap
     ethr =  9.78E-04,  avg # of iterations =  2.0

     negative rho (up, down):  9.881E-03 0.000E+00

     total cpu time spent up to now is     2018.5 secs

     total energy              =  -27815.98853683 Ry
     estimated scf accuracy    <       1.54508910 Ry

     iteration #  3     ecut=    60.00 Ry     beta= 0.70
     Davidson diagonalization with overlap
     ethr =  4.11E-04,  avg # of iterations =  2.0

     negative rho (up, down):  7.089E-03 0.000E+00

     total cpu time spent up to now is     2564.1 secs

     total energy              =  -27816.04849942 Ry
     estimated scf accuracy    <       0.65484272 Ry

     iteration #  4     ecut=    60.00 Ry     beta= 0.70
     Davidson diagonalization with overlap
     ethr =  1.74E-04,  avg # of iterations = 11.6

     negative rho (up, down):  5.275E-03 0.000E+00

     total cpu time spent up to now is     3252.6 secs

     total energy              =  -27816.09929810 Ry
     estimated scf accuracy    <       0.24165043 Ry

     iteration #  5     ecut=    60.00 Ry     beta= 0.70
     Davidson diagonalization with overlap
     ethr =  6.43E-05,  avg # of iterations =  6.2

     negative rho (up, down):  3.711E-03 0.000E+00

     total cpu time spent up to now is     3898.4 secs

     total energy              =  -27816.11794294 Ry
     estimated scf accuracy    <       0.06186600 Ry

     iteration #  6     ecut=    60.00 Ry     beta= 0.70
     Davidson diagonalization with overlap
     c_bands:  2 eigenvalues not converged
     ethr =  1.65E-05,  avg # of iterations = 12.4

     negative rho (up, down):  2.921E-03 0.000E+00

     total cpu time spent up to now is     4711.3 secs

     total energy              =  -27816.12781636 Ry
     estimated scf accuracy    <       0.01022126 Ry

     iteration #  7     ecut=    60.00 Ry     beta= 0.70
     Davidson diagonalization with overlap
     c_bands:  3 eigenvalues not converged
     c_bands:  2 eigenvalues not converged
     c_bands:  2 eigenvalues not converged
     c_bands:  2 eigenvalues not converged
     ethr =  2.72E-06,  avg # of iterations = 11.9

     negative rho (up, down):  2.725E-03 0.000E+00

     total cpu time spent up to now is     5576.6 secs

     total energy              =  -27816.13059714 Ry
     estimated scf accuracy    <       0.00363107 Ry

     iteration #  8     ecut=    60.00 Ry     beta= 0.70
     Davidson diagonalization with overlap
     c_bands:  1 eigenvalues not converged
     ethr =  9.66E-07,  avg # of iterations =  6.7

     negative rho (up, down):  2.739E-03 0.000E+00

     total cpu time spent up to now is     6185.6 secs

     total energy              =  -27816.13097799 Ry
     estimated scf accuracy    <       0.00268232 Ry

     iteration #  9     ecut=    60.00 Ry     beta= 0.70
     Davidson diagonalization with overlap
     ethr =  7.13E-07,  avg # of iterations =  2.5

     negative rho (up, down):  3.359E-03 0.000E+00

     total cpu time spent up to now is     6728.2 secs

     total energy              =  -27816.13118889 Ry
     estimated scf accuracy    <       0.00200110 Ry

     iteration # 10     ecut=    60.00 Ry     beta= 0.70
     Davidson diagonalization with overlap
     c_bands:  1 eigenvalues not converged
     ethr =  5.32E-07,  avg # of iterations = 11.5

     negative rho (up, down):  4.065E-03 0.000E+00

     total cpu time spent up to now is     7372.3 secs

     total energy              =  -27816.13122780 Ry
     estimated scf accuracy    <       0.00167059 Ry

     iteration # 11     ecut=    60.00 Ry     beta= 0.70
     Davidson diagonalization with overlap
     ethr =  4.44E-07,  avg # of iterations =  3.0

     negative rho (up, down):  9.252E-03 0.000E+00

     total cpu time spent up to now is     7912.4 secs

     total energy              =  -27816.13114996 Ry
     estimated scf accuracy    <       0.00136841 Ry

     iteration # 12     ecut=    60.00 Ry     beta= 0.70
     Davidson diagonalization with overlap
     ethr =  3.64E-07,  avg # of iterations =  3.6

     negative rho (up, down):  1.102E-02 0.000E+00

     total cpu time spent up to now is     8458.9 secs

     total energy              =  -27816.13120565 Ry
     estimated scf accuracy    <       0.00033999 Ry

     iteration # 13     ecut=    60.00 Ry     beta= 0.70
     Davidson diagonalization with overlap
     ethr =  9.04E-08,  avg # of iterations =  2.0

     negative rho (up, down):  1.217E-02 0.000E+00

     total cpu time spent up to now is     9012.2 secs

     total energy              =  -27816.13124154 Ry
     estimated scf accuracy    <       0.00017531 Ry

     iteration # 14     ecut=    60.00 Ry     beta= 0.70
     Davidson diagonalization with overlap
     ethr =  4.66E-08,  avg # of iterations =  2.0

     negative rho (up, down):  1.159E-02 0.000E+00

     total cpu time spent up to now is     9564.2 secs

     total energy              =  -27816.13127024 Ry
     estimated scf accuracy    <       0.00010760 Ry

     iteration # 15     ecut=    60.00 Ry     beta= 0.70
     Davidson diagonalization with overlap
     ethr =  2.86E-08,  avg # of iterations =  2.0

     negative rho (up, down):  1.201E-02 0.000E+00

     total cpu time spent up to now is    10109.3 secs

     total energy              =  -27816.13127896 Ry
     estimated scf accuracy    <       0.00001614 Ry

     iteration # 16     ecut=    60.00 Ry     beta= 0.70
     Davidson diagonalization with overlap
     ethr =  4.29E-09,  avg # of iterations =  5.4

     negative rho (up, down):  1.206E-02 0.000E+00

     total cpu time spent up to now is    10989.2 secs

     total energy              =  -27816.13128520 Ry
     estimated scf accuracy    <       0.00000958 Ry

     iteration # 17     ecut=    60.00 Ry     beta= 0.70
     Davidson diagonalization with overlap
     ethr =  2.55E-09,  avg # of iterations =  2.0

     negative rho (up, down):  1.216E-02 0.000E+00

     total cpu time spent up to now is    11536.4 secs

     total energy              =  -27816.13128567 Ry
     estimated scf accuracy    <       0.00000467 Ry

     iteration # 18     ecut=    60.00 Ry     beta= 0.70
     Davidson diagonalization with overlap
     ethr =  1.24E-09,  avg # of iterations =  1.8

     negative rho (up, down):  1.247E-02 0.000E+00

     total cpu time spent up to now is    12075.6 secs

     total energy              =  -27816.13128515 Ry
     estimated scf accuracy    <       0.00000445 Ry

     iteration # 19     ecut=    60.00 Ry     beta= 0.70
     Davidson diagonalization with overlap
     ethr =  1.18E-09,  avg # of iterations =  1.0

     negative rho (up, down):  1.274E-02 0.000E+00

     total cpu time spent up to now is    12575.3 secs

     total energy              =  -27816.13128472 Ry
     estimated scf accuracy    <       0.00000273 Ry

     iteration # 20     ecut=    60.00 Ry     beta= 0.70
     Davidson diagonalization with overlap
     ethr =  7.25E-10,  avg # of iterations =  1.0

     negative rho (up, down):  1.287E-02 0.000E+00

     total cpu time spent up to now is    13064.3 secs

     total energy              =  -27816.13128464 Ry
     estimated scf accuracy    <       0.00000126 Ry

     iteration # 21     ecut=    60.00 Ry     beta= 0.70
     Davidson diagonalization with overlap
     ethr =  3.35E-10,  avg # of iterations =  1.8

     negative rho (up, down):  1.278E-02 0.000E+00

     total cpu time spent up to now is    13575.2 secs

     End of self-consistent calculation

          k = 0.0000 0.0000 0.0000 ( 88865 PWs)   bands (ev):

   -13.8023 -10.7238  -7.5304  -6.6093  -5.8980  -5.3748  -4.6139  -4.2761
    -4.2632  -4.2254  -4.2231  -4.2150  -4.1787  -4.1485  -4.0386  -3.9756
    -3.7678  -3.6888  -3.6674  -3.6533  -3.6178  -3.5895  -3.4426  -3.2532
    -3.2281  -3.2136  -3.1967  -3.1507  -3.0340  -3.0038  -2.9942  -2.9877
    -2.9686  -2.9378  -2.8555  -2.8273  -2.7886  -2.7813  -2.7666  -2.7581
    -2.7348  -2.7047  -2.6875  -2.6758  -2.6668  -2.6552  -2.4026  -2.3022
    -2.1840  -2.1593  -2.1370  -2.1275  -2.1252  -2.0659  -2.0511  -2.0414
    -2.0304  -1.9177  -1.8962  -1.8657  -1.8473  -1.7137  -1.5605  -1.3749
    -1.3585  -1.3438  -1.3214  -1.2950  -1.2542  -1.2323  -1.1767  -1.1707
    -1.1439  -1.1355  -1.1297  -1.1192  -1.1093  -1.0909  -1.0835  -1.0514
    -1.0468  -1.0360  -1.0160  -0.9999  -0.9690  -0.9497  -0.9371  -0.9280
    -0.9006  -0.8686  -0.7810  -0.7678  -0.7333  -0.7082  -0.6795  -0.6693
    -0.6578  -0.6500  -0.6394  -0.5847  -0.5791  -0.5664  -0.5644  -0.5021
    -0.4739  -0.4647  -0.4320  -0.4295  -0.3724  -0.3611  -0.3173  -0.3008
    -0.2660  -0.2266  -0.1569  -0.0173   0.0554   0.0950   0.1311   0.1797
     0.1990   0.2102   0.2346   0.2646   0.3130   0.3224   0.3297   0.3695
     0.3913   0.4162   0.4631   0.4659   0.4892   0.5165   0.5886   0.6041
     0.6596   0.6909   0.7123   0.7157   0.7375   0.8452   0.8800   0.9068
     0.9099   0.9456   0.9639   0.9803   0.9939   1.0250   1.1775   1.1938
     1.2059   1.2176   1.2436   1.2657   1.2745   1.2845   1.3430   1.3770
     1.3920   1.3981   1.4034   1.4123   1.4155   1.4289   1.4474   1.4576
     1.4863   1.4879   1.5069   1.5156   1.5330   1.5866   1.5895   1.6185
     1.6216   1.6364   1.6482   1.6662   1.6990   1.7145   1.7690   1.7710
     1.7719   1.7840   1.7949   1.8133   1.8299   1.8360   1.8876   1.8883
     1.9242   1.9289   2.0410   2.0629   2.1596   2.1783   2.1953   2.2192
     2.2231   2.2474   2.3124   2.5283   2.6033   2.9839   3.0608   3.1030
     3.1119   3.6098   4.2207   4.6360   5.2683   5.3597   5.4149   5.6528
     5.7523   5.9705   6.1167   6.6776   6.7768   6.9993   7.0144   7.0400
     7.0552   7.0716

          k = 0.0000 0.2309 0.0000 ( 88740 PWs)   bands (ev):

   -13.8021 -10.7246  -7.5238  -6.4687  -5.8938  -5.2422  -4.7425  -4.5335
    -4.3588  -4.3121  -4.0993  -4.0759  -4.0321  -3.9971  -3.9527  -3.8964
    -3.8064  -3.7405  -3.6277  -3.5981  -3.5764  -3.5502  -3.4187  -3.2717
    -3.1828  -3.1751  -3.1512  -3.1093  -3.0725  -3.0467  -3.0325  -2.9937
    -2.9708  -2.9606  -2.8828  -2.8513  -2.8397  -2.8076  -2.7678  -2.7512
    -2.7358  -2.6181  -2.5730  -2.5516  -2.5261  -2.4942  -2.4330  -2.3348
    -2.2726  -2.2306  -2.2124  -2.1966  -2.1509  -2.1113  -2.0425  -1.9956
    -1.9510  -1.9088  -1.8831  -1.8324  -1.8161  -1.7589  -1.6364  -1.5650
    -1.4876  -1.4726  -1.4364  -1.4260  -1.3979  -1.3390  -1.3254  -1.2999
    -1.2791  -1.2389  -1.2316  -1.1974  -1.1768  -1.1340  -1.1082  -1.0897
    -1.0602  -1.0211  -1.0076  -0.9504  -0.9378  -0.9224  -0.8852  -0.8678
    -0.8526  -0.8268  -0.8021  -0.7714  -0.7457  -0.7385  -0.7072  -0.6985
    -0.6603  -0.6461  -0.6347  -0.6119  -0.5719  -0.5683  -0.5535  -0.5207
    -0.5116  -0.4863  -0.4729  -0.4644  -0.4069  -0.3671  -0.3313  -0.3091
    -0.2916  -0.2518  -0.2343  -0.2030  -0.1870  -0.1818  -0.1701  -0.0519
     0.0121   0.1059   0.1411   0.1612   0.1834   0.2239   0.2401   0.2429
     0.2751   0.3091   0.3984   0.4611   0.4927   0.5390   0.5632   0.6037
     0.6186   0.6457   0.6641   0.6804   0.7065   0.7387   0.7815   0.8171
     0.8412   0.8601   0.9124   0.9540   0.9723   1.0037   1.0261   1.0438
     1.1015   1.1265   1.1736   1.2085   1.2340   1.2547   1.2699   1.3053
     1.3398   1.3560   1.4034   1.4331   1.4482   1.4650   1.5084   1.5378
     1.5749   1.5894   1.6307   1.6412   1.7032   1.7187   1.7396   1.7497
     1.7739   1.8072   1.8338   1.8470   1.8627   1.8798   1.8997   1.9164
     1.9335   1.9910   2.0393   2.0655   2.0872   2.1059   2.1330   2.1561
     2.1768   2.2005   2.2161   2.2352   2.2991   2.3123   2.3519   2.4085
     2.4592   2.5032   2.5302   2.5488   2.8173   3.0834   3.2590   3.5398
     3.7147   3.8730   4.0694   4.7497   5.0104   5.3275   5.4689   5.7611
     5.8770   5.9515   6.0713   6.1673   6.3969   6.7270   6.7943   6.8809
     6.9333   7.1197

          k = 0.0000 0.4619 0.0000 ( 88790 PWs)   bands (ev):

   -13.8018 -10.7259  -7.5141  -6.0711  -5.8783  -5.4143  -4.8840  -4.5088
    -4.3943  -4.3512  -4.1950  -4.0151  -3.9825  -3.8347  -3.7328  -3.6958
    -3.6351  -3.6141  -3.5618  -3.4689  -3.4477  -3.4006  -3.3829  -3.3421
    -3.2918  -3.2330  -3.2246  -3.1824  -3.1746  -3.1523  -3.0966  -3.0515
    -3.0367  -2.8761  -2.8415  -2.7986  -2.7925  -2.7795  -2.7459  -2.6540
    -2.5930  -2.5578  -2.5391  -2.5180  -2.5129  -2.4160  -2.3594  -2.2938
    -2.2772  -2.2281  -2.2030  -2.1892  -2.1359  -2.1136  -2.0713  -2.0469
    -2.0184  -1.9973  -1.9472  -1.8739  -1.8558  -1.8345  -1.7882  -1.7237
    -1.6698  -1.6505  -1.6100  -1.5728  -1.4996  -1.4569  -1.4463  -1.4082
    -1.3801  -1.3661  -1.3165  -1.3081  -1.2737  -1.2395  -1.1934  -1.1870
    -1.1129  -1.0815  -1.0652  -1.0399  -1.0151  -0.9761  -0.9643  -0.9349
    -0.9129  -0.9074  -0.9032  -0.8880  -0.8555  -0.8379  -0.8172  -0.7759
    -0.7473  -0.7292  -0.7137  -0.6938  -0.6541  -0.5940  -0.5677  -0.5508
    -0.5076  -0.4996  -0.4797  -0.4596  -0.4248  -0.3829  -0.3537  -0.3121
    -0.2726  -0.2362  -0.2249  -0.2022  -0.1784  -0.1117  -0.0454  -0.0143
     0.0305   0.0436   0.0842   0.1229   0.1345   0.1649   0.1959   0.2068
     0.2332   0.2554   0.2618   0.2901   0.3150   0.3299   0.3515   0.3818
     0.4508   0.4786   0.5075   0.5143   0.5878   0.6009   0.6585   0.7402
     0.7535   0.7912   0.8266   0.9355   0.9477   0.9808   1.0123   1.0387
     1.0793   1.0981   1.1342   1.1448   1.1736   1.2247   1.2584   1.2814
     1.3260   1.3524   1.3645   1.3947   1.4057   1.4366   1.5255   1.5824
     1.5985   1.6192   1.6471   1.6934   1.7124   1.7699   1.7781   1.8317
     1.8583   1.9145   1.9262   1.9395   1.9657   2.0248   2.0386   2.0867
     2.0980   2.1158   2.1219   2.1761   2.1902   2.3005   2.3314   2.3447
     2.3689   2.3800   2.4690   2.4819   2.6077   2.7274   2.8636   3.0075
     3.2972   3.3722   3.4241   3.4820   3.6838   3.7856   4.0232   4.1351
     4.3853   4.5317   4.6342   4.6886   4.7757   4.8912   5.1189   5.2051
     5.3119   5.4177   5.5808   5.8970   6.1145   6.2887   6.5299   6.5397
     6.8360   7.0095

          k = 0.2000-0.1155 0.0000 ( 88740 PWs)   bands (ev):

   -13.8021 -10.7241  -7.5250  -6.4674  -5.8920  -5.2429  -4.7338  -4.5517
    -4.3294  -4.3138  -4.1286  -4.0831  -4.0136  -3.9931  -3.9548  -3.9007
    -3.7847  -3.7227  -3.6383  -3.5924  -3.5896  -3.5517  -3.4021  -3.2719
    -3.1967  -3.1703  -3.1458  -3.0964  -3.0875  -3.0588  -3.0510  -2.9738
    -2.9656  -2.9587  -2.8891  -2.8657  -2.8500  -2.7987  -2.7742  -2.7600
    -2.7374  -2.6324  -2.5834  -2.5485  -2.5348  -2.5058  -2.4267  -2.3274
    -2.2729  -2.2528  -2.2000  -2.1870  -2.1548  -2.1094  -2.0528  -1.9972
    -1.9524  -1.9255  -1.8804  -1.8398  -1.8062  -1.7663  -1.6405  -1.5525
    -1.5162  -1.4656  -1.4387  -1.4244  -1.3990  -1.3369  -1.3232  -1.2899
    -1.2793  -1.2463  -1.2157  -1.1950  -1.1634  -1.1520  -1.1148  -1.0897
    -1.0521  -1.0179  -1.0060  -0.9602  -0.9328  -0.9240  -0.8916  -0.8710
    -0.8632  -0.8261  -0.8010  -0.7672  -0.7532  -0.7450  -0.7102  -0.6902
    -0.6651  -0.6423  -0.6111  -0.5977  -0.5763  -0.5596  -0.5404  -0.5185
    -0.4993  -0.4861  -0.4725  -0.4297  -0.4080  -0.3597  -0.3341  -0.3140
    -0.2887  -0.2533  -0.2362  -0.2044  -0.1866  -0.1778  -0.1709  -0.0395
     0.0072   0.0607   0.1398   0.1641   0.1959   0.2269   0.2354   0.2639
     0.3157   0.3536   0.4278   0.4407   0.4869   0.5392   0.5773   0.5972
     0.6268   0.6434   0.6654   0.6869   0.7377   0.7532   0.8041   0.8230
     0.8389   0.8513   0.8763   0.9527   0.9657   1.0083   1.0325   1.0601
     1.0865   1.1412   1.1798   1.2106   1.2188   1.2324   1.2652   1.3076
     1.3227   1.3608   1.4054   1.4182   1.4400   1.4650   1.5022   1.5467
     1.5704   1.5934   1.6092   1.6302   1.6939   1.7186   1.7333   1.7567
     1.7752   1.8007   1.8247   1.8449   1.8616   1.8786   1.8984   1.9197
     1.9375   1.9844   2.0386   2.0629   2.0794   2.0943   2.1202   2.1478
     2.1737   2.1956   2.2156   2.2273   2.2879   2.3254   2.3531   2.3596
     2.4762   2.5105   2.5258   2.6365   2.8208   2.9142   3.3946   3.4993
     3.7086   3.8082   4.2708   4.6863   4.9080   5.3913   5.5283   5.6543
     5.8781   5.9243   6.1058   6.1656   6.3962   6.7208   6.7981   6.8756
     7.0119   7.1504

          k = 0.2000 0.1155 0.0000 ( 88740 PWs)   bands (ev):

   -13.8021 -10.7238  -7.5258  -6.4668  -5.8924  -5.2440  -4.7212  -4.5551
    -4.3589  -4.3146  -4.0938  -4.0756  -4.0231  -3.9817  -3.9578  -3.9103
    -3.7884  -3.7268  -3.6971  -3.5897  -3.5561  -3.5342  -3.3643  -3.2879
    -3.2195  -3.1697  -3.1514  -3.1464  -3.0789  -3.0580  -3.0020  -2.9790
    -2.9632  -2.9317  -2.9054  -2.8667  -2.8431  -2.8054  -2.7724  -2.7657
    -2.7331  -2.6470  -2.5838  -2.5510  -2.5292  -2.4827  -2.4079  -2.3514
    -2.2589  -2.2546  -2.2151  -2.1777  -2.1608  -2.1172  -2.0589  -2.0169
    -1.9285  -1.8947  -1.8774  -1.8438  -1.8388  -1.7523  -1.6402  -1.5762
    -1.5028  -1.4735  -1.4549  -1.4243  -1.3918  -1.3517  -1.3238  -1.2954
    -1.2719  -1.2506  -1.2092  -1.1956  -1.1620  -1.1319  -1.1134  -1.0903
    -1.0399  -1.0136  -1.0041  -0.9604  -0.9321  -0.9188  -0.8958  -0.8717
    -0.8647  -0.8334  -0.8170  -0.7889  -0.7736  -0.7306  -0.7076  -0.6926
    -0.6637  -0.6417  -0.6141  -0.5952  -0.5764  -0.5499  -0.5433  -0.5146
    -0.4974  -0.4891  -0.4693  -0.4345  -0.4213  -0.3766  -0.3359  -0.2962
    -0.2618  -0.2507  -0.2402  -0.2060  -0.1865  -0.1821  -0.1688  -0.0896
     0.0383   0.0726   0.1391   0.1790   0.2099   0.2285   0.2453   0.2708
     0.3049   0.3615   0.4252   0.4480   0.4727   0.5379   0.5618   0.6023
     0.6299   0.6453   0.6666   0.6788   0.7307   0.7448   0.7842   0.8384
     0.8410   0.8506   0.8750   0.9666   0.9885   1.0123   1.0442   1.0608
     1.1020   1.1432   1.1758   1.1957   1.2140   1.2286   1.2808   1.3029
     1.3308   1.3585   1.3967   1.4269   1.4395   1.4674   1.4854   1.5405
     1.5740   1.5852   1.6113   1.6325   1.6989   1.7264   1.7378   1.7649
     1.7766   1.8020   1.8271   1.8456   1.8568   1.8777   1.8859   1.9292
     1.9432   1.9877   2.0440   2.0766   2.0941   2.1054   2.1224   2.1461
     2.1611   2.1843   2.2010   2.2195   2.2765   2.3013   2.3352   2.3573
     2.4755   2.5161   2.5185   2.6333   2.8027   2.9843   3.3308   3.5340
     3.7036   3.8196   4.2254   4.6875   5.0025   5.3567   5.4828   5.6532
     5.8701   5.9050   6.0486   6.1828   6.4046   6.7681   6.8188   6.8895
     6.9837   7.0755

          k = 0.2000 0.3464 0.0000 ( 88778 PWs)   bands (ev):

   -13.8019 -10.7248  -7.5180  -6.1934  -5.8847  -5.0051  -4.9803  -4.9542
    -4.4734  -4.1164  -3.9339  -3.9223  -3.8841  -3.8757  -3.8324  -3.8187
    -3.7616  -3.7348  -3.6868  -3.6517  -3.4733  -3.3265  -3.3069  -3.2923
    -3.2835  -3.2072  -3.1797  -3.1314  -3.0926  -3.0771  -3.0419  -2.9843
    -2.9585  -2.9474  -2.9198  -2.8901  -2.8463  -2.8331  -2.7995  -2.7680
    -2.7349  -2.6605  -2.5285  -2.4862  -2.4014  -2.3535  -2.3202  -2.3038
    -2.2900  -2.2614  -2.2322  -2.2018  -2.1404  -2.0971  -2.0572  -2.0424
    -1.9631  -1.9210  -1.8915  -1.8672  -1.8266  -1.8184  -1.7707  -1.7401
    -1.6875  -1.6013  -1.5613  -1.5295  -1.4575  -1.4451  -1.4380  -1.4086
    -1.3798  -1.3524  -1.3348  -1.2530  -1.2305  -1.1900  -1.1698  -1.1431
    -1.1121  -1.0840  -1.0618  -1.0304  -1.0009  -0.9615  -0.9342  -0.9073
    -0.8930  -0.8713  -0.8565  -0.8268  -0.8146  -0.7990  -0.7690  -0.7594
    -0.7170  -0.6735  -0.6410  -0.6286  -0.6068  -0.5776  -0.5691  -0.5350
    -0.5284  -0.5164  -0.4964  -0.4638  -0.4378  -0.4296  -0.4098  -0.3883
    -0.3722  -0.3130  -0.2836  -0.2606  -0.2334  -0.1814  -0.1443  -0.0967
    -0.0269   0.0369   0.0596   0.1092   0.1352   0.1709   0.2067   0.2223
     0.2660   0.2778   0.3129   0.3330   0.3665   0.4023   0.4091   0.4679
     0.5377   0.5741   0.6001   0.6269   0.6479   0.6693   0.7062   0.7696
     0.8058   0.8353   0.8615   0.8860   0.9312   0.9715   0.9922   1.0119
     1.0653   1.1093   1.1360   1.1530   1.1745   1.1860   1.2172   1.2270
     1.2492   1.2752   1.3316   1.3877   1.4222   1.4416   1.5340   1.5792
     1.6659   1.7059   1.7324   1.7640   1.7873   1.8348   1.8653   1.8889
     1.9138   1.9471   1.9506   1.9626   1.9868   1.9977   2.0144   2.0415
     2.0786   2.1097   2.1365   2.1565   2.1819   2.2206   2.2467   2.2912
     2.3370   2.4013   2.4160   2.4554   2.4938   2.5394   2.6300   2.6802
     2.9193   3.1173   3.1692   3.4623   3.5463   3.6863   3.7148   3.9505
     4.0704   4.4576   4.5000   4.6343   4.6599   4.9929   5.3500   5.5287
     5.5779   5.8579   6.0109   6.1020   6.2056   6.3895   6.5316   6.5695
     6.7321   6.8279

          k = 0.2000-0.5774 0.0000 ( 88754 PWs)   bands (ev):

   -13.8017 -10.7257  -7.5128  -5.9154  -5.6765  -5.6100  -5.0550  -4.6762
    -4.4847  -4.2527  -4.0776  -3.9077  -3.8505  -3.7498  -3.7175  -3.6101
    -3.5912  -3.5416  -3.4893  -3.4663  -3.4341  -3.3789  -3.3577  -3.3382
    -3.3276  -3.2918  -3.2561  -3.1869  -3.1682  -3.1379  -3.1231  -3.1019
    -3.0085  -2.9329  -2.8937  -2.8504  -2.8160  -2.7900  -2.7578  -2.7238
    -2.6845  -2.6686  -2.5938  -2.5389  -2.4330  -2.4131  -2.3329  -2.3123
    -2.2631  -2.2159  -2.1834  -2.1293  -2.1010  -2.0372  -2.0131  -1.9759
    -1.9498  -1.9257  -1.8659  -1.8440  -1.8104  -1.7807  -1.7550  -1.7141
    -1.6946  -1.6831  -1.6630  -1.6493  -1.6069  -1.5436  -1.5264  -1.4775
    -1.4551  -1.3995  -1.3795  -1.3571  -1.2909  -1.2797  -1.2353  -1.2118
    -1.1970  -1.1799  -1.1414  -1.1134  -1.0935  -1.0495  -1.0361  -1.0065
    -0.9786  -0.9226  -0.8824  -0.8588  -0.8387  -0.8149  -0.7707  -0.7337
    -0.7144  -0.6727  -0.6443  -0.6278  -0.6035  -0.5816  -0.5713  -0.5518
    -0.5371  -0.5261  -0.4971  -0.4686  -0.4359  -0.4110  -0.4019  -0.3924
    -0.3707  -0.3554  -0.3537  -0.3166  -0.2932  -0.1256  -0.1053  -0.0647
    -0.0333   0.0230   0.0523   0.0693   0.0862   0.1464   0.1625   0.1872
     0.1939   0.2427   0.2698   0.2994   0.3168   0.3430   0.3948   0.4557
     0.4673   0.4811   0.5680   0.5904   0.6183   0.6717   0.7226   0.7579
     0.7713   0.8192   0.8354   0.8753   0.8888   0.9003   0.9289   0.9774
     1.0034   1.0474   1.0614   1.0999   1.1051   1.1482   1.1722   1.2177
     1.2699   1.2913   1.3831   1.4084   1.4518   1.5386   1.5968   1.6069
     1.6650   1.7014   1.7238   1.7628   1.7958   1.8495   1.8895   1.9051
     1.9140   1.9504   1.9828   1.9967   2.0618   2.0756   2.0874   2.1082
     2.1248   2.1444   2.1564   2.2341   2.2683   2.2941   2.3535   2.3753
     2.3946   2.4149   2.4434   2.5158   2.6021   2.8024   3.1751   3.2268
     3.5136   3.5334   3.7347   3.7922   3.8701   3.9286   4.1694   4.3559
     4.5113   4.5861   4.6948   4.8823   5.0377   5.0855   5.1778   5.2388
     5.3438   5.4373   5.5524   5.7069   5.8700   6.0468   6.1870   6.4945
     6.5838   6.6133

          k = 0.2000-0.3464 0.0000 ( 88778 PWs)   bands (ev):

   -13.8018 -10.7253  -7.5167  -6.1952  -5.8833  -5.0013  -4.9803  -4.9586
    -4.4710  -4.1322  -3.9434  -3.9071  -3.8881  -3.8691  -3.8205  -3.8030
    -3.7569  -3.7296  -3.7063  -3.6668  -3.4324  -3.3624  -3.3321  -3.2972
    -3.2765  -3.2205  -3.1907  -3.0964  -3.0922  -3.0666  -3.0247  -2.9753
    -2.9565  -2.9272  -2.9187  -2.9024  -2.8367  -2.8283  -2.8144  -2.7854
    -2.7458  -2.6652  -2.5500  -2.4971  -2.4132  -2.3530  -2.3434  -2.3113
    -2.2786  -2.2609  -2.2192  -2.1931  -2.1307  -2.0850  -2.0354  -2.0244
    -2.0070  -1.9362  -1.9042  -1.8590  -1.8263  -1.8139  -1.7713  -1.7357
    -1.6301  -1.5886  -1.5528  -1.5211  -1.4824  -1.4599  -1.4432  -1.4037
    -1.3745  -1.3466  -1.3101  -1.2491  -1.2178  -1.1982  -1.1755  -1.1666
    -1.1500  -1.0763  -1.0633  -1.0431  -0.9902  -0.9572  -0.9286  -0.9096
    -0.8837  -0.8621  -0.8557  -0.8459  -0.8041  -0.7804  -0.7729  -0.7565
    -0.7195  -0.6994  -0.6450  -0.6189  -0.6106  -0.5897  -0.5537  -0.5303
    -0.5200  -0.5075  -0.4846  -0.4622  -0.4489  -0.4284  -0.4142  -0.3914
    -0.3762  -0.3313  -0.2773  -0.2525  -0.2337  -0.1673  -0.1382  -0.0973
    -0.0444   0.0303   0.0615   0.1104   0.1338   0.1694   0.2018   0.2153
     0.2556   0.2939   0.3129   0.3430   0.3680   0.3827   0.4194   0.4744
     0.5114   0.5578   0.6171   0.6363   0.6490   0.6911   0.7023   0.7607
     0.7950   0.8260   0.8602   0.8913   0.9236   0.9634   0.9852   0.9991
     1.0846   1.1032   1.1330   1.1517   1.1734   1.1877   1.2123   1.2246
     1.2481   1.2659   1.3357   1.3923   1.4439   1.4531   1.5252   1.5726
     1.6490   1.7081   1.7373   1.7639   1.7869   1.8358   1.8587   1.8940
     1.9049   1.9370   1.9466   1.9548   1.9795   1.9885   2.0120   2.0316
     2.0808   2.1130   2.1395   2.1510   2.1859   2.2043   2.2406   2.3368
     2.3663   2.4277   2.4384   2.4499   2.4983   2.5465   2.6247   2.6893
     2.9264   3.0898   3.1511   3.4360   3.5254   3.6749   3.7264   3.9345
     4.1643   4.4440   4.4840   4.6124   4.6669   5.0939   5.2697   5.4218
     5.7733   5.8568   5.9827   6.1450   6.2580   6.4207   6.5050   6.5735
     6.6807   6.7544

          k = 0.4000-0.2309 0.0000 ( 88790 PWs)   bands (ev):

   -13.8018 -10.7247  -7.5168  -6.0619  -5.8787  -5.4195  -4.8779  -4.5086
    -4.3657  -4.3484  -4.2431  -4.0238  -3.9005  -3.8348  -3.7330  -3.6946
    -3.6453  -3.6121  -3.5142  -3.5034  -3.4383  -3.4065  -3.3821  -3.3139
    -3.2913  -3.2302  -3.2186  -3.1876  -3.1722  -3.1507  -3.0909  -3.0574
    -3.0485  -2.9745  -2.8758  -2.8092  -2.7950  -2.7751  -2.7607  -2.6805
    -2.6038  -2.5690  -2.5514  -2.5330  -2.5017  -2.4262  -2.4058  -2.3168
    -2.2705  -2.2261  -2.1876  -2.1643  -2.1351  -2.1197  -2.0756  -2.0506
    -2.0153  -2.0054  -1.9721  -1.8861  -1.8539  -1.8209  -1.7700  -1.7512
    -1.6834  -1.6552  -1.6240  -1.5872  -1.5011  -1.4703  -1.4277  -1.4188
    -1.3965  -1.3387  -1.3059  -1.2915  -1.2518  -1.2017  -1.1862  -1.1452
    -1.1072  -1.0895  -1.0497  -1.0353  -1.0170  -0.9940  -0.9737  -0.9353
    -0.9201  -0.8998  -0.8848  -0.8759  -0.8625  -0.8288  -0.8008  -0.7832
    -0.7399  -0.7165  -0.7022  -0.6866  -0.6391  -0.6099  -0.5791  -0.5495
    -0.5253  -0.4963  -0.4614  -0.4500  -0.4271  -0.3710  -0.3329  -0.3064
    -0.2684  -0.2385  -0.1917  -0.1858  -0.1494  -0.1129  -0.0646  -0.0155
     0.0258   0.0575   0.0754   0.1142   0.1370   0.1641   0.2023   0.2238
     0.2479   0.2636   0.2724   0.2904   0.3109   0.3331   0.3536   0.4261
     0.4619   0.4835   0.5200   0.5367   0.5783   0.6251   0.6818   0.7280
     0.7649   0.8010   0.8202   0.9351   0.9466   0.9700   1.0207   1.0411
     1.0830   1.0958   1.1256   1.1586   1.1632   1.2062   1.2597   1.2754
     1.3304   1.3514   1.3735   1.3827   1.4102   1.4346   1.5098   1.5280
     1.5977   1.6235   1.6538   1.7019   1.7214   1.7726   1.7812   1.8265
     1.8584   1.8966   1.9265   1.9496   1.9645   2.0140   2.0545   2.0860
     2.0923   2.1085   2.1179   2.1588   2.1856   2.3023   2.3187   2.3328
     2.3628   2.3770   2.4610   2.4914   2.6076   2.6671   2.7373   2.9697
     3.2309   3.3695   3.4203   3.5982   3.7189   3.8751   4.0176   4.1578
     4.3658   4.4849   4.6366   4.6645   4.8091   4.8697   5.0281   5.1713
     5.2969   5.5413   5.6468   5.8277   6.1361   6.1865   6.4499   6.6155
     6.8018   7.0085

          k = 0.4000-0.0000 0.0000 ( 88778 PWs)   bands (ev):

   -13.8019 -10.7240  -7.5199  -6.1884  -5.8855  -5.0067  -4.9815  -4.9479
    -4.4697  -4.1255  -3.9306  -3.9101  -3.8869  -3.8747  -3.8202  -3.7946
    -3.7624  -3.7335  -3.6954  -3.6652  -3.4568  -3.3192  -3.3096  -3.2979
    -3.2488  -3.2148  -3.1793  -3.1424  -3.0904  -3.0681  -3.0505  -2.9978
    -2.9637  -2.9406  -2.9281  -2.9089  -2.8405  -2.8280  -2.7965  -2.7906
    -2.7636  -2.6623  -2.6205  -2.4508  -2.4265  -2.3621  -2.3400  -2.3255
    -2.2853  -2.2585  -2.2396  -2.1871  -2.1558  -2.0775  -2.0428  -2.0276
    -1.9784  -1.9451  -1.8956  -1.8541  -1.8223  -1.8114  -1.7936  -1.7573
    -1.6332  -1.5905  -1.5773  -1.5334  -1.4830  -1.4633  -1.4454  -1.4107
    -1.3947  -1.3549  -1.2912  -1.2286  -1.2119  -1.1945  -1.1686  -1.1402
    -1.1145  -1.0908  -1.0352  -1.0204  -0.9990  -0.9663  -0.9459  -0.9022
    -0.8905  -0.8790  -0.8549  -0.8312  -0.8039  -0.7948  -0.7724  -0.7297
    -0.6824  -0.6733  -0.6532  -0.6253  -0.5996  -0.5746  -0.5625  -0.5438
    -0.5239  -0.5022  -0.4807  -0.4676  -0.4419  -0.4400  -0.3959  -0.3853
    -0.3608  -0.3265  -0.2720  -0.2447  -0.2118  -0.1837  -0.1401  -0.1139
    -0.0642   0.0344   0.0735   0.1177   0.1588   0.1865   0.2261   0.2381
     0.2594   0.2862   0.3109   0.3418   0.3790   0.3918   0.4147   0.4517
     0.4999   0.5989   0.6080   0.6256   0.6512   0.6914   0.7144   0.7835
     0.7940   0.8312   0.8603   0.8939   0.9320   0.9668   0.9969   1.0345
     1.0712   1.1041   1.1201   1.1427   1.1522   1.1828   1.2069   1.2319
     1.2534   1.2867   1.3222   1.3866   1.4181   1.4331   1.5351   1.6076
     1.6308   1.7079   1.7349   1.7509   1.7821   1.8414   1.8745   1.8870
     1.9115   1.9350   1.9503   1.9698   1.9812   1.9937   2.0148   2.0366
     2.0768   2.1104   2.1384   2.1508   2.1776   2.2100   2.2458   2.3099
     2.3452   2.4019   2.4209   2.4426   2.4704   2.5163   2.6237   2.6476
     2.9685   3.0928   3.2142   3.3501   3.5106   3.6346   3.7252   3.9689
     4.1916   4.4142   4.5716   4.6072   4.7506   4.9432   5.2620   5.3630
     5.7512   5.8562   5.9624   6.1468   6.2129   6.3713   6.5152   6.5845
     6.7143   6.8141

          k = 0.4000 0.2309 0.0000 ( 88790 PWs)   bands (ev):

   -13.8018 -10.7239  -7.5190  -6.0589  -5.8803  -5.4148  -4.8879  -4.5091
    -4.3967  -4.3440  -4.1978  -4.0031  -3.9602  -3.8235  -3.7135  -3.6893
    -3.6527  -3.6128  -3.5662  -3.4611  -3.4147  -3.4053  -3.3770  -3.3010
    -3.2720  -3.2461  -3.2238  -3.1970  -3.1678  -3.1416  -3.1046  -3.0769
    -3.0408  -3.0234  -2.8312  -2.8207  -2.7902  -2.7744  -2.7576  -2.6812
    -2.6310  -2.5633  -2.5578  -2.5263  -2.4905  -2.4354  -2.3390  -2.3098
    -2.2812  -2.2357  -2.1860  -2.1741  -2.1345  -2.1152  -2.0827  -2.0590
    -2.0352  -1.9878  -1.9456  -1.9008  -1.8646  -1.8263  -1.7844  -1.7386
    -1.6866  -1.6642  -1.6247  -1.5983  -1.5223  -1.4793  -1.4348  -1.4083
    -1.3909  -1.3649  -1.3034  -1.2851  -1.2361  -1.2022  -1.1663  -1.1356
    -1.1087  -1.0688  -1.0498  -1.0340  -1.0183  -1.0017  -0.9804  -0.9574
    -0.9258  -0.9037  -0.8973  -0.8640  -0.8415  -0.8353  -0.8210  -0.7774
    -0.7554  -0.7301  -0.7087  -0.7025  -0.6366  -0.6122  -0.5783  -0.5505
    -0.5178  -0.4996  -0.4767  -0.4182  -0.4048  -0.3758  -0.3472  -0.3060
    -0.2599  -0.2328  -0.2005  -0.1762  -0.1500  -0.0979  -0.0534   0.0096
     0.0418   0.0673   0.0855   0.1176   0.1520   0.1673   0.1892   0.2127
     0.2326   0.2499   0.2599   0.2753   0.3098   0.3391   0.3562   0.3897
     0.4678   0.5011   0.5221   0.5410   0.5630   0.6019   0.7242   0.7502
     0.7830   0.8082   0.8264   0.9299   0.9596   0.9740   1.0053   1.0395
     1.0777   1.0974   1.1303   1.1580   1.1701   1.1978   1.2567   1.3001
     1.3259   1.3490   1.3619   1.3822   1.4123   1.4393   1.5024   1.5494
     1.6154   1.6276   1.6455   1.6972   1.7371   1.7731   1.7827   1.8220
     1.8616   1.8965   1.9273   1.9612   1.9791   2.0038   2.0450   2.0801
     2.0972   2.1038   2.1106   2.1405   2.1744   2.2737   2.3090   2.3369
     2.3486   2.3687   2.4328   2.4881   2.6071   2.6633   2.7930   3.0312
     3.2007   3.3709   3.4272   3.6088   3.7127   3.8409   3.9814   4.1494
     4.4225   4.5226   4.6409   4.6621   4.7962   4.8544   5.0090   5.1273
     5.2902   5.5328   5.5968   5.8464   6.0385   6.2020   6.4337   6.6057
     6.8060   6.9808

          k = 0.4000-0.6928 0.0000 ( 88754 PWs)   bands (ev):

   -13.8017 -10.7244  -7.5158  -5.9026  -5.6692  -5.6265  -5.0549  -4.6807
    -4.4699  -4.2668  -4.0680  -3.8860  -3.8531  -3.7361  -3.7089  -3.6304
    -3.5988  -3.5329  -3.4773  -3.4384  -3.4001  -3.3685  -3.3616  -3.3391
    -3.3186  -3.3063  -3.2733  -3.1781  -3.1671  -3.1546  -3.1189  -3.0966
    -3.0473  -2.9911  -2.9075  -2.8867  -2.8265  -2.7976  -2.7618  -2.7203
    -2.6949  -2.6452  -2.5794  -2.5407  -2.4528  -2.4132  -2.3378  -2.3079
    -2.2836  -2.2167  -2.1990  -2.1440  -2.0581  -2.0320  -2.0040  -1.9712
    -1.9476  -1.9416  -1.8996  -1.8611  -1.8300  -1.7636  -1.7515  -1.7226
    -1.7071  -1.6934  -1.6689  -1.6278  -1.6169  -1.5946  -1.5238  -1.4858
    -1.4560  -1.4242  -1.3583  -1.3346  -1.2855  -1.2490  -1.2294  -1.1965
    -1.1805  -1.1668  -1.1445  -1.0980  -1.0692  -1.0604  -1.0071  -0.9995
    -0.9660  -0.9286  -0.8815  -0.8580  -0.8503  -0.8187  -0.7969  -0.7204
    -0.6849  -0.6629  -0.6312  -0.6165  -0.6039  -0.5873  -0.5700  -0.5296
    -0.5195  -0.5063  -0.4972  -0.4832  -0.4544  -0.4256  -0.4109  -0.3903
    -0.3831  -0.3599  -0.3510  -0.3293  -0.2640  -0.1485  -0.1107  -0.0525
    -0.0311   0.0259   0.0563   0.0836   0.1226   0.1349   0.1455   0.1843
     0.2318   0.2401   0.2608   0.2929   0.3331   0.3618   0.3866   0.4433
     0.4642   0.5056   0.5758   0.6101   0.6399   0.6755   0.7093   0.7669
     0.7902   0.8207   0.8447   0.8777   0.8976   0.9190   0.9275   0.9879
     1.0108   1.0316   1.0595   1.0781   1.0957   1.1564   1.1780   1.2071
     1.2620   1.2888   1.3569   1.4196   1.4551   1.5648   1.5897   1.6061
     1.6282   1.7062   1.7206   1.7464   1.8291   1.8390   1.8884   1.9220
     1.9339   1.9541   1.9656   1.9894   2.0353   2.0744   2.0916   2.0960
     2.1299   2.1422   2.1682   2.2262   2.2779   2.2905   2.3518   2.3717
     2.3824   2.3991   2.4384   2.5372   2.6178   2.7011   3.0624   3.2586
     3.5241   3.5480   3.7708   3.8449   3.8688   3.9692   4.1327   4.3768
     4.4908   4.6329   4.6497   4.7784   5.0102   5.1110   5.1680   5.2539
     5.3702   5.4441   5.5122   5.6944   5.8759   5.9507   6.2087   6.4147
     6.5154   6.6286

          k = 0.4000-0.4619 0.0000 ( 88754 PWs)   bands (ev):

   -13.8017 -10.7249  -7.5145  -5.9036  -5.6712  -5.6275  -5.0510  -4.6442
    -4.5173  -4.2833  -4.0025  -3.9022  -3.8496  -3.7582  -3.7183  -3.6308
    -3.5956  -3.5202  -3.4986  -3.4654  -3.3999  -3.3800  -3.3604  -3.3432
    -3.3194  -3.2976  -3.2310  -3.1894  -3.1567  -3.1535  -3.1253  -3.1054
    -3.0116  -2.9660  -2.9078  -2.8866  -2.8436  -2.8020  -2.7636  -2.7218
    -2.7026  -2.6768  -2.5690  -2.5427  -2.4555  -2.3991  -2.3520  -2.3148
    -2.2622  -2.2375  -2.2000  -2.1292  -2.0818  -2.0472  -1.9895  -1.9656
    -1.9488  -1.9270  -1.9079  -1.8354  -1.8280  -1.7835  -1.7549  -1.7218
    -1.7109  -1.6853  -1.6631  -1.6370  -1.6212  -1.5813  -1.5029  -1.4887
    -1.4282  -1.4226  -1.3514  -1.3380  -1.2834  -1.2648  -1.2242  -1.2063
    -1.1917  -1.1716  -1.1373  -1.0939  -1.0810  -1.0570  -1.0149  -1.0055
    -0.9538  -0.9093  -0.8738  -0.8559  -0.8439  -0.8160  -0.7873  -0.7357
    -0.6886  -0.6713  -0.6620  -0.6157  -0.6015  -0.5787  -0.5639  -0.5464
    -0.5283  -0.5058  -0.4970  -0.4741  -0.4545  -0.4218  -0.4052  -0.3936
    -0.3687  -0.3595  -0.3514  -0.3176  -0.2726  -0.1415  -0.1015  -0.0454
    -0.0386   0.0006   0.0563   0.0633   0.0994   0.1440   0.1650   0.1774
     0.2095   0.2551   0.2626   0.3079   0.3281   0.3548   0.3931   0.4394
     0.4743   0.4898   0.5790   0.6150   0.6393   0.6768   0.7238   0.7509
     0.7719   0.8130   0.8408   0.8806   0.9065   0.9123   0.9391   0.9842
     0.9977   1.0472   1.0654   1.0847   1.1049   1.1512   1.1715   1.2106
     1.2615   1.2869   1.3625   1.4192   1.4543   1.5459   1.5855   1.5994
     1.6382   1.6764   1.7204   1.7660   1.8128   1.8391   1.8885   1.9003
     1.9243   1.9508   1.9707   1.9932   2.0614   2.0720   2.0925   2.1012
     2.1294   2.1406   2.1632   2.2316   2.2769   2.3094   2.3532   2.3682
     2.3883   2.4191   2.4410   2.5393   2.5987   2.7054   3.1002   3.2550
     3.5250   3.5421   3.7442   3.8232   3.8728   3.9509   4.0961   4.3637
     4.5076   4.6256   4.6842   4.8384   5.0448   5.1007   5.1886   5.2810
     5.2992   5.4318   5.5449   5.7978   5.8272   5.9186   6.2478   6.4326
     6.5665   6.6464

     the Fermi energy is     2.1627 ev

!    total energy              =  -27816.13128471 Ry

     total all-electron energy =  -1326876.188980 Ry
     estimated scf accuracy    <       0.00000030 Ry
     smearing contrib. (-TS)   =       0.00119481 Ry
     internal energy E=F+TS    =  -27816.13247951 Ry

     The total energy is F=E-TS. E is the sum of the following terms:
     one-electron contribution =  -27016.57143004 Ry
     hartree contribution      =   13815.82071793 Ry
     xc contribution           =    -907.49965451 Ry
     ewald contribution        =   11785.74721352 Ry
     one-center paw contrib.   =  -25493.62932643 Ry

     convergence has been achieved in  21 iterations

     negative rho (up, down):  1.278E-02 0.000E+00

     Forces acting on atoms (cartesian axes, Ry/au):

     atom    1 type  1   force =    -0.00075957    0.00020293   -0.00690439
     atom    2 type  1   force =     0.00190118    0.00080342   -0.00543922
     atom    3 type  1   force =     0.00065576    0.00025013   -0.00466460
     atom    4 type  1   force =     0.00048986   -0.00027498   -0.00531174
     atom    5 type  1   force =    -0.00078866   -0.00040936   -0.00344925
     atom    6 type  1   force =     0.00121622   -0.00035302   -0.00291493
     atom    7 type  1   force =     0.00048680    0.00075988   -0.00394232
     atom    8 type  1   force =     0.00064541    0.00165000   -0.00334871
     atom    9 type  1   force =     0.00028775    0.00031649   -0.00346641
     atom   10 type  1   force =     0.00202206    0.00298498    0.00358935
     atom   11 type  1   force =    -0.00368788    0.00281663    0.00609326
     atom   12 type  1   force =     0.00351722    0.00177475    0.00415209
     atom   13 type  1   force =    -0.00075311   -0.00479364    0.00582116
     atom   14 type  1   force =    -0.00047861   -0.00037070    0.01321144
     atom   15 type  1   force =    -0.00161657   -0.00370278    0.00612964
     atom   16 type  1   force =     0.00113836    0.00054806    0.00249018
     atom   17 type  1   force =    -0.00271775   -0.00146623    0.00165782
     atom   18 type  1   force =    -0.00048634   -0.00092455   -0.00198149
     atom   19 type  1   force =    -0.00000886    0.00017604   -0.00013303
     atom   20 type  1   force =    -0.00016733   -0.00003937   -0.00042616
     atom   21 type  1   force =     0.00001159   -0.00001722    0.00004591
     atom   22 type  1   force =    -0.00000299   -0.00002990   -0.00016651
     atom   23 type  1   force =     0.00013326    0.00016922    0.00030669
     atom   24 type  1   force =    -0.00013567    0.00010354    0.00014994
     atom   25 type  1   force =    -0.00009139    0.00004141   -0.00024824
     atom   26 type  1   force =    -0.00011753   -0.00003093    0.00018638
     atom   27 type  1   force =     0.00003662    0.00021471   -0.00001471
     atom   28 type  1   force =    -0.00001073    0.00024539    0.00005371
     atom   29 type  1   force =    -0.00032299   -0.00005685    0.00017676
     atom   30 type  1   force =     0.00003932    0.00010481    0.00003428
     atom   31 type  1   force =    -0.00015315    0.00013543    0.00017994
     atom   32 type  1   force =    -0.00049361   -0.00018190   -0.00038856
     atom   33 type  1   force =     0.00040754    0.00030113    0.00000274
     atom   34 type  1   force =    -0.00013945    0.00014696    0.00017366
     atom   35 type  1   force =     0.00048611   -0.00008358    0.00082281
     atom   36 type  1   force =    -0.00019247   -0.00001095    0.00025467
     atom   37 type  2   force =    -0.00016430   -0.00221204   -0.00041668
     atom   38 type  2   force =    -0.00066541    0.00012534   -0.00058012
     atom   39 type  2   force =     0.00486807    0.00137300    0.00200403
     atom   40 type  3   force =    -0.00025545    0.00063602   -0.00051678
     atom   41 type  3   force =    -0.00027096   -0.00005783   -0.00007236
     atom   42 type  3   force =    -0.00099992   -0.00031486   -0.00051333
     atom   43 type  3   force =    -0.00286247   -0.00054957   -0.00263695

     Total force =     0.007473     Total SCF correction =     0.001447
     SCF correction compared to forces is large: reduce conv_thr to get better values

     negative rho (up, down):  1.278E-02 0.000E+00

     negative rho (up, down):  1.278E-02 0.000E+00

     negative rho (up, down):  1.278E-02 0.000E+00

     negative rho (up, down):  1.278E-02 0.000E+00

     negative rho (up, down):  1.278E-02 0.000E+00

     negative rho (up, down):  1.278E-02 0.000E+00

     negative rho (up, down):  1.278E-02 0.000E+00

     negative rho (up, down):  1.278E-02 0.000E+00

     negative rho (up, down):  1.278E-02 0.000E+00

     negative rho (up, down):  1.278E-02 0.000E+00

     negative rho (up, down):  1.278E-02 0.000E+00

     negative rho (up, down):  1.278E-02 0.000E+00

     negative rho (up, down):  1.278E-02 0.000E+00

     negative rho (up, down):  1.278E-02 0.000E+00

     negative rho (up, down):  1.278E-02 0.000E+00

     negative rho (up, down):  1.278E-02 0.000E+00

     negative rho (up, down):  1.278E-02 0.000E+00

     negative rho (up, down):  1.278E-02 0.000E+00

     negative rho (up, down):  1.278E-02 0.000E+00

     negative rho (up, down):  1.278E-02 0.000E+00

     negative rho (up, down):  1.278E-02 0.000E+00

     negative rho (up, down):  1.278E-02 0.000E+00

     negative rho (up, down):  1.278E-02 0.000E+00

     negative rho (up, down):  1.278E-02 0.000E+00

     negative rho (up, down):  1.278E-02 0.000E+00

     negative rho (up, down):  1.278E-02 0.000E+00

     negative rho (up, down):  1.278E-02 0.000E+00

     negative rho (up, down):  1.278E-02 0.000E+00

     negative rho (up, down):  1.278E-02 0.000E+00

     negative rho (up, down):  1.278E-02 0.000E+00

     negative rho (up, down):  1.278E-02 0.000E+00

     negative rho (up, down):  1.278E-02 0.000E+00

     negative rho (up, down):  1.278E-02 0.000E+00

     negative rho (up, down):  1.278E-02 0.000E+00
 BEEFens 2000 ensemble energies
             -0.607597759481108E+02
             -0.362086395371068E+01
             -0.158552746937282E+02
              0.429853937788073E+02
             -0.221307072843653E+02
             -0.205472951254937E+02
             -0.352735633231159E+02
             -0.866110598201542E+02
             -0.465389899888639E+02
             -0.472890843596572E+02
             -0.369764920337377E+02
              0.228175791318480E+01
              0.409242837291322E+01
              0.760816963128076E+01
              0.266143239329483E+01
              0.475436033452993E+02
             -0.208957997999373E+02
             -0.230303985405137E+02
              0.193425534398870E+02
             -0.112500244932893E+03
              0.536935009492378E+02
             -0.289934706698084E+02
             -0.334760899675258E+01
             -0.114038544185154E+02
             -0.883495589318568E+01
             -0.463944303989288E+01
              0.883651690723548E+02
             -0.187331204879838E+02
             -0.901383890273780E+01
             -0.519169658256261E+02
              0.816173407373187E+02
             -0.187302718852726E+02
             -0.375457498798958E+02
              0.249416680894788E+02
             -0.283790857523587E+01
              0.164573308174306E+02
             -0.483915953269616E+01
              0.107966292589139E+02
              0.288969517521062E+02
             -0.103372228067634E+03
              0.558905344666810E+02
              0.142534449143515E+02
             -0.172849755359982E+01
             -0.361884178958726E+02
              0.123297401246788E+02
             -0.146866528925037E+02
              0.399031799921802E+02
              0.365137015058858E+02
             -0.308153863745089E+02
             -0.275546655127297E+02
             -0.328871284572749E+02
             -0.352525226269214E+02
              0.136674457048663E+02
             -0.491490107099919E+02
              0.115732661950119E+02
              0.623814641840586E+02
              0.636241730627719E+02
              0.356070086501136E+02
              0.154204554433936E+02
              0.270916736370407E+02
              0.892282175027531E+02
              0.212757082281190E+02
             -0.549087221166657E+02
             -0.157131222884146E+02
             -0.236286740878625E+02
              0.630620962172431E+02
             -0.774084588891731E+02
             -0.672414884194321E+02
             -0.259845651819472E+02
             -0.649562876224547E+01
             -0.471279529536477E+02
              0.270931844975700E+02
              0.802263224456135E+01
              0.869396979255185E+01
             -0.397580813589089E+02
             -0.347269501035806E+02
             -0.542541322590812E+02
              0.390614930886603E+02
             -0.296319210740776E+02
              0.265567931071495E+02
             -0.716278693058222E+01
             -0.318328164359281E+02
             -0.576688221217295E+02
             -0.176877558086726E+02
             -0.908492378292306E+01
             -0.124810297424327E+02
              0.412539049555358E+02
              0.683699169795275E+02
             -0.386108536540051E+02
             -0.795518909363814E+02
             -0.219824012179689E+02
              0.111615494103256E+03
             -0.592975331007145E+02
              0.356477876549894E+02
             -0.959773378905516E+01
             -0.663793253205772E+02
              0.254695983539231E+02
              0.398187376851606E+02
             -0.199069324588019E+02
              0.400561015816464E+02
             -0.296283336555468E+02
             -0.478979098265787E+02
              0.867062478693301E+02
              0.454479953830229E+02
              0.336522004174149E+02
              0.146666077177501E+02
              0.205941620887955E+02
              0.857432845227457E+02
             -0.256878877945437E+02
              0.787821629989116E+01
             -0.142550389653277E+03
              0.181190034778531E+02
             -0.716967685695758E+02
              0.151051257373509E+02
              0.204808865895701E+02
             -0.333381910198758E+02
             -0.557670572130727E+02
              0.654401060009627E+01
             -0.304572564843461E+02
              0.308478822386307E+02
             -0.530330881456641E+02
              0.170263323751374E+01
             -0.357391924107430E+02
             -0.424963571508374E+01
             -0.100827091519997E+01
              0.181614156950700E+02
              0.142389146599589E+01
             -0.651679971492877E+01
              0.591141239647154E+02
              0.909229937980119E+02
              0.484728292481285E+02
              0.830847064266231E+02
             -0.115159043683184E+02
              0.143248111265722E+02
              0.541488225037746E+02
             -0.110570937814273E+02
             -0.736432395860246E+02
             -0.384657929505877E+02
             -0.522244567745769E+02
             -0.276974764927240E+02
              0.327571255258538E+02
             -0.116919046968831E+03
             -0.187208619026923E+02
              0.414685729665661E+02
             -0.386725762094762E+02
             -0.365570841758240E+02
              0.544913842723553E+02
              0.401140216208865E+02
             -0.354111418718968E+02
              0.138137962391344E+02
             -0.273488037104619E+02
              0.343557657601588E+02
              0.446582790047506E+01
              0.211236140385073E+02
             -0.885458833390032E+02
             -0.480618055614321E+02
             -0.995813771084863E+01
              0.323370355223591E+01
             -0.367186559710493E+02
              0.106146983423801E+03
             -0.230884763715380E+02
             -0.398912131453883E+02
              0.389243538513247E+02
             -0.494661672402131E+02
             -0.363906457055443E+02
              0.325340724773832E+02
              0.124759460318916E+02
              0.164762772207514E+02
              0.116843436340123E+02
             -0.133001245920859E+02
              0.225127253420524E+02
              0.590675303109077E+02
             -0.311854610860942E+02
              0.162776392989414E+02
              0.935283309683438E+02
              0.341072351070960E+02
             -0.728169419250582E+01
             -0.188953687420551E+02
              0.153507746471239E+03
             -0.164466435981170E+02
              0.363740193365109E+02
              0.194843408647065E+02
              0.361779057819228E+02
              0.892996660927248E+02
              0.543513511433413E+02
             -0.241395254504987E+01
              0.228133096015463E+02
              0.485569003317771E+02
              0.363901518068607E+02
             -0.526091364799146E+02
              0.936957801677303E+02
             -0.826329521336092E+02
             -0.198118900694843E+02
              0.583399930252296E+02
              0.679948245226576E+01
              0.791784038531182E+01
              0.341039833439910E+02
              0.299286170910726E+02
              0.353886523750558E+02
             -0.638283315218953E+02
              0.286878969512316E+01
             -0.297793823603271E+02
             -0.870655710462192E+01
             -0.146848194216329E+01
             -0.724828680414996E+01
             -0.415436737483509E+01
              0.860115345164346E+02
             -0.101129643563632E+02
             -0.276636728922929E+02
             -0.496474629751495E+01
              0.140244898992773E+02
             -0.564744048829379E+02
             -0.407979304164725E+02
             -0.382450062371705E+02
             -0.630959720671339E+02
             -0.170051660949606E+02
             -0.447942343782475E+02
              0.163415983651377E+02
             -0.238316323209565E+01
             -0.104527438336773E+02
             -0.934736375429992E+01
              0.807704296051463E+01
             -0.242728137236798E+02
              0.690019599990932E+02
             -0.808068737246463E+02
             -0.141198040652056E+02
             -0.174156238919771E+02
              0.182031694226752E+02
              0.214942783912846E+02
             -0.464487934295380E+02
             -0.201999963876506E+02
              0.441372555286512E+02
             -0.276324456051851E+02
              0.187221476816216E+02
              0.383056092082336E+02
             -0.322356955696091E+01
              0.114265416961226E+03
             -0.230097833275356E+02
             -0.341292938159514E+02
              0.577586991974903E+01
             -0.228560622850038E+02
              0.528340030502161E+02
             -0.337860010976880E+02
              0.106785451245919E+02
              0.640929795467588E+02
             -0.126285449969645E+02
              0.120353557916813E+03
              0.125992215449366E+03
             -0.650507090488093E+02
              0.591165998725752E+02
              0.166936990481331E+02
             -0.518335969175318E+02
              0.216321686520419E+02
              0.354423563473636E+02
              0.363303846333424E+02
              0.135186710044823E+01
              0.160045195359147E+02
              0.696514161612574E+02
             -0.247259680763378E+02
              0.181350128591019E+02
              0.739458039353274E+02
             -0.372883479759576E+02
             -0.130094755585955E+02
              0.509254235655006E+02
              0.297846591348010E+02
              0.781157856539832E+02
              0.223107639943344E+02
              0.627335075147863E+01
              0.280726025331469E+02
              0.383734294863975E+02
             -0.472423346042315E+02
              0.333905194877588E+01
              0.130152944874766E+02
              0.113961888109922E+02
              0.220827881106829E+02
             -0.575454566369104E+02
              0.366433182152850E+02
             -0.444361137981526E+02
             -0.347760032788914E+02
              0.178280085817029E+02
             -0.181423219805635E+02
              0.555881394011465E+02
             -0.255978661525091E+02
              0.267073844178298E+02
              0.368674856488235E+02
              0.830009437863015E+02
              0.575118166399507E+02
              0.462190928841836E+02
             -0.105343862734181E+02
             -0.393517768001396E+01
             -0.332271218947234E+02
              0.751573110730007E+02
              0.798116356994038E+02
              0.362360840794862E+02
             -0.192310570010966E+02
              0.512372427491643E+02
             -0.162683600601767E+02
              0.214741788538007E+02
              0.615283968427512E+02
              0.214472384433520E+01
             -0.104529298554627E+02
             -0.283108480623716E+02
             -0.512391543198754E+02
              0.946310589965876E+02
              0.440409034350572E+02
             -0.559921399009443E+02
             -0.966081269497346E+01
              0.250019257669523E+02
             -0.995816310969866E+01
              0.592906020095780E+02
              0.152398549608114E+02
              0.800223015213315E+02
              0.279843156251729E+02
             -0.264124994188206E+02
              0.249087409344394E+02
             -0.503121060331830E+01
             -0.323849131424606E+02
              0.133269507033660E+02
              0.205792312205433E+02
              0.933850201467899E+02
              0.798145804205535E+02
              0.551707624907584E+02
              0.731395446801550E+02
              0.800388508685666E+01
             -0.273871891610277E+02
              0.163370231377302E+02
             -0.368352725256802E+02
             -0.476961389002921E+02
             -0.564112778741787E+02
             -0.266916420195508E+02
             -0.109809826429716E+03
             -0.291901214335028E+02
             -0.838207870537040E+02
              0.210356892200028E+02
             -0.477441453873223E+02
              0.397531134069542E+02
             -0.942549370619703E+02
             -0.330419128776575E+02
              0.548795280732890E+02
              0.207929148649136E+02
             -0.831709226605481E+02
              0.631524924668078E+02
             -0.257167328276241E+02
              0.513040197929078E+02
             -0.242794902681277E+02
             -0.752135906758641E+02
              0.112175592088566E+02
             -0.612093876419424E+02
             -0.168025705071490E+02
             -0.149687633943241E+01
              0.418604912509969E+02
              0.127153908436217E+03
             -0.462122458117314E+02
             -0.363140066007153E+02
             -0.988487172083467E+00
             -0.130164703380441E+02
             -0.823513925946362E+02
             -0.597363415062248E+02
              0.517708720286650E+02
             -0.289097338141983E+02
              0.169774114076645E+02
             -0.489988833374873E+02
             -0.132149826136137E+02
             -0.437756534488647E+02
              0.566152284565152E+02
              0.151135764842795E+02
             -0.231972526715049E+02
             -0.127287390727112E+02
              0.668505093429096E+01
             -0.618949043999987E+01
              0.442023312053247E+02
             -0.252278615641980E+02
              0.278982460071268E+01
              0.339630217453486E+02
              0.171344075132561E+02
             -0.160118278463129E+02
              0.156440110794079E+03
              0.538722853494068E+02
              0.119155213987131E+01
              0.161842431227861E+02
             -0.615348247259228E+02
              0.315467449000225E+02
             -0.722728935414754E+02
             -0.252621389102283E+02
             -0.523304511435713E+02
             -0.220339582298432E+02
              0.569932350812813E+02
             -0.537552423920887E+02
              0.161312033975183E+02
             -0.409484906634225E+01
              0.387882647829031E+01
             -0.434239779466008E+02
             -0.478792959037422E+02
             -0.403247016309763E+01
             -0.425049850184764E+02
             -0.217423793521984E+02
             -0.439069492967988E+02
             -0.119279080611701E+02
             -0.359310922688107E+02
             -0.516998410343362E+02
              0.212780198631145E+02
             -0.209361324321161E+02
              0.188088356812771E+02
              0.974142930510286E+01
             -0.738862049866919E+02
             -0.548529005344152E+02
             -0.398913345486459E+02
              0.354407453966510E+02
              0.268931696881549E+01
             -0.627243081707022E+02
              0.586301221954559E+02
             -0.401635665836896E+02
              0.545703158731837E+02
             -0.289911256369387E+02
             -0.446389082625477E+02
              0.298822923166171E+02
             -0.658580151015041E+02
             -0.380063776264386E+02
              0.673150224911782E+02
              0.204262038455089E+02
             -0.360640361896528E+02
              0.489916500962790E+02
             -0.174122928680516E+02
             -0.323099584534059E+02
             -0.302044119313474E+02
             -0.501297307249426E+02
              0.249744448032873E+02
             -0.933932723954622E+02
             -0.840912858187833E+02
             -0.734458102631106E+01
             -0.307151523878337E+02
             -0.576357673615817E+02
              0.722858615332106E+02
              0.131693401128270E+03
             -0.360976252738385E+02
             -0.257008532815161E+01
             -0.637573142984664E+02
              0.651392834345397E+02
              0.170969755083978E+02
             -0.181871667973639E+02
             -0.410409237640340E+02
              0.148786336964368E+02
             -0.586753511210599E+02
             -0.197746273682141E+02
             -0.905577016040203E+02
              0.337364790521030E+02
              0.169005438909737E+02
              0.182289260902223E+01
             -0.708687112625637E+01
             -0.330218166626371E+02
             -0.760272074251628E+01
              0.125678838564376E+03
             -0.199216327637525E+02
             -0.437907511685036E+02
             -0.684798617375347E+02
              0.109335310991160E+02
             -0.342646656885142E+02
              0.592035711342476E+01
              0.261880903535373E+02
              0.102211012025476E+02
              0.278348407427935E+02
              0.120169422599143E+02
              0.630350698554901E+02
              0.316931128647329E+02
             -0.327036421403400E+02
              0.356398526082509E+02
              0.379927960392696E+02
              0.121050569853183E+02
              0.487267583416279E+02
             -0.225340439444665E+02
              0.766654010838264E+02
              0.172838979508167E+02
             -0.272600320680837E+02
             -0.722881438422194E+01
             -0.186515369141727E+02
              0.261931013533411E+02
             -0.234669052293971E+02
             -0.154402763885514E+00
             -0.849793542601174E+01
              0.810698766569537E+02
              0.500656282032484E+02
             -0.687670240413887E+02
             -0.478018501116418E+01
             -0.555889843193856E+02
             -0.159597062104996E+02
             -0.268471491411992E+02
              0.377194589044882E+01
              0.588774359022375E+00
             -0.257903673744059E+02
              0.816477979451346E+01
             -0.604213361420604E+01
             -0.128496578422953E+02
              0.860085260436060E+02
              0.181951064227303E+02
             -0.807972077430178E+02
             -0.458650994000856E+02
              0.946180493627443E+02
              0.278052598771171E+02
             -0.106987545775039E+02
              0.104677245663767E+03
             -0.195009500724477E+02
             -0.123092596256992E+02
             -0.540990861413388E+01
              0.107510445197764E+02
              0.272915275595341E+02
              0.781321094319529E+01
              0.305767044060741E+02
             -0.188085862881648E+02
             -0.304417206721700E+02
             -0.418259209254080E+02
             -0.477321230553230E+02
              0.464365896645750E+02
              0.127023781348745E+02
              0.388020341390952E+02
              0.133629333306082E+02
              0.856635676747088E+02
              0.156831661766371E+02
             -0.847027122287162E+02
             -0.334749405150778E+02
              0.133727913796323E+02
             -0.303199181155804E+02
              0.627394892590854E+02
             -0.887595642149245E+01
              0.148958996202964E+02
              0.498006700147933E+02
             -0.708370371527297E+02
              0.149907074636654E+03
              0.208874807542724E+02
              0.271773982673462E+02
              0.348081497497686E+02
              0.103632582237223E+02
             -0.157214943604612E+01
              0.358763549274726E+02
             -0.357469873258509E+02
              0.774334801797341E+02
              0.685726130634505E+02
             -0.406406900824133E+02
              0.149579826385927E+02
              0.671076205887633E+02
             -0.224213253416819E+02
              0.154754594648094E+02
              0.435314334423256E+02
              0.422643270528845E+02
             -0.785564785890269E+02
             -0.152618471125054E+02
             -0.356321982353964E+02
             -0.148460788893794E+01
             -0.766582930418461E+01
             -0.542838188640303E+01
             -0.180695984996322E+02
             -0.294150143003130E+02
              0.636439938179110E+01
              0.111733736286345E+02
              0.536224386538557E+02
             -0.390869628225232E+02
              0.375105197729492E+02
              0.439088841194962E+02
             -0.186645529455620E+02
              0.872956500452910E+02
             -0.698759341862277E+02
             -0.103302384112166E+03
             -0.661859800944093E+01
             -0.267765241629593E+01
              0.385291410629145E+01
              0.790441291301615E+02
             -0.107026628853823E+02
              0.417204540008066E+02
              0.444463825642369E+02
              0.385812663667729E+02
             -0.996298396248062E+01
              0.628180478950609E+02
             -0.133743707149980E+02
             -0.307970020110034E+02
             -0.479501120333247E+02
              0.590780403012373E+01
              0.369784495589317E+02
             -0.603096156215591E+01
              0.393380811706950E+02
             -0.176134715156894E+01
              0.655827906835002E+02
              0.187458723958918E+02
              0.999858908260822E+01
             -0.121636751821080E+02
              0.332410342213556E+02
              0.363195528759200E+02
              0.232866279770147E+02
             -0.521128045745456E+00
             -0.551307435703956E+02
              0.261092399274881E+02
              0.175467623019979E+02
              0.402967069757691E+02
              0.272521138545278E+02
              0.373076039032101E+02
             -0.606897736499022E+01
              0.251564710314472E+02
             -0.299094503323265E+02
             -0.197511778726221E+01
             -0.569812087626082E+02
             -0.308508351321524E+02
              0.379352916557073E+02
             -0.936633589708520E+02
              0.294566600970994E+02
              0.184170201583207E+02
              0.841304026818012E+02
             -0.300439126995894E+02
              0.329883829392025E+02
             -0.137884358598756E+02
             -0.464598623985833E+02
             -0.762419422078228E+02
             -0.528453521616015E+01
             -0.860979361531401E+02
              0.199740512743917E+02
             -0.247794598163894E+02
              0.306314165529457E+02
              0.237375230703905E+02
             -0.241479080249883E+02
             -0.265777276442676E+02
              0.391480353312063E+02
             -0.588969869084093E+02
             -0.116846006623131E+02
             -0.196232666089329E+02
              0.213096903094627E+02
             -0.888642697649351E+01
              0.362493482574786E+01
             -0.200658678534364E+02
              0.559421741565662E+02
             -0.440365502933394E+02
              0.786331991540692E+01
              0.586078728620703E+02
             -0.323890522022750E+02
              0.361842777718871E+01
             -0.880496643566414E+01
             -0.670012929884685E+02
             -0.482864776149515E+02
             -0.860103550620646E+01
              0.241206363490790E+02
              0.302867589055758E+02
              0.859593872955099E+01
             -0.417573314882475E+01
              0.151873818879919E+02
             -0.440258878748777E+02
              0.331594418340092E+01
             -0.531837265541627E+02
             -0.325250464723360E+02
              0.475411594824430E+02
             -0.295599559859066E+02
              0.623350351276148E+02
             -0.214959634338035E+02
              0.354048259108095E+02
              0.241961679784908E+02
             -0.644784693539904E+02
             -0.280655463689700E+02
              0.935661047966317E+01
             -0.372370360948892E+02
             -0.340126717687130E+02
             -0.831186293217665E+02
             -0.539892147506000E+02
             -0.510950255848015E+02
             -0.416224552520511E+02
             -0.997630927376065E+00
              0.999870062715297E+01
              0.106594241619970E+01
              0.153648627662754E+02
             -0.550045074313639E+02
              0.141959891981771E+02
              0.257258846891885E+02
             -0.667679357585791E+02
             -0.702708922939742E+02
             -0.431838153268426E+02
             -0.172496505027686E+02
              0.178485952450993E+02
              0.454490122950892E+01
             -0.426523691450433E+02
              0.366486312539939E+02
             -0.216623899977653E+02
              0.518142792420085E+02
             -0.888418173055400E+02
              0.598621166701011E+02
             -0.215647624205421E+01
             -0.368965629012049E+02
             -0.216730080237253E+02
              0.471956950691056E+01
              0.375415149175972E+02
             -0.757068815224266E+02
             -0.120959620464851E+02
             -0.216795822959899E+02
              0.511484055108997E+02
              0.865866252998389E+02
             -0.966511469032879E+02
              0.945167057923959E+02
              0.468175017523044E+02
             -0.726422822951817E+02
             -0.366942538490682E+02
              0.752965961179292E+02
              0.632690899096256E+02
             -0.181292002491577E+02
             -0.465320867657948E+01
              0.735688471408761E+01
              0.650109514343073E+02
             -0.509268201567697E+02
              0.158447022133269E+02
             -0.473562208232229E+01
              0.348054355761229E+02
             -0.747815677059977E+02
             -0.647675229832521E+01
             -0.351248056508210E+02
              0.461377495092634E+02
              0.469337477171965E+02
             -0.863042648088589E+02
             -0.487592851569423E+02
             -0.256496960227180E+02
             -0.340073411494337E+02
             -0.109355257486590E+02
             -0.242946614436729E+02
              0.427916953513973E+02
              0.401683184610198E+02
             -0.563117151498955E+01
[...]
              0.283839929827582E+02
              0.141948113856757E+03
              0.242676182865254E+02
              0.122753697688013E+02
             -0.464862310000966E+02
             -0.638185206759769E+02
             -0.189054733364332E+02
              0.329898471401185E+02
             -0.427402256867651E+01
              0.190215698828491E+02
              0.336529397009535E+02
             -0.587194128470627E+02
              0.222640277097466E+02
              0.582212233861605E+02
              0.553441486348411E+02
             -0.421615830484643E+01
             -0.135481843946422E+01
             -0.993800193418210E+01
             -0.482581094043031E+02
             -0.675845862469095E+02
              0.786060616050726E+02
             -0.525136845315174E+01
             -0.588300090304399E+02
              0.174064942107822E+01
             -0.205684529950049E+02
              0.939259911158553E+02
             -0.216802504115750E+02
             -0.354114564324009E+02
              0.335727048026902E+02
             -0.145949923022758E+02
              0.390065665489338E+02
             -0.235548942131391E+01
              0.101170822829305E+03
              0.490406323358720E+02
             -0.506476609621173E+01
             -0.322411817828666E+02
              0.232650015903257E+02
             -0.529023351210110E+02
             -0.127876760011848E+02
              0.586360116899716E+02
             -0.287916167777097E+02
             -0.438701491007817E+02
             -0.223524094397591E+02
              0.519246980796145E+02
              0.124881370349531E+02
             -0.849647834697548E+02
              0.304183980340858E+02
              0.151879593216308E+02
              0.578373756811200E+01
             -0.513920342553179E+02
             -0.376019403558797E+01
              0.323410795749246E+02
              0.513100288618062E+02
              0.633352075528311E+02
              0.229412092147452E+02
              0.778015789208808E+00
             -0.498678748185033E+02
             -0.510410938696932E+02
             -0.748336097848682E+02
             -0.616864242671011E+01
              0.309310996831740E+02
             -0.377136803521489E+01
              0.547402658565454E+02
             -0.318311404610539E+02
              0.166701742756067E+02
             -0.103018871118232E+02
             -0.289753122742449E+02
              0.586213098129551E+02
              0.792376581073455E+01
              0.604930355624213E+02
              0.509998847779525E+01
              0.265082510967966E+02
             -0.192920989005403E+02
              0.586710162004660E+02
             -0.111659027858299E+02
             -0.126504195113974E+00
             -0.790963662003857E+02
             -0.128334745267068E+02
              0.719700710214989E+02
              0.673713672604483E+02
              0.252190974260346E+02
             -0.130682454482022E+02
              0.345233431581471E+01
             -0.173910675455937E+02
             -0.210738194248080E+01
              0.908775358702085E+02
              0.126952896466196E+01
             -0.190782292553048E+02
             -0.110849052810768E+03
             -0.552821313936423E+02
             -0.375403170444993E+02
             -0.659127534566205E+02
             -0.556075968568837E+02
             -0.683227010698946E+02
             -0.447478342401789E+02
             -0.411021755027845E+02
             -0.452441145985990E+02
              0.483869549541951E+02
             -0.294225644285605E+02
             -0.995970495695381E+02
              0.419282284846794E+02
             -0.260286859424581E+02
             -0.791605740515073E+02
              0.944870865417510E+02
             -0.219915156033008E+02
              0.228185796219716E+02
              0.455426313002891E+02
             -0.131901637644614E+01
              0.254722924732858E+02
              0.471295681550293E+01
              0.425974200898548E+00
             -0.150681435707266E+02
             -0.716373149858712E+02
              0.133319700629096E+02
             -0.129478099367802E+03
              0.624942399351286E+02
             -0.440957782304513E+02
             -0.163379695556659E+02
             -0.158542799683612E+02
              0.717536407249358E+01
             -0.227808796198340E+02
              0.297406493510894E+02
             -0.521276198078479E+02
              0.367397620000117E+02
              0.371238081677787E+02
              0.168349656003151E+02
              0.100530016989113E+02
              0.198058915783549E+02
              0.624048296123675E+01
              0.310586538896342E+02
             -0.797262521705497E+01
             -0.593229972761334E+02
              0.757423471907390E+01
             -0.152996407698774E+02
             -0.192970906681904E+01
              0.506894318963917E+02
             -0.827503617453111E+02
             -0.150341733823859E+01
              0.587579571774654E+00
              0.997074873726353E+01
              0.318679313971174E+02
             -0.123579809483190E+02
              0.836574416311391E+02
              0.487757312818796E+02
             -0.183396524570738E+02
             -0.956468558319642E+01
              0.107971587917243E+01
              0.770294965574025E+02
             -0.586693712412160E+02
             -0.105859527319088E+03
              0.309430845808192E+02
             -0.163253610937826E+02
             -0.139580719458831E+02
              0.130745672073870E+02
              0.769146267567016E+02
              0.464443614259802E+02
             -0.153528342150789E+02
             -0.503570972817571E+02
             -0.552025053365220E+01
              0.306643623827893E+02
             -0.111815288739834E+02
             -0.756595783140697E+02
             -0.273537786731623E+01
             -0.890919155816299E+02
             -0.476260134615806E+02
              0.769429200489553E+02
             -0.483987703480228E+02
             -0.637237008779846E+02
             -0.514713185340072E+02
             -0.350225593321150E+02
              0.341189692893428E+02
              0.822468275320983E+02
             -0.358720542741827E+01
              0.276813859569687E+02
             -0.184075120649049E+02
             -0.694636495520903E+02
              0.465463353354671E+02
             -0.445493921011631E+02
              0.321889985068109E+02
              0.376440167514372E+02
             -0.658906656971476E+01
              0.390630982630532E+02
              0.438611716653433E+02
              0.100792189371781E+03
             -0.155941490637393E+02
             -0.456869500868111E+02
             -0.613418392179079E+02
             -0.124251056354232E+02
             -0.233575433049049E+02
              0.103077288955410E+03
             -0.449310632754214E+02
              0.105381801499293E+02
              0.971191855868699E+01
             -0.264688185981402E+02
             -0.799703231432951E+02
             -0.699407913451165E+01
              0.980820428335411E+02
              0.942551879371828E+01
              0.809548215844018E+01
             -0.527712000662183E+02
             -0.605996220838008E+02
             -0.566571831761769E+01
              0.500803847058913E+02
             -0.222132049255218E+02
              0.108056730262299E+03
             -0.436029234076502E+02
              0.146574722775702E+02
             -0.224163828135445E+02
             -0.719048513546039E+02
              0.169178932307625E+01
             -0.502269556813769E+02
             -0.761379245627793E+02
              0.617686246097696E+01
              0.236787339136228E+01
              0.514559113225787E+02
              0.187614051850575E+02
             -0.323852751979405E+02
              0.230133600968819E+02
             -0.811896904365711E+02
             -0.522108963148448E+02
              0.902588015338661E+02
              0.142305237959824E+02
             -0.187880473110525E+02
             -0.352546127211198E+02
             -0.268901778812483E+01
             -0.589486432823355E+01
              0.831035960141933E+02
              0.418026814980756E+02
             -0.166023674706732E+02
             -0.121724198493654E+02
             -0.427956368269682E+02
             -0.200660996085650E+02
             -0.670510839415057E+02
              0.460049887672146E+02
              0.546078679886230E+01
              0.144822506090396E+02
              0.156439405944149E+02
             -0.585901848431043E+00
             -0.168694242257107E+02
             -0.304657123783505E+01
             -0.100541007639630E+03
             -0.229802906420734E+02
             -0.765815754694347E+01
             -0.948331897148270E+01
              0.546753645441523E+02
              0.624412492976674E+02
              0.165075418486027E+02
             -0.971399939639513E+02
              0.648132611603929E+02
             -0.215231219318356E+02
             -0.377339597587661E+02
             -0.864994256916242E+02
             -0.387014841544797E+02
              0.565201759907202E+02
              0.244492540200877E+02
              0.515020960873142E+01
              0.292654186277101E+02
             -0.565352392878565E+02
             -0.422890597657440E+02
              0.515836830614476E+02
              0.387649096668179E+02
              0.519233940569343E+02
             -0.119114380570056E+01
              0.686201715665766E+01
              0.569941643694312E+02
              0.963560628402848E+02
             -0.300290400187411E+02
              0.323164968469521E+02
             -0.119097847861641E+02
             -0.412495708935916E+02
             -0.314542760653313E+02
             -0.300539197762561E+02
             -0.131499992678135E+02
             -0.523899892829176E+02
             -0.217227387385677E+02
             -0.141260961747508E+03
              0.369052803074223E+02
              0.207252948229715E+02
             -0.394675595231383E+01
             -0.380226633279982E+02
             -0.204296565303056E+02
             -0.527396510586789E+02
              0.151066720502761E+02
              0.820636828839667E+02
             -0.252409819981071E+02
             -0.163180819589641E+02
              0.238326231011974E+02
             -0.489797517343604E+02
              0.881162162895919E+02
              0.154451392238697E+02
              0.226231824406586E+02
              0.490655973403003E+02
              0.319114830646265E+01
              0.542644123179173E+02
              0.143232805845265E+02
             -0.106374890695330E+02
              0.733776326666396E+01
              0.779351587491817E+00
              0.727692449524932E+02
              0.101105779255747E+02
              0.120788998552385E+02
             -0.130132392675471E+02
              0.132353901140766E+02
             -0.912035391070032E+02
             -0.325950929049665E+02
             -0.457903976832124E+02
              0.485593055251937E+02
             -0.291493032457718E+02
             -0.658778048224483E+02
              0.538967569499512E+02
             -0.122134458077176E+02
              0.440321591045857E+02
             -0.899401714782887E+02
              0.231893499848812E+02
              0.857785680740142E+01
              0.584570521828505E+01
             -0.834895369996451E+01
             -0.905008000191435E+01
              0.479826484304749E+02
              0.200840035132234E+01
             -0.475715964121555E+02
             -0.176375271961419E+02
              0.276732858679431E+02
             -0.118016022811678E+03
             -0.930333462323588E+02
              0.396280700046316E+01
              0.117953044411799E+02
             -0.413708271806113E+02
             -0.387191112770006E+01
              0.112187747123639E+03
              0.306676849069408E+02
             -0.571968926335701E+02
              0.926062327792943E+01
             -0.966824201995372E+01
              0.105730762167870E+02
             -0.337997920722835E+02
              0.195710848781987E+02
              0.284734613983173E+02
             -0.300768468599148E+01
              0.108273810866822E+03
             -0.140132092694256E+02
             -0.316192422119676E+02
              0.143472609741797E+02
              0.467029569155856E+02
             -0.355934169740576E+02
             -0.317881804740648E+01
              0.965611737308980E+02
             -0.465029910839621E+01
              0.622095104572674E+02
              0.135578088892040E+02
             -0.902012710217328E+01
             -0.305372841084924E+02
              0.566839359541730E+02
             -0.514853286655259E+02
             -0.220297634224926E+01
             -0.170346146757212E+02
             -0.405437879671638E+02
              0.184967976612933E+02
              0.239437438183578E+02
              0.115895483795011E+02
              0.729437389718441E+00
             -0.385020197683356E+02
              0.215572824943832E+02
             -0.674654371963319E+01
             -0.246683279792672E+02
             -0.210741957988765E+02
              0.203370203959371E+02
             -0.594820308909834E+01
             -0.349516311352670E+02
             -0.106722219667939E+03
              0.103037342085451E+02
              0.248599391077287E+02
             -0.387682923661648E+02
             -0.211184229526314E+02
              0.807703894331625E+02
              0.653922827409056E+01
              0.311341877053808E+02
              0.393056850965439E+01
              0.322269383090864E+02
              0.645674785450421E+01
             -0.373273430217032E+02
             -0.235147119602132E+01
              0.876377889955802E+01
              0.274245407614591E+02
              0.782412800454879E+02
              0.507935287403231E+02
              0.187917448747669E+00
              0.169086119193504E+02
              0.613692975351323E+02
              0.236207846137757E+02
             -0.753361348476562E+02
             -0.274011810452509E+02
              0.150967699964234E+02
              0.563125559323930E+01
              0.255274922954624E+02
             -0.548207521684035E+02
              0.898388039318566E+01
              0.386300445205177E+02
              0.498493971548684E+02
             -0.435290103203618E+02
             -0.688127235833497E+01
             -0.208676267838740E+01
             -0.134135694323924E+02
             -0.365765882430440E+02
             -0.215254262757520E+02
             -0.205890999055613E+01
              0.794769352841939E+01
              0.421760880754081E+02
             -0.308754589152045E+02
              0.826851471155594E+02
              0.327788929002952E+02
              0.219926463342451E+02
              0.333336277401457E+02
              0.323248241595482E+02
              0.346538253203713E+02
              0.537684138084594E+02
             -0.434301003830276E+02
              0.620097397607657E+02
             -0.112367228417737E+03
              0.307651928037795E+02
             -0.106612236057191E+03
              0.855424432758232E+02
              0.691341598088586E+02
             -0.109926334961962E+02
             -0.493605961875513E+02
             -0.429903055282916E+02
             -0.623963277033195E+02
             -0.629374394430920E+02
              0.552227401979410E+02
              0.405815919262346E+02
              0.237085853067995E+02
              0.373939641385263E+02
              0.403764800780438E+02
             -0.382546716226902E+02
             -0.197935401452104E+02
              0.586803594874729E+02
             -0.116039130875333E+02
              0.552126318064257E+02
              0.700162583297895E+02
             -0.554670922997740E+01
             -0.706990016678308E+02
             -0.894386637874845E+00
             -0.246932794864581E+01
             -0.883833020532563E+01
             -0.178635397735769E+01
             -0.653405223056562E+02
             -0.210665796879838E+02
              0.541325394564235E+01
              0.901088939060048E+01
              0.469385989448130E+02
             -0.398246778880034E+02
              0.657639968379009E+02
             -0.425617342816832E+02
              0.210681766989535E+02
              0.350767751431183E+02
 
 BEEF-vdW xc energy contributions
           1 :   -783.566161120946     
           2 :    719.904023522162     
           3 :   -609.569476470552     
           4 :    479.520402514472     
           5 :   -357.277137606319     
           6 :    262.773147717319     
           7 :   -203.777070503012     
           8 :    175.809055138369     
           9 :   -166.153508714951     
          10 :    160.057212642155     
          11 :   -146.572740023817     
          12 :    121.843205467865     
          13 :   -88.9659997276196     
          14 :    55.0558426705887     
          15 :   -27.2088076724862     
          16 :    9.19828704540964     
          17 :  -0.187994869913723     
          18 :   -4.28443168671060     
          19 :    9.77843203264649     
          20 :   -20.2122424646794     
          21 :    36.1758196122718     
          22 :   -54.9575803973868     
          23 :    72.0951931875719     
          24 :   -83.6044211546572     
          25 :    87.7920521987396     
          26 :   -85.8567863303950     
          27 :    81.1015638727796     
          28 :   -77.2344608265674     
          29 :    76.6109771295917     
          30 :   -79.2476630273804     
          31 :   -85.9969122817414     
          32 :   -65.9333988719155     

     Writing output data file ./pwscf.save/
 
     init_run     :    309.89s CPU    314.39s WALL (       1 calls)
     electrons    :  13119.28s CPU  13260.70s WALL (       1 calls)
     forces       :     98.22s CPU     99.42s WALL (       1 calls)

     Called by init_run:
     wfcinit      :    261.16s CPU    264.71s WALL (       1 calls)
     potinit      :     45.87s CPU     46.19s WALL (       1 calls)
     hinit0       :      1.13s CPU      1.16s WALL (       1 calls)

     Called by electrons:
     c_bands      :  10990.38s CPU  11100.62s WALL (      22 calls)
     sum_band     :   1484.16s CPU   1497.85s WALL (      22 calls)
     v_of_rho     :    135.49s CPU    140.19s WALL (      22 calls)
     newd         :     31.38s CPU     44.20s WALL (      22 calls)
     PAW_pot      :    153.89s CPU    153.89s WALL (      22 calls)
     mix_rho      :    370.46s CPU    371.27s WALL (      22 calls)
     vdW_kernel   :     33.91s CPU     33.91s WALL (       1 calls)

     Called by c_bands:
     init_us_2    :     81.77s CPU     82.10s WALL (     598 calls)
     cegterg      :  10114.48s CPU  10224.26s WALL (     286 calls)

     Called by *egterg:
     cdiaghg      :    108.52s CPU    108.54s WALL (    1533 calls)
     h_psi        :   6279.54s CPU   6317.36s WALL (    1559 calls)
     s_psi        :   1129.86s CPU   1129.89s WALL (    1559 calls)
     g_psi        :     16.85s CPU     16.85s WALL (    1260 calls)

     Called by h_psi:
     h_psi:calbec :   1055.79s CPU   1055.97s WALL (    1559 calls)
     vloc_psi     :   4066.92s CPU   4067.92s WALL (    1559 calls)
     add_vuspsi   :   1129.76s CPU   1129.92s WALL (    1559 calls)

     General routines
     calbec       :   1553.56s CPU   1553.79s WALL (    1897 calls)
     fft          :     47.75s CPU     47.77s WALL (    3342 calls)
     ffts         :    120.00s CPU    120.02s WALL (    9312 calls)
     fftw         :   4229.08s CPU   4229.63s WALL (  365762 calls)
 
     Parallel routines
 
     PWSCF        :      3h47m CPU      3h50m WALL

 
   This run was terminated on:  18:41:50  20May2022            

=------------------------------------------------------------------------------=
   JOB DONE.
=------------------------------------------------------------------------------=
