
     Program PWSCF v.6.7MaX starts on 20May2022 at 14:52:11 

     This program is part of the open-source Quantum ESPRESSO suite
     for quantum simulation of materials; please cite
         "P. Giannozzi et al., J. Phys.:Condens. Matter 21 395502 (2009);
         "P. Giannozzi et al., J. Phys.:Condens. Matter 29 465901 (2017);
          URL http://www.quantum-espresso.org", 
     in publications or presentations arising from this work. More details at
     http://www.quantum-espresso.org/quote

     Parallel version (MPI), running on     1 processors

     MPI processes distributed on     1 nodes
     Reading input from c3h5-ensemble.in
Warning: card &CELL ignored
Warning: card / ignored

     Current dimensions of program PWSCF are:
     Max number of different atomic species (ntypx) = 10
     Max number of k-points (npk) =  40000
     Max angular momentum in pseudopotentials (lmaxx) =  3
     file Pt.pbe-n-kjpaw_psl.1.0.0.UPF: wavefunction(s)  6S 5D renormalized
     file C.pbe-n-kjpaw_psl.1.0.0.UPF: wavefunction(s)  2S 2P renormalized
     file H.pbe-kjpaw_psl.1.0.0.UPF: wavefunction(s)  1S renormalized

     **************************************************************************
     Initializing libbeef V0.1.2 with the BEEF-vdW functional.
     Citation: Wellendorff et al., PRB 85, 235149 (2012).
     **************************************************************************


     IMPORTANT: XC functional enforced from input :
     Exchange-correlation= BEEF-VDW
                           (   1   4  43  14   2   0   0)
     Any further DFT definition will be discarded
     Please, verify this is what you really want


     Subspace diagonalization in iterative solution of the eigenvalue problem:
     a serial algorithm will be used

 
     G-vector sticks info
     --------------------
     sticks:   dense  smooth     PW     G-vecs:    dense   smooth      PW
     Sum        4267    4267   1159               738339   738339  104133
 


     bravais-lattice index     =            0
     lattice parameter (alat)  =      16.0349  a.u.
     unit-cell volume          =   11759.8554 (a.u.)^3
     number of atoms/cell      =           44
     number of atomic types    =            3
     number of electrons       =       377.00
     number of Kohn-Sham states=          227
     kinetic-energy cutoff     =      60.0000  Ry
     charge density cutoff     =     240.0000  Ry
     scf convergence threshold =      1.0E-06
     mixing beta               =       0.7000
     number of iterations used =            8  local-TF  mixing
     Exchange-correlation= BEEF-VDW
                           (   1   4  43  14   2   0   0)

     celldm(1)=  16.034858  celldm(2)=   0.000000  celldm(3)=   0.000000
     celldm(4)=   0.000000  celldm(5)=   0.000000  celldm(6)=   0.000000

     crystal axes: (cart. coord. in units of alat)
               a(1) = (   1.000000   0.000000   0.000000 )  
               a(2) = (   0.500000   0.866025   0.000000 )  
               a(3) = (   0.000000   0.000000   3.293639 )  

     reciprocal axes: (cart. coord. in units 2 pi/alat)
               b(1) = (  1.000000 -0.577350  0.000000 )  
               b(2) = (  0.000000  1.154701  0.000000 )  
               b(3) = (  0.000000  0.000000  0.303616 )  


     PseudoPot. # 1 for Pt read from file:
     /users/bkreitz1/quantum-espresso/potentials/Pt.pbe-n-kjpaw_psl.1.0.0.UPF
     MD5 check sum: 04dc8a03c51ece93fc7b5889c2958091
     Pseudo is Projector augmented-wave + core cor, Zval = 10.0
     Generated using 'atomic' code by A. Dal Corso  v.6.7MaX
     Shape of augmentation charge: PSQ
     Using radial grid of 1277 points,  6 beta functions with: 
                l(1) =   0
                l(2) =   0
                l(3) =   1
                l(4) =   1
                l(5) =   2
                l(6) =   2
     Q(r) pseudized with 0 coefficients 


     PseudoPot. # 2 for C  read from file:
     /users/bkreitz1/quantum-espresso/potentials/C.pbe-n-kjpaw_psl.1.0.0.UPF
     MD5 check sum: a169b0ebad56f5ec0d79c4633f80bf22
     Pseudo is Projector augmented-wave + core cor, Zval =  4.0
     Generated using 'atomic' code by A. Dal Corso  v.6.7MaX
     Shape of augmentation charge: PSQ
     Using radial grid of 1073 points,  4 beta functions with: 
                l(1) =   0
                l(2) =   0
                l(3) =   1
                l(4) =   1
     Q(r) pseudized with 0 coefficients 


     PseudoPot. # 3 for H  read from file:
     /users/bkreitz1/quantum-espresso/potentials/H.pbe-kjpaw_psl.1.0.0.UPF
     MD5 check sum: ae98473e6dc62675f0d0baffdab24f65
     Pseudo is Projector augmented-wave, Zval =  1.0
     Generated using 'atomic' code by A. Dal Corso  v.6.7MaX
     Shape of augmentation charge: PSQ
     Using radial grid of  929 points,  2 beta functions with: 
                l(1) =   0
                l(2) =   0
     Q(r) pseudized with 0 coefficients 


     atomic species   valence    mass     pseudopotential
        Pt            10.00   195.08400     Pt( 1.00)
        C              4.00    12.01100     C ( 1.00)
        H              1.00     1.00800     H ( 1.00)

     No symmetry found



   Cartesian axes

     site n.     atom                  positions (alat units)
         1           Pt  tau(   1) = (   0.0000000   0.0000000   1.0017346  )
         2           Pt  tau(   2) = (   0.3333333   0.0000000   1.0017346  )
         3           Pt  tau(   3) = (   0.6666667   0.0000000   1.0017346  )
         4           Pt  tau(   4) = (   0.1666667   0.2886751   1.0017346  )
         5           Pt  tau(   5) = (   0.5000000   0.2886751   1.0017346  )
         6           Pt  tau(   6) = (   0.8333333   0.2886751   1.0017346  )
         7           Pt  tau(   7) = (   0.3333333   0.5773503   1.0017346  )
         8           Pt  tau(   8) = (   0.6666667   0.5773503   1.0017346  )
         9           Pt  tau(   9) = (   1.0000000   0.5773503   1.0017346  )
        10           Pt  tau(  10) = (   0.1666667   0.0962250   1.2739001  )
        11           Pt  tau(  11) = (   0.5000000   0.0962250   1.2739001  )
        12           Pt  tau(  12) = (   0.8333333   0.0962250   1.2739001  )
        13           Pt  tau(  13) = (   0.3333333   0.3849002   1.2739001  )
        14           Pt  tau(  14) = (   0.6666667   0.3849002   1.2739001  )
        15           Pt  tau(  15) = (   1.0000000   0.3849002   1.2739001  )
        16           Pt  tau(  16) = (   0.5000000   0.6735753   1.2739001  )
        17           Pt  tau(  17) = (   0.8333333   0.6735753   1.2739001  )
        18           Pt  tau(  18) = (   1.1666667   0.6735753   1.2739001  )
        19           Pt  tau(  19) = (  -0.0010622   0.1918271   1.5440065  )
        20           Pt  tau(  20) = (   0.3313671   0.1896414   1.5464050  )
        21           Pt  tau(  21) = (   0.6658690   0.1901262   1.5454969  )
        22           Pt  tau(  22) = (   0.1630964   0.4809844   1.5470790  )
        23           Pt  tau(  23) = (   0.4979651   0.4803844   1.5390016  )
        24           Pt  tau(  24) = (   0.8333837   0.4807440   1.5448141  )
        25           Pt  tau(  25) = (   0.3309402   0.7704011   1.5457666  )
        26           Pt  tau(  26) = (   0.6665581   0.7703853   1.5451769  )
        27           Pt  tau(  27) = (   0.9989190   0.7690404   1.5458995  )
        28           Pt  tau(  28) = (  -0.0005322  -0.0002492   1.8189328  )
        29           Pt  tau(  29) = (   0.3338927  -0.0027431   1.8344291  )
        30           Pt  tau(  30) = (   0.6703348   0.0040022   1.8332531  )
        31           Pt  tau(  31) = (   0.1651242   0.2879483   1.8195142  )
        32           Pt  tau(  32) = (   0.4974911   0.2902223   1.8142540  )
        33           Pt  tau(  33) = (   0.8326287   0.2894237   1.8186423  )
        34           Pt  tau(  34) = (   0.3321735   0.5760939   1.8156407  )
        35           Pt  tau(  35) = (   0.6601698   0.5742186   1.8134078  )
        36           Pt  tau(  36) = (   0.9970390   0.5789624   1.8343232  )
        37           C   tau(  37) = (   0.5725191   0.0927726   2.1759337  )
        38           C   tau(  38) = (   0.5904367  -0.0472191   2.0650080  )
        39           C   tau(  39) = (   0.4457101  -0.1288436   2.0121579  )
        40           H   tau(  40) = (   0.6846134   0.1539077   2.1908714  )
        41           H   tau(  41) = (   0.4849015   0.1770425   2.1341228  )
        42           H   tau(  42) = (   0.5348322   0.0494009   2.2919045  )
        43           H   tau(  43) = (   0.6788494  -0.1299717   2.1096189  )
        44           H   tau(  44) = (   0.3621335  -0.1727759   2.1013991  )

     number of k points=    13  Marzari-Vanderbilt smearing, width (Ry)=  0.0200
                       cart. coord. in units 2pi/alat
        k(    1) = (   0.0000000   0.0000000   0.0000000), wk =   0.0800000
        k(    2) = (   0.0000000   0.2309401   0.0000000), wk =   0.1600000
        k(    3) = (   0.0000000   0.4618802   0.0000000), wk =   0.1600000
        k(    4) = (   0.2000000  -0.1154701   0.0000000), wk =   0.1600000
        k(    5) = (   0.2000000   0.1154701   0.0000000), wk =   0.1600000
        k(    6) = (   0.2000000   0.3464102   0.0000000), wk =   0.1600000
        k(    7) = (   0.2000000  -0.5773503   0.0000000), wk =   0.1600000
        k(    8) = (   0.2000000  -0.3464102   0.0000000), wk =   0.1600000
        k(    9) = (   0.4000000  -0.2309401   0.0000000), wk =   0.1600000
        k(   10) = (   0.4000000  -0.0000000   0.0000000), wk =   0.1600000
        k(   11) = (   0.4000000   0.2309401   0.0000000), wk =   0.1600000
        k(   12) = (   0.4000000  -0.6928203   0.0000000), wk =   0.1600000
        k(   13) = (   0.4000000  -0.4618802   0.0000000), wk =   0.1600000

     Dense  grid:   738339 G-vectors     FFT dimensions: (  80,  80, 270)

     Estimated max dynamical RAM per process >       8.99 GB

     Check: negative core charge=   -0.000002

     Initial potential from superposition of free atoms

     starting charge  376.99372, renormalised to  377.00000

     negative rho (up, down):  1.192E-02 0.000E+00


     %%%%%%%%%%%%%%%%%%%%%%%%%%%%%%%%%%%%%%%%%%%%%%%%%%%%%%%%%%%%%%%%%%%%%%%%
     %                                                                      %
     % You are using vdW-DF, which was implemented by the Thonhauser group. %
     % Please cite the following two papers that made this development      %
     % possible and the two reviews that describe the various versions:     %
     %                                                                      %
     %   T. Thonhauser et al., PRL 115, 136402 (2015).                      %
     %   T. Thonhauser et al., PRB 76, 125112 (2007).                       %
     %   K. Berland et al., Rep. Prog. Phys. 78, 066501 (2015).             %
     %   D.C. Langreth et al., J. Phys.: Condens. Matter 21, 084203 (2009). %
     %                                                                      %
     %                                                                      %
     % If you are calculating the stress with vdW-DF, please also cite:     %
     %                                                                      %
     %   R. Sabatini et al., J. Phys.: Condens. Matter 24, 424209 (2012).   %
     %                                                                      %
     %%%%%%%%%%%%%%%%%%%%%%%%%%%%%%%%%%%%%%%%%%%%%%%%%%%%%%%%%%%%%%%%%%%%%%%%


     Starting wfcs are  341 randomized atomic wfcs
     Checking if some PAW data can be deallocated... 

     total cpu time spent up to now is      337.6 secs

     Self-consistent Calculation

     iteration #  1     ecut=    60.00 Ry     beta= 0.70
     Davidson diagonalization with overlap
     ethr =  1.00E-02,  avg # of iterations =  2.6

     Threshold (ethr) on eigenvalues was too large:
     Diagonalizing with lowered threshold

     Davidson diagonalization with overlap
     ethr =  8.92E-04,  avg # of iterations =  2.3

     negative rho (up, down):  1.191E-02 0.000E+00

     total cpu time spent up to now is     1590.9 secs

     total energy              =  -27817.08677322 Ry
     estimated scf accuracy    <       3.64482260 Ry

     iteration #  2     ecut=    60.00 Ry     beta= 0.70
     Davidson diagonalization with overlap
     ethr =  9.67E-04,  avg # of iterations =  2.0

     negative rho (up, down):  9.820E-03 0.000E+00

     total cpu time spent up to now is     2178.6 secs

     total energy              =  -27817.25872040 Ry
     estimated scf accuracy    <       1.53655621 Ry

     iteration #  3     ecut=    60.00 Ry     beta= 0.70
     Davidson diagonalization with overlap
     ethr =  4.08E-04,  avg # of iterations =  4.8

     negative rho (up, down):  6.831E-03 0.000E+00

     total cpu time spent up to now is     2797.5 secs

     total energy              =  -27817.30487797 Ry
     estimated scf accuracy    <       0.64316867 Ry

     iteration #  4     ecut=    60.00 Ry     beta= 0.70
     Davidson diagonalization with overlap
     ethr =  1.71E-04,  avg # of iterations = 10.9

     negative rho (up, down):  5.110E-03 0.000E+00

     total cpu time spent up to now is     3522.4 secs

     total energy              =  -27817.35728026 Ry
     estimated scf accuracy    <       0.29315558 Ry

     iteration #  5     ecut=    60.00 Ry     beta= 0.70
     Davidson diagonalization with overlap
     ethr =  7.78E-05,  avg # of iterations =  3.7

     negative rho (up, down):  3.421E-03 0.000E+00

     total cpu time spent up to now is     4147.7 secs

     total energy              =  -27817.36998216 Ry
     estimated scf accuracy    <       0.05706624 Ry

     iteration #  6     ecut=    60.00 Ry     beta= 0.70
     Davidson diagonalization with overlap
     c_bands:  2 eigenvalues not converged
     c_bands:  2 eigenvalues not converged
     c_bands:  3 eigenvalues not converged
     c_bands:  2 eigenvalues not converged
     ethr =  1.51E-05,  avg # of iterations = 12.1

     negative rho (up, down):  2.842E-03 0.000E+00

     total cpu time spent up to now is     5091.7 secs

     total energy              =  -27817.38233919 Ry
     estimated scf accuracy    <       0.01221306 Ry

     iteration #  7     ecut=    60.00 Ry     beta= 0.70
     Davidson diagonalization with overlap
     ethr =  3.24E-06,  avg # of iterations = 12.8

     negative rho (up, down):  2.740E-03 0.000E+00

     total cpu time spent up to now is     5963.7 secs

     total energy              =  -27817.38429768 Ry
     estimated scf accuracy    <       0.00973117 Ry

     iteration #  8     ecut=    60.00 Ry     beta= 0.70
     Davidson diagonalization with overlap
     ethr =  2.58E-06,  avg # of iterations =  9.9

     negative rho (up, down):  2.994E-03 0.000E+00

     total cpu time spent up to now is     6636.4 secs

     total energy              =  -27817.38478642 Ry
     estimated scf accuracy    <       0.00453461 Ry

     iteration #  9     ecut=    60.00 Ry     beta= 0.70
     Davidson diagonalization with overlap
     ethr =  1.20E-06,  avg # of iterations =  8.2

     negative rho (up, down):  4.095E-03 0.000E+00

     total cpu time spent up to now is     7273.2 secs

     total energy              =  -27817.38508339 Ry
     estimated scf accuracy    <       0.00164515 Ry

     iteration # 10     ecut=    60.00 Ry     beta= 0.70
     Davidson diagonalization with overlap
     ethr =  4.36E-07,  avg # of iterations = 10.5

     negative rho (up, down):  4.785E-03 0.000E+00

     total cpu time spent up to now is     7974.0 secs

     total energy              =  -27817.38523068 Ry
     estimated scf accuracy    <       0.00086231 Ry

     iteration # 11     ecut=    60.00 Ry     beta= 0.70
     Davidson diagonalization with overlap
     ethr =  2.29E-07,  avg # of iterations =  2.0

     negative rho (up, down):  6.292E-03 0.000E+00

     total cpu time spent up to now is     8548.5 secs

     total energy              =  -27817.38531594 Ry
     estimated scf accuracy    <       0.00071102 Ry

     iteration # 12     ecut=    60.00 Ry     beta= 0.70
     Davidson diagonalization with overlap
     ethr =  1.89E-07,  avg # of iterations =  3.1

     negative rho (up, down):  7.490E-03 0.000E+00

     total cpu time spent up to now is     9113.7 secs

     total energy              =  -27817.38535399 Ry
     estimated scf accuracy    <       0.00047946 Ry

     iteration # 13     ecut=    60.00 Ry     beta= 0.70
     Davidson diagonalization with overlap
     ethr =  1.27E-07,  avg # of iterations =  1.3

     negative rho (up, down):  1.141E-02 0.000E+00

     total cpu time spent up to now is     9652.3 secs

     total energy              =  -27817.38532390 Ry
     estimated scf accuracy    <       0.00027770 Ry

     iteration # 14     ecut=    60.00 Ry     beta= 0.70
     Davidson diagonalization with overlap
     ethr =  7.37E-08,  avg # of iterations =  2.0

     negative rho (up, down):  1.130E-02 0.000E+00

     total cpu time spent up to now is    10241.3 secs

     total energy              =  -27817.38531934 Ry
     estimated scf accuracy    <       0.00035105 Ry

     iteration # 15     ecut=    60.00 Ry     beta= 0.70
     Davidson diagonalization with overlap
     ethr =  7.37E-08,  avg # of iterations =  1.0

     negative rho (up, down):  1.239E-02 0.000E+00

     total cpu time spent up to now is    10768.9 secs

     total energy              =  -27817.38530969 Ry
     estimated scf accuracy    <       0.00011511 Ry

     iteration # 16     ecut=    60.00 Ry     beta= 0.70
     Davidson diagonalization with overlap
     ethr =  3.05E-08,  avg # of iterations =  1.8

     negative rho (up, down):  1.309E-02 0.000E+00

     total cpu time spent up to now is    11330.7 secs

     total energy              =  -27817.38532263 Ry
     estimated scf accuracy    <       0.00004435 Ry

     iteration # 17     ecut=    60.00 Ry     beta= 0.70
     Davidson diagonalization with overlap
     ethr =  1.18E-08,  avg # of iterations =  2.3

     negative rho (up, down):  1.338E-02 0.000E+00

     total cpu time spent up to now is    11977.3 secs

     total energy              =  -27817.38533018 Ry
     estimated scf accuracy    <       0.00001122 Ry

     iteration # 18     ecut=    60.00 Ry     beta= 0.70
     Davidson diagonalization with overlap
     ethr =  2.98E-09,  avg # of iterations =  4.5

     negative rho (up, down):  1.343E-02 0.000E+00

     total cpu time spent up to now is    12756.3 secs

     total energy              =  -27817.38533433 Ry
     estimated scf accuracy    <       0.00000587 Ry

     iteration # 19     ecut=    60.00 Ry     beta= 0.70
     Davidson diagonalization with overlap
     ethr =  1.56E-09,  avg # of iterations =  2.0

     negative rho (up, down):  1.335E-02 0.000E+00

     total cpu time spent up to now is    13342.8 secs

     total energy              =  -27817.38533473 Ry
     estimated scf accuracy    <       0.00000314 Ry

     iteration # 20     ecut=    60.00 Ry     beta= 0.70
     Davidson diagonalization with overlap
     ethr =  8.32E-10,  avg # of iterations =  2.0

     negative rho (up, down):  1.337E-02 0.000E+00

     total cpu time spent up to now is    13932.6 secs

     total energy              =  -27817.38533483 Ry
     estimated scf accuracy    <       0.00000218 Ry

     iteration # 21     ecut=    60.00 Ry     beta= 0.70
     Davidson diagonalization with overlap
     ethr =  5.77E-10,  avg # of iterations =  1.5

     negative rho (up, down):  1.336E-02 0.000E+00

     total cpu time spent up to now is    14463.5 secs

     End of self-consistent calculation

          k = 0.0000 0.0000 0.0000 ( 92411 PWs)   bands (ev):

   -13.4963 -10.7744  -7.9305  -6.9438  -5.8112  -5.4429  -4.9135  -4.5742
    -4.5569  -4.5388  -4.5232  -4.5080  -4.5011  -4.4818  -4.3557  -4.1191
    -4.0173  -3.9902  -3.9746  -3.9638  -3.9332  -3.9223  -3.6527  -3.5482
    -3.5248  -3.5185  -3.5033  -3.4536  -3.3747  -3.3098  -3.3049  -3.2920
    -3.2631  -3.2356  -3.1804  -3.1252  -3.1051  -3.0901  -3.0832  -3.0755
    -3.0253  -3.0230  -3.0193  -3.0114  -2.9826  -2.9745  -2.7776  -2.5758
    -2.5448  -2.4744  -2.4575  -2.4540  -2.4174  -2.4126  -2.3907  -2.3712
    -2.3570  -2.2211  -2.2141  -2.1761  -2.1609  -2.1402  -1.7843  -1.7534
    -1.6959  -1.6481  -1.6379  -1.6333  -1.5847  -1.5246  -1.5032  -1.4779
    -1.4533  -1.4419  -1.4366  -1.4333  -1.4323  -1.4083  -1.4022  -1.3988
    -1.3805  -1.3690  -1.3552  -1.3327  -1.3163  -1.3020  -1.2537  -1.2410
    -1.2373  -1.1882  -1.0898  -1.0431  -1.0385  -1.0215  -1.0094  -0.9906
    -0.9770  -0.9708  -0.9161  -0.9057  -0.8974  -0.8638  -0.8494  -0.8286
    -0.8085  -0.7979  -0.7866  -0.7645  -0.7626  -0.7574  -0.6289  -0.6021
    -0.5838  -0.5679  -0.4915  -0.4352  -0.3236  -0.1543  -0.1475  -0.1349
    -0.1094  -0.1067  -0.1038  -0.1016  -0.0234   0.0108   0.0220   0.0473
     0.0738   0.0845   0.1421   0.1526   0.1788   0.1858   0.1984   0.2503
     0.2767   0.3269   0.3760   0.3824   0.3998   0.4220   0.5940   0.6030
     0.6071   0.6378   0.6405   0.6580   0.6822   0.6872   0.7391   0.8736
     0.8819   0.8888   0.9324   0.9423   0.9863   0.9951   1.0334   1.0366
     1.0589   1.0605   1.0761   1.0792   1.0925   1.0938   1.1140   1.1217
     1.1302   1.1624   1.1727   1.1894   1.1995   1.2103   1.2595   1.2634
     1.3094   1.3127   1.3148   1.3407   1.3521   1.3841   1.4215   1.4361
     1.4382   1.4528   1.4560   1.4612   1.4830   1.5014   1.5221   1.5579
     1.5788   1.5921   1.5968   1.7245   1.7512   1.8474   1.8599   1.8653
     1.8819   1.8838   1.9117   2.2123   2.2700   2.4669   2.6990   2.7397
     2.7822   2.7886   3.6425   3.9747   4.4703   5.0390   5.0462   5.0634
     5.5342   5.6547   5.7343   6.3329   6.4868   6.6891   6.7029   6.7099
     6.7317   6.7533   6.8095

          k = 0.0000 0.2309 0.0000 ( 92282 PWs)   bands (ev):

   -13.4960 -10.7743  -7.9289  -6.7987  -5.7178  -5.4018  -5.0342  -4.8550
    -4.6341  -4.6243  -4.4200  -4.3544  -4.3132  -4.2836  -4.2564  -4.1516
    -4.0542  -4.0153  -3.9534  -3.9029  -3.8887  -3.8519  -3.6128  -3.5875
    -3.5004  -3.4762  -3.4618  -3.4402  -3.3820  -3.3690  -3.3093  -3.2922
    -3.2773  -3.2719  -3.2219  -3.1867  -3.1630  -3.1217  -3.0822  -3.0774
    -3.0358  -2.9508  -2.8953  -2.8535  -2.8384  -2.8273  -2.7756  -2.6353
    -2.5896  -2.5695  -2.5413  -2.5043  -2.4818  -2.4730  -2.3569  -2.3094
    -2.2487  -2.2362  -2.2063  -2.1757  -2.1512  -2.1034  -1.9362  -1.8598
    -1.8263  -1.7976  -1.7800  -1.7385  -1.7098  -1.6789  -1.6578  -1.6050
    -1.6011  -1.5935  -1.5357  -1.5128  -1.4849  -1.4589  -1.4389  -1.3942
    -1.3775  -1.3399  -1.3219  -1.2936  -1.2633  -1.2487  -1.2331  -1.2020
    -1.1819  -1.1443  -1.1233  -1.0911  -1.0694  -1.0504  -1.0356  -1.0099
    -0.9901  -0.9742  -0.9411  -0.9116  -0.9081  -0.8736  -0.8647  -0.8479
    -0.8359  -0.8038  -0.7832  -0.7469  -0.7228  -0.7211  -0.6750  -0.6412
    -0.6171  -0.5837  -0.5542  -0.5319  -0.5188  -0.5107  -0.4900  -0.4137
    -0.3513  -0.2538  -0.1792  -0.1480  -0.1255  -0.1039  -0.0869  -0.0785
    -0.0347   0.0459   0.0750   0.1322   0.1542   0.1880   0.2264   0.2480
     0.2946   0.3132   0.3331   0.3612   0.3925   0.4053   0.4668   0.4887
     0.5154   0.5248   0.5338   0.6054   0.6894   0.7012   0.7094   0.7331
     0.7551   0.7779   0.8287   0.8535   0.8929   0.9015   0.9356   0.9799
     0.9940   1.0158   1.0420   1.0764   1.1117   1.1360   1.1625   1.1935
     1.2224   1.2351   1.2756   1.3093   1.3237   1.3863   1.3952   1.4117
     1.4335   1.4616   1.4830   1.5043   1.5224   1.5405   1.5512   1.5738
     1.6046   1.6092   1.7137   1.7297   1.7622   1.7756   1.7960   1.8133
     1.8385   1.8576   1.8625   1.8794   1.9038   1.9937   2.0045   2.0241
     2.0698   2.1617   2.1881   2.2092   2.4525   2.5345   2.7781   3.1159
     3.3219   3.4105   3.6187   4.0417   4.4697   4.7006   5.0709   5.3423
     5.5331   5.5796   5.7680   5.9029   5.9648   6.4276   6.5077   6.5627
     6.6193   6.8224   6.9114

          k = 0.0000 0.4619 0.0000 ( 92256 PWs)   bands (ev):

   -13.4957 -10.7741  -7.9265  -6.3816  -5.7729  -5.5573  -5.1448  -4.8138
    -4.6623  -4.6535  -4.5021  -4.2963  -4.1603  -4.1096  -4.0298  -3.9679
    -3.9410  -3.9197  -3.8399  -3.7691  -3.7276  -3.7122  -3.7042  -3.6036
    -3.5782  -3.5492  -3.5256  -3.5074  -3.4906  -3.4528  -3.4140  -3.3794
    -3.3627  -3.3257  -3.1405  -3.1165  -3.1041  -3.0928  -3.0695  -3.0263
    -2.8923  -2.8696  -2.8529  -2.8383  -2.8142  -2.7783  -2.7057  -2.6111
    -2.5684  -2.5596  -2.5143  -2.4948  -2.4777  -2.4224  -2.4076  -2.3719
    -2.3643  -2.3357  -2.2403  -2.1860  -2.1660  -2.1397  -2.0975  -2.0371
    -2.0081  -1.9698  -1.9598  -1.8946  -1.8199  -1.7815  -1.7512  -1.7387
    -1.7117  -1.6697  -1.6406  -1.6243  -1.5953  -1.5609  -1.5069  -1.4820
    -1.4368  -1.4233  -1.3879  -1.3525  -1.3331  -1.3197  -1.2888  -1.2704
    -1.2439  -1.2360  -1.2242  -1.1967  -1.1823  -1.1516  -1.1347  -1.0931
    -1.0551  -1.0438  -1.0332  -1.0237  -0.9758  -0.9385  -0.9098  -0.8730
    -0.8461  -0.8250  -0.8086  -0.7872  -0.7579  -0.6931  -0.6631  -0.6478
    -0.6010  -0.5592  -0.5309  -0.5042  -0.4507  -0.4198  -0.3819  -0.3474
    -0.2773  -0.2658  -0.2336  -0.2175  -0.1760  -0.1584  -0.1458  -0.1070
    -0.0843  -0.0750  -0.0631  -0.0493  -0.0000   0.0099   0.0292   0.0816
     0.1203   0.1325   0.1826   0.2068   0.2376   0.2712   0.3397   0.3969
     0.4172   0.4466   0.5103   0.5751   0.5951   0.6647   0.6817   0.6996
     0.7315   0.7663   0.7831   0.8081   0.8468   0.8779   0.8886   0.9339
     0.9744   1.0250   1.0355   1.0412   1.0585   1.1041   1.1555   1.2070
     1.2460   1.3046   1.3164   1.3398   1.3835   1.4154   1.4451   1.4565
     1.4993   1.5419   1.5636   1.6108   1.6264   1.6382   1.6933   1.7389
     1.7640   1.7731   1.7888   1.7984   1.8278   1.8624   1.9933   2.0086
     2.0245   2.0488   2.0588   2.1506   2.2750   2.2963   2.4796   2.5439
     2.7284   3.0498   3.0956   3.1336   3.3251   3.4209   3.6529   3.7040
     3.8833   4.1089   4.3202   4.3320   4.4221   4.4827   4.6115   4.7192
     4.9136   5.0098   5.2156   5.4527   5.6555   5.9272   6.1338   6.1917
     6.5345   6.6779   6.7522

          k = 0.2000-0.1155 0.0000 ( 92282 PWs)   bands (ev):

   -13.4961 -10.7740  -7.9305  -6.7981  -5.7150  -5.3956  -5.0514  -4.8479
    -4.6412  -4.6134  -4.4215  -4.3737  -4.3086  -4.2889  -4.2533  -4.1246
    -4.0730  -4.0336  -3.9194  -3.8999  -3.8946  -3.8609  -3.6081  -3.5839
    -3.4919  -3.4715  -3.4611  -3.4146  -3.3933  -3.3724  -3.3481  -3.2850
    -3.2777  -3.2592  -3.2024  -3.1782  -3.1720  -3.1141  -3.0940  -3.0773
    -3.0598  -2.9585  -2.9026  -2.8515  -2.8379  -2.8306  -2.7635  -2.6150
    -2.6045  -2.5711  -2.5497  -2.5077  -2.4798  -2.4714  -2.3612  -2.3163
    -2.2404  -2.2174  -2.1998  -2.1766  -2.1496  -2.1127  -1.9294  -1.8735
    -1.8278  -1.7835  -1.7787  -1.7320  -1.7080  -1.6815  -1.6508  -1.6149
    -1.5972  -1.5911  -1.5326  -1.5111  -1.4976  -1.4573  -1.4395  -1.4013
    -1.3736  -1.3423  -1.3139  -1.2903  -1.2656  -1.2477  -1.2278  -1.2124
    -1.1771  -1.1429  -1.1202  -1.0892  -1.0702  -1.0509  -1.0381  -1.0257
    -0.9902  -0.9697  -0.9432  -0.9278  -0.9081  -0.8780  -0.8705  -0.8476
    -0.8388  -0.8035  -0.7786  -0.7483  -0.7329  -0.7029  -0.6582  -0.6481
    -0.6198  -0.5838  -0.5488  -0.5303  -0.5191  -0.5112  -0.4983  -0.4129
    -0.3697  -0.2441  -0.1805  -0.1481  -0.1334  -0.1010  -0.0852  -0.0802
    -0.0271   0.0549   0.0691   0.1278   0.1472   0.1910   0.2259   0.2452
     0.2959   0.3134   0.3344   0.3666   0.3915   0.4025   0.4645   0.4898
     0.5128   0.5229   0.5336   0.6083   0.6888   0.6955   0.7101   0.7428
     0.7552   0.7822   0.8284   0.8548   0.8924   0.8996   0.9341   0.9817
     0.9914   1.0163   1.0418   1.0763   1.1128   1.1391   1.1620   1.1988
     1.2252   1.2353   1.2754   1.3109   1.3214   1.3844   1.3969   1.4120
     1.4334   1.4617   1.4824   1.5043   1.5224   1.5399   1.5508   1.5750
     1.6052   1.6082   1.7135   1.7300   1.7618   1.7741   1.7985   1.8122
     1.8400   1.8594   1.8621   1.8812   1.9056   1.9976   2.0178   2.0247
     2.0735   2.1560   2.1889   2.2105   2.4142   2.5342   2.8187   3.1020
     3.3364   3.3876   3.6497   3.9987   4.4758   4.6993   5.0729   5.3389
     5.5324   5.5861   5.7708   5.8904   5.9652   6.4477   6.4927   6.5661
     6.6271   6.8076   6.9035

          k = 0.2000 0.1155 0.0000 ( 92282 PWs)   bands (ev):

   -13.4960 -10.7744  -7.9315  -6.7972  -5.7164  -5.3923  -5.0473  -4.8498
    -4.6397  -4.6260  -4.4200  -4.3525  -4.3216  -4.2782  -4.2617  -4.1494
    -4.0569  -4.0411  -3.9183  -3.9007  -3.8848  -3.8642  -3.6455  -3.5859
    -3.4959  -3.4726  -3.4620  -3.4073  -3.3829  -3.3648  -3.3318  -3.3026
    -3.2804  -3.2791  -3.1907  -3.1805  -3.1499  -3.1013  -3.0875  -3.0814
    -3.0378  -2.9403  -2.8854  -2.8672  -2.8438  -2.8291  -2.7525  -2.6133
    -2.6009  -2.5640  -2.5399  -2.5164  -2.4968  -2.4705  -2.3661  -2.3090
    -2.2595  -2.2120  -2.2050  -2.1733  -2.1627  -2.0913  -1.9218  -1.8684
    -1.8478  -1.7816  -1.7784  -1.7333  -1.7046  -1.6783  -1.6531  -1.6126
    -1.5969  -1.5838  -1.5378  -1.5122  -1.4966  -1.4747  -1.4401  -1.3976
    -1.3601  -1.3421  -1.3139  -1.3016  -1.2570  -1.2435  -1.2210  -1.2114
    -1.1781  -1.1431  -1.0968  -1.0811  -1.0712  -1.0430  -1.0370  -1.0092
    -0.9910  -0.9777  -0.9461  -0.9172  -0.8961  -0.8894  -0.8637  -0.8521
    -0.8492  -0.8151  -0.8064  -0.7679  -0.7295  -0.7185  -0.6602  -0.6371
    -0.6092  -0.5831  -0.5738  -0.5349  -0.5170  -0.5168  -0.4971  -0.4689
    -0.3466  -0.2045  -0.1839  -0.1801  -0.1363  -0.1049  -0.0802  -0.0772
    -0.0473   0.0112   0.0853   0.0951   0.1574   0.1705   0.2251   0.2431
     0.2904   0.3198   0.3253   0.3656   0.3982   0.4097   0.4497   0.4947
     0.5057   0.5283   0.5329   0.6503   0.6801   0.6839   0.6966   0.7296
     0.7464   0.8058   0.8214   0.8590   0.8923   0.8996   0.9299   0.9648
     0.9917   1.0219   1.0347   1.0761   1.1136   1.1411   1.1621   1.2186
     1.2342   1.2452   1.2683   1.3099   1.3346   1.3977   1.4023   1.4277
     1.4310   1.4781   1.4821   1.5117   1.5198   1.5442   1.5521   1.5701
     1.6128   1.6133   1.7222   1.7479   1.7556   1.7812   1.7933   1.8103
     1.8412   1.8440   1.8678   1.8794   1.8936   1.9991   2.0210   2.0349
     2.1348   2.1780   2.1812   2.2061   2.3650   2.4660   2.9036   3.0626
     3.3336   3.4220   3.7720   3.8558   4.4089   4.7961   5.0333   5.3750
     5.5307   5.6155   5.7895   5.8682   5.9495   6.4274   6.4931   6.5748
     6.6173   6.8184   6.9025

          k = 0.2000 0.3464 0.0000 ( 92318 PWs)   bands (ev):

   -13.4958 -10.7744  -7.9297  -6.5149  -5.6233  -5.3106  -5.2827  -5.1989
    -4.7794  -4.2782  -4.2380  -4.2146  -4.1921  -4.1691  -4.1477  -4.1214
    -4.0799  -4.0224  -3.9904  -3.9383  -3.6902  -3.6432  -3.6221  -3.6061
    -3.5742  -3.5371  -3.5071  -3.4139  -3.4060  -3.3894  -3.3626  -3.2974
    -3.2779  -3.2499  -3.2341  -3.2098  -3.1465  -3.1404  -3.1288  -3.0700
    -3.0455  -2.9838  -2.9008  -2.7401  -2.7162  -2.6676  -2.6460  -2.6260
    -2.5987  -2.5741  -2.5524  -2.5285  -2.4847  -2.4503  -2.3778  -2.3425
    -2.2785  -2.2328  -2.2163  -2.1928  -2.1529  -2.1195  -2.0991  -2.0617
    -1.9598  -1.9058  -1.8899  -1.8481  -1.8051  -1.7626  -1.7603  -1.7386
    -1.7071  -1.6836  -1.6473  -1.5660  -1.5351  -1.5166  -1.4907  -1.4855
    -1.4457  -1.4140  -1.3928  -1.3392  -1.3326  -1.3008  -1.2680  -1.2413
    -1.2122  -1.1833  -1.1728  -1.1511  -1.1355  -1.1086  -1.0939  -1.0624
    -1.0370  -1.0253  -0.9674  -0.9431  -0.9334  -0.9041  -0.8809  -0.8731
    -0.8594  -0.8170  -0.8039  -0.7867  -0.7665  -0.7567  -0.7440  -0.7200
    -0.6791  -0.6589  -0.6140  -0.6026  -0.5859  -0.4893  -0.4745  -0.4275
    -0.3770  -0.3142  -0.2633  -0.2463  -0.2018  -0.1559  -0.1199  -0.0940
    -0.0669  -0.0593  -0.0341   0.0097   0.0379   0.0568   0.0771   0.1458
     0.1798   0.2328   0.2831   0.2990   0.3223   0.3344   0.3844   0.4324
     0.4550   0.5119   0.5389   0.5631   0.6051   0.6272   0.6585   0.6769
     0.7262   0.7545   0.7842   0.8051   0.8386   0.8622   0.8741   0.8906
     0.8945   0.9332   0.9629   1.0177   1.0861   1.1257   1.1616   1.2132
     1.2857   1.3576   1.3873   1.4151   1.4511   1.4906   1.5266   1.5432
     1.5738   1.5774   1.6177   1.6346   1.6436   1.6529   1.6817   1.6946
     1.7165   1.7671   1.8007   1.8195   1.8354   1.8608   1.9022   1.9586
     2.0050   2.0503   2.0886   2.0996   2.1468   2.1776   2.2718   2.3036
     2.4472   2.8039   2.8537   2.9380   3.1970   3.2609   3.3864   3.4242
     3.7839   3.8866   4.1744   4.2506   4.3265   4.4077   4.7325   5.0471
     5.2562   5.5104   5.6511   5.8076   5.9030   6.1006   6.2036   6.2489
     6.2853   6.3762   6.6247

          k = 0.2000-0.5774 0.0000 ( 92300 PWs)   bands (ev):

   -13.4956 -10.7740  -7.9277  -6.0038  -5.9795  -5.5572  -5.3530  -4.9556
    -4.7574  -4.5754  -4.2387  -4.1940  -4.0855  -4.0566  -4.0287  -3.9244
    -3.9036  -3.8202  -3.7964  -3.7324  -3.6996  -3.6910  -3.6729  -3.6572
    -3.6205  -3.6096  -3.5434  -3.4887  -3.4776  -3.4636  -3.4355  -3.4136
    -3.3542  -3.3092  -3.2238  -3.1881  -3.1346  -3.0784  -3.0737  -3.0464
    -3.0221  -2.9625  -2.8838  -2.8495  -2.8250  -2.7118  -2.6628  -2.6407
    -2.5913  -2.5664  -2.4968  -2.4534  -2.4000  -2.3387  -2.3099  -2.2938
    -2.2555  -2.2413  -2.1910  -2.1753  -2.1442  -2.0872  -2.0561  -2.0388
    -2.0190  -2.0136  -1.9823  -1.9708  -1.9270  -1.9052  -1.8487  -1.8006
    -1.7605  -1.7215  -1.7079  -1.6460  -1.6110  -1.5763  -1.5708  -1.5325
    -1.5175  -1.4949  -1.4657  -1.4483  -1.4103  -1.3852  -1.3432  -1.3336
    -1.3029  -1.2338  -1.1987  -1.1876  -1.1600  -1.1550  -1.1337  -1.0364
    -1.0119  -0.9859  -0.9662  -0.9451  -0.9167  -0.9042  -0.8903  -0.8651
    -0.8531  -0.8379  -0.8242  -0.8085  -0.7730  -0.7383  -0.7308  -0.7233
    -0.7073  -0.6982  -0.6804  -0.6288  -0.5912  -0.4821  -0.4537  -0.3902
    -0.3574  -0.3323  -0.2866  -0.2433  -0.2358  -0.1875  -0.1727  -0.1434
    -0.1303  -0.0978  -0.0459  -0.0355   0.0017   0.0264   0.0427   0.0833
     0.1401   0.1706   0.2332   0.2623   0.3206   0.3524   0.4027   0.4288
     0.4525   0.4764   0.5012   0.5348   0.5694   0.5928   0.6185   0.6228
     0.6463   0.6889   0.7205   0.7667   0.7881   0.8037   0.8400   0.8547
     0.8798   0.9547   0.9952   1.0768   1.1137   1.1680   1.2290   1.2704
     1.2917   1.3271   1.3684   1.3946   1.4646   1.4860   1.5525   1.5694
     1.5852   1.6052   1.6259   1.6487   1.6791   1.7484   1.7606   1.7658
     1.7881   1.8015   1.8232   1.8286   1.9138   1.9615   2.0072   2.0389
     2.0541   2.0666   2.1069   2.1226   2.2257   2.3336   2.7269   2.8272
     3.1322   3.2121   3.2713   3.4563   3.5464   3.5723   3.7157   3.8515
     4.1476   4.2339   4.2586   4.3657   4.6852   4.7612   4.7972   4.8850
     4.9776   5.0951   5.1361   5.3441   5.5492   5.6070   5.6847   6.0404
     6.2247   6.2891   6.3169

          k = 0.2000-0.3464 0.0000 ( 92318 PWs)   bands (ev):

   -13.4958 -10.7737  -7.9281  -6.5168  -5.6213  -5.3116  -5.2893  -5.1989
    -4.7700  -4.2976  -4.2355  -4.2104  -4.1941  -4.1606  -4.1475  -4.1050
    -4.0798  -4.0176  -4.0011  -3.9285  -3.6928  -3.6424  -3.6248  -3.6014
    -3.5492  -3.5377  -3.4803  -3.4181  -3.4046  -3.3754  -3.3518  -3.3178
    -3.2717  -3.2539  -3.2335  -3.2146  -3.1636  -3.1391  -3.1242  -3.0853
    -3.0635  -3.0024  -2.9752  -2.7549  -2.7207  -2.6779  -2.6597  -2.6288
    -2.6144  -2.5783  -2.5629  -2.5195  -2.4763  -2.4473  -2.3635  -2.3456
    -2.2609  -2.2507  -2.2024  -2.1670  -2.1512  -2.1194  -2.1089  -2.0728
    -1.9312  -1.9106  -1.8987  -1.8376  -1.7993  -1.7646  -1.7433  -1.7191
    -1.6971  -1.6860  -1.6659  -1.5765  -1.5396  -1.5181  -1.5017  -1.4835
    -1.4547  -1.4148  -1.3768  -1.3538  -1.3288  -1.2873  -1.2604  -1.2481
    -1.2257  -1.1992  -1.1618  -1.1445  -1.1383  -1.1037  -1.0921  -1.0634
    -1.0176  -1.0056  -0.9683  -0.9414  -0.9298  -0.9144  -0.8977  -0.8777
    -0.8473  -0.8231  -0.7980  -0.7832  -0.7717  -0.7577  -0.7159  -0.7071
    -0.6919  -0.6642  -0.6230  -0.5843  -0.5429  -0.4930  -0.4759  -0.4537
    -0.3839  -0.3001  -0.2547  -0.2332  -0.1955  -0.1323  -0.1270  -0.0771
    -0.0576  -0.0492  -0.0228  -0.0096   0.0317   0.0732   0.1101   0.1518
     0.1879   0.2276   0.2810   0.3084   0.3253   0.3376   0.3847   0.4244
     0.4402   0.4665   0.5388   0.5643   0.5948   0.6118   0.6545   0.6777
     0.7364   0.7650   0.7968   0.8132   0.8379   0.8520   0.8804   0.8896
     0.9029   0.9397   0.9825   1.0205   1.0887   1.0991   1.1464   1.2022
     1.3121   1.3469   1.3588   1.4195   1.4491   1.4818   1.5358   1.5500
     1.5757   1.5806   1.6079   1.6313   1.6442   1.6486   1.6785   1.6957
     1.7199   1.7599   1.7938   1.8191   1.8343   1.8612   1.9037   1.9661
     2.0078   2.0654   2.1005   2.1080   2.1496   2.1823   2.2774   2.2986
     2.3761   2.7669   2.8440   2.9563   3.1918   3.2860   3.3813   3.4153
     3.6458   3.9314   4.1427   4.2731   4.3114   4.5382   4.6627   5.0106
     5.3067   5.5172   5.6652   5.7644   5.9258   6.1159   6.1790   6.2251
     6.3224   6.3727   6.6357

          k = 0.4000-0.2309 0.0000 ( 92256 PWs)   bands (ev):

   -13.4958 -10.7734  -7.9304  -6.3794  -5.7631  -5.5588  -5.1496  -4.8153
    -4.6760  -4.6529  -4.4968  -4.3108  -4.1566  -4.1277  -4.0290  -3.9603
    -3.9454  -3.9226  -3.8035  -3.7745  -3.7232  -3.7163  -3.7015  -3.6047
    -3.5653  -3.5386  -3.5171  -3.5063  -3.4899  -3.4572  -3.4080  -3.3690
    -3.3549  -3.3140  -3.1630  -3.1261  -3.0991  -3.0913  -3.0837  -3.0256
    -2.9053  -2.8798  -2.8602  -2.8424  -2.8303  -2.7761  -2.6877  -2.6378
    -2.5706  -2.5573  -2.5104  -2.4952  -2.4711  -2.4220  -2.3938  -2.3727
    -2.3649  -2.3315  -2.2382  -2.1880  -2.1708  -2.1370  -2.0850  -2.0224
    -2.0040  -1.9710  -1.9617  -1.8900  -1.8078  -1.7791  -1.7513  -1.7355
    -1.7051  -1.6699  -1.6428  -1.6091  -1.5929  -1.5622  -1.5064  -1.4873
    -1.4400  -1.4258  -1.3871  -1.3662  -1.3341  -1.3202  -1.2926  -1.2764
    -1.2457  -1.2326  -1.2239  -1.1980  -1.1826  -1.1620  -1.1274  -1.1117
    -1.0652  -1.0494  -1.0365  -1.0176  -0.9812  -0.9394  -0.9056  -0.8745
    -0.8496  -0.8310  -0.8108  -0.7822  -0.7615  -0.6962  -0.6691  -0.6492
    -0.6020  -0.5600  -0.5298  -0.5035  -0.4761  -0.4030  -0.3879  -0.3464
    -0.2805  -0.2629  -0.2392  -0.2097  -0.1825  -0.1588  -0.1317  -0.0977
    -0.0817  -0.0742  -0.0605  -0.0449   0.0007   0.0079   0.0289   0.0781
     0.1062   0.1503   0.1890   0.2096   0.2362   0.2689   0.3300   0.3952
     0.4239   0.4525   0.5039   0.5844   0.5949   0.6590   0.6763   0.6984
     0.7239   0.7646   0.7833   0.8081   0.8441   0.8759   0.8924   0.9325
     0.9761   1.0247   1.0363   1.0447   1.0588   1.1001   1.1574   1.2071
     1.2551   1.3067   1.3190   1.3419   1.3832   1.4177   1.4458   1.4565
     1.4997   1.5427   1.5620   1.6104   1.6217   1.6378   1.7017   1.7386
     1.7660   1.7750   1.7903   1.7984   1.8298   1.8631   1.9950   2.0104
     2.0238   2.0502   2.0586   2.1473   2.2747   2.2892   2.4603   2.5817
     2.7394   3.0598   3.0940   3.1562   3.3151   3.4208   3.6045   3.7093
     3.8863   4.1235   4.3201   4.3353   4.4175   4.4818   4.6040   4.7065
     4.9140   5.0145   5.2016   5.4414   5.6663   5.8817   6.1804   6.2030
     6.4732   6.7232   6.7846

          k = 0.4000-0.0000 0.0000 ( 92318 PWs)   bands (ev):

   -13.4958 -10.7740  -7.9322  -6.5133  -5.6163  -5.3055  -5.2751  -5.2189
    -4.7817  -4.3093  -4.2292  -4.2194  -4.1911  -4.1624  -4.1414  -4.1203
    -4.0746  -4.0131  -4.0052  -3.9308  -3.6774  -3.6436  -3.6195  -3.6025
    -3.5828  -3.5332  -3.5179  -3.4113  -3.4038  -3.3750  -3.3425  -3.2979
    -3.2849  -3.2384  -3.2271  -3.2100  -3.1512  -3.1302  -3.1179  -3.0838
    -3.0639  -2.9860  -2.9482  -2.7428  -2.7102  -2.6706  -2.6445  -2.6244
    -2.5882  -2.5767  -2.5500  -2.5185  -2.4913  -2.4646  -2.3605  -2.3473
    -2.2878  -2.2365  -2.2066  -2.1818  -2.1536  -2.1128  -2.0910  -2.0651
    -1.9641  -1.9021  -1.8843  -1.8364  -1.8117  -1.7677  -1.7591  -1.7348
    -1.7017  -1.6663  -1.6435  -1.5832  -1.5334  -1.5173  -1.4992  -1.4850
    -1.4461  -1.4077  -1.3834  -1.3432  -1.3323  -1.3216  -1.2723  -1.2404
    -1.2174  -1.1838  -1.1722  -1.1553  -1.1376  -1.1093  -1.0914  -1.0704
    -1.0390  -1.0307  -0.9603  -0.9461  -0.9277  -0.8994  -0.8860  -0.8745
    -0.8646  -0.8199  -0.8001  -0.7894  -0.7733  -0.7577  -0.7461  -0.7183
    -0.6916  -0.6509  -0.6141  -0.6007  -0.5784  -0.4920  -0.4717  -0.4254
    -0.3816  -0.3113  -0.2669  -0.2489  -0.1949  -0.1527  -0.1225  -0.0996
    -0.0688  -0.0572  -0.0358   0.0100   0.0348   0.0558   0.0826   0.1334
     0.1863   0.2277   0.2819   0.2989   0.3272   0.3346   0.3867   0.4395
     0.4565   0.5073   0.5405   0.5629   0.6060   0.6249   0.6566   0.6770
     0.7282   0.7513   0.7819   0.7996   0.8420   0.8641   0.8772   0.8892
     0.8975   0.9328   0.9659   1.0232   1.0951   1.1268   1.1639   1.2110
     1.2862   1.3611   1.3859   1.4148   1.4549   1.4894   1.5267   1.5407
     1.5711   1.5752   1.6167   1.6341   1.6446   1.6519   1.6808   1.6959
     1.7184   1.7690   1.8007   1.8185   1.8351   1.8610   1.9028   1.9680
     2.0010   2.0481   2.0911   2.1022   2.1422   2.1778   2.2735   2.2981
     2.4707   2.7907   2.8504   2.9062   3.1966   3.3143   3.3867   3.4444
     3.7611   3.8780   4.1803   4.2255   4.3303   4.4077   4.7413   5.0383
     5.2333   5.5084   5.6359   5.8115   5.8923   6.1178   6.2033   6.2640
     6.2794   6.4262   6.5995

          k = 0.4000 0.2309 0.0000 ( 92256 PWs)   bands (ev):

   -13.4957 -10.7745  -7.9329  -6.3770  -5.7618  -5.5573  -5.1439  -4.8241
    -4.6737  -4.6625  -4.4937  -4.2879  -4.1767  -4.1350  -4.0330  -3.9640
    -3.9400  -3.9252  -3.8213  -3.7720  -3.7272  -3.7184  -3.7008  -3.6333
    -3.5938  -3.5484  -3.5413  -3.4998  -3.4944  -3.4635  -3.4191  -3.3695
    -3.3641  -3.1985  -3.1360  -3.1125  -3.1056  -3.0920  -3.0729  -2.9911
    -2.8821  -2.8718  -2.8521  -2.8412  -2.8121  -2.7492  -2.6631  -2.6175
    -2.5610  -2.5578  -2.5245  -2.4962  -2.4787  -2.4268  -2.3898  -2.3710
    -2.3570  -2.3429  -2.2594  -2.1875  -2.1783  -2.1441  -2.0974  -2.0219
    -1.9954  -1.9660  -1.9456  -1.9061  -1.8177  -1.7855  -1.7746  -1.7263
    -1.6924  -1.6774  -1.6325  -1.6273  -1.6174  -1.5490  -1.5258  -1.4824
    -1.4230  -1.4154  -1.3957  -1.3563  -1.3492  -1.3052  -1.2851  -1.2681
    -1.2485  -1.2444  -1.2184  -1.1929  -1.1821  -1.1530  -1.1220  -1.1067
    -1.0670  -1.0477  -1.0400  -1.0310  -0.9793  -0.9658  -0.9151  -0.8836
    -0.8624  -0.8274  -0.7897  -0.7818  -0.7729  -0.7329  -0.6736  -0.6266
    -0.6049  -0.5646  -0.5471  -0.5246  -0.4962  -0.4628  -0.3982  -0.3246
    -0.2812  -0.2567  -0.2401  -0.2110  -0.1901  -0.1622  -0.1549  -0.1160
    -0.1010  -0.0708  -0.0508  -0.0104  -0.0056   0.0150   0.0302   0.0472
     0.0677   0.1413   0.1865   0.2030   0.2253   0.3049   0.3530   0.3936
     0.4336   0.4842   0.4981   0.5676   0.5859   0.6427   0.6739   0.6819
     0.7336   0.7601   0.7667   0.8052   0.8415   0.8611   0.8913   0.9297
     0.9730   1.0138   1.0268   1.0510   1.0812   1.0988   1.1168   1.2119
     1.2491   1.3027   1.3333   1.3645   1.3956   1.4253   1.4507   1.4556
     1.5098   1.5373   1.6046   1.6159   1.6320   1.6354   1.7177   1.7312
     1.7650   1.7850   1.7919   1.7986   1.8234   1.8565   1.9874   2.0121
     2.0204   2.0459   2.0521   2.1608   2.2758   2.3040   2.4312   2.6778
     2.7719   3.0731   3.0967   3.2534   3.3453   3.3819   3.5349   3.7747
     3.8366   4.1139   4.3179   4.3541   4.3733   4.4720   4.6070   4.7567
     4.9288   5.0969   5.1413   5.4246   5.6570   5.9004   6.1497   6.2335
     6.5172   6.7044   6.7613

          k = 0.4000-0.6928 0.0000 ( 92300 PWs)   bands (ev):

   -13.4956 -10.7742  -7.9316  -5.9970  -5.9757  -5.5581  -5.3565  -4.9575
    -4.7657  -4.5632  -4.2711  -4.1878  -4.0859  -4.0585  -4.0301  -3.9155
    -3.9069  -3.8213  -3.7945  -3.7675  -3.7005  -3.6865  -3.6657  -3.6554
    -3.6182  -3.6097  -3.5485  -3.5008  -3.4773  -3.4704  -3.4425  -3.4246
    -3.3450  -3.2333  -3.2094  -3.1787  -3.1280  -3.0768  -3.0696  -3.0542
    -3.0094  -2.9543  -2.8869  -2.8576  -2.8178  -2.6862  -2.6541  -2.6448
    -2.6165  -2.5481  -2.4691  -2.4502  -2.3963  -2.3347  -2.3221  -2.3004
    -2.2679  -2.2372  -2.1914  -2.1638  -2.1360  -2.0887  -2.0626  -2.0488
    -2.0231  -2.0035  -1.9791  -1.9673  -1.9186  -1.8827  -1.8491  -1.8053
    -1.7707  -1.7336  -1.6976  -1.6671  -1.6237  -1.5827  -1.5496  -1.5387
    -1.5056  -1.4859  -1.4590  -1.4439  -1.4269  -1.3835  -1.3744  -1.3371
    -1.2938  -1.2681  -1.2019  -1.1879  -1.1749  -1.1632  -1.1105  -1.0942
    -1.0156  -0.9795  -0.9556  -0.9520  -0.9266  -0.9037  -0.8708  -0.8647
    -0.8429  -0.8377  -0.8163  -0.7971  -0.7821  -0.7763  -0.7310  -0.7168
    -0.7096  -0.6979  -0.6872  -0.6387  -0.6273  -0.4836  -0.4478  -0.3758
    -0.3600  -0.3532  -0.2699  -0.2431  -0.2270  -0.1917  -0.1572  -0.1487
    -0.1254  -0.0922  -0.0485  -0.0408  -0.0021   0.0284   0.0457   0.0826
     0.1373   0.1764   0.1868   0.2721   0.3228   0.3517   0.4039   0.4156
     0.4657   0.4734   0.5137   0.5207   0.5525   0.5761   0.6067   0.6154
     0.6562   0.6761   0.7139   0.7651   0.7832   0.7913   0.8178   0.8579
     0.8947   0.9700   1.0220   1.0726   1.1021   1.1643   1.2314   1.2692
     1.3052   1.3639   1.3783   1.3985   1.4618   1.5015   1.5619   1.5703
     1.5716   1.5965   1.6289   1.6706   1.6801   1.7479   1.7564   1.7812
     1.7865   1.8061   1.8232   1.8345   1.9137   1.9687   1.9911   2.0360
     2.0498   2.0615   2.0834   2.1177   2.2054   2.3019   2.7606   3.0147
     3.1381   3.2136   3.2218   3.4569   3.5350   3.6142   3.6260   3.9177
     4.0974   4.2135   4.3058   4.4524   4.6752   4.7731   4.7974   4.8475
     5.0225   5.0944   5.1331   5.2345   5.4292   5.6151   5.7601   6.0843
     6.2256   6.3057   6.3687

          k = 0.4000-0.4619 0.0000 ( 92300 PWs)   bands (ev):

   -13.4957 -10.7735  -7.9301  -5.9948  -5.9821  -5.5628  -5.3470  -4.9567
    -4.7732  -4.5603  -4.2736  -4.1859  -4.0892  -4.0582  -4.0129  -3.9218
    -3.9083  -3.8238  -3.7941  -3.7295  -3.6968  -3.6838  -3.6753  -3.6468
    -3.6224  -3.5921  -3.5513  -3.4862  -3.4742  -3.4583  -3.4377  -3.4164
    -3.3650  -3.2605  -3.2241  -3.1879  -3.1341  -3.1128  -3.0741  -3.0410
    -3.0214  -3.0039  -2.8796  -2.8489  -2.8298  -2.6919  -2.6657  -2.6418
    -2.6147  -2.5628  -2.4941  -2.4514  -2.3988  -2.3404  -2.3142  -2.2870
    -2.2538  -2.2380  -2.1888  -2.1725  -2.1334  -2.0868  -2.0655  -2.0408
    -2.0163  -2.0075  -1.9885  -1.9677  -1.9207  -1.8998  -1.8415  -1.7997
    -1.7616  -1.7195  -1.6905  -1.6495  -1.6101  -1.5825  -1.5623  -1.5303
    -1.5177  -1.4955  -1.4688  -1.4480  -1.4119  -1.3883  -1.3497  -1.3388
    -1.3108  -1.2592  -1.1937  -1.1819  -1.1623  -1.1552  -1.1323  -1.0376
    -1.0191  -0.9910  -0.9635  -0.9456  -0.9190  -0.9039  -0.8859  -0.8661
    -0.8599  -0.8367  -0.8213  -0.8020  -0.7773  -0.7412  -0.7257  -0.7226
    -0.7072  -0.6997  -0.6843  -0.6300  -0.6074  -0.4855  -0.4617  -0.3858
    -0.3581  -0.3307  -0.2733  -0.2421  -0.2324  -0.1879  -0.1708  -0.1423
    -0.1279  -0.0938  -0.0522  -0.0363   0.0006   0.0306   0.0495   0.0850
     0.1427   0.1707   0.2326   0.2578   0.3222   0.3434   0.4048   0.4331
     0.4531   0.4735   0.5022   0.5352   0.5736   0.5922   0.6091   0.6226
     0.6498   0.6883   0.7190   0.7669   0.7845   0.7989   0.8363   0.8519
     0.8870   0.9551   0.9885   1.0843   1.1178   1.1625   1.2356   1.2716
     1.2963   1.3326   1.3689   1.3955   1.4666   1.4862   1.5514   1.5683
     1.5860   1.6061   1.6263   1.6514   1.6761   1.7476   1.7608   1.7672
     1.7912   1.8030   1.8236   1.8281   1.9127   1.9597   2.0036   2.0385
     2.0546   2.0672   2.1028   2.1200   2.2262   2.3279   2.7660   2.8361
     3.1127   3.2125   3.2582   3.4661   3.5521   3.5726   3.6792   3.8805
     4.1504   4.2318   4.2548   4.3722   4.6791   4.7591   4.7994   4.8798
     4.9912   5.1009   5.1690   5.2782   5.5074   5.6045   5.6751   6.0657
     6.2219   6.2964   6.3584

     the Fermi energy is     1.8325 ev

!    total energy              =  -27817.38533426 Ry

     total all-electron energy =  -1326877.443025 Ry
     estimated scf accuracy    <       0.00000079 Ry
     smearing contrib. (-TS)   =       0.00203254 Ry
     internal energy E=F+TS    =  -27817.38736680 Ry

     The total energy is F=E-TS. E is the sum of the following terms:
     one-electron contribution =  -29169.94628282 Ry
     hartree contribution      =   14888.65799787 Ry
     xc contribution           =    -908.22722350 Ry
     ewald contribution        =   12865.73439700 Ry
     one-center paw contrib.   =  -25493.60625534 Ry

     convergence has been achieved in  21 iterations

     negative rho (up, down):  1.336E-02 0.000E+00

     Forces acting on atoms (cartesian axes, Ry/au):

     atom    1 type  1   force =     0.00018644   -0.00073898   -0.00367809
     atom    2 type  1   force =     0.00005585   -0.00007159   -0.00374889
     atom    3 type  1   force =     0.00034011    0.00022630   -0.00442724
     atom    4 type  1   force =     0.00051697    0.00038310   -0.00301159
     atom    5 type  1   force =     0.00104906   -0.00162255   -0.00487790
     atom    6 type  1   force =    -0.00034672    0.00035518   -0.00373269
     atom    7 type  1   force =    -0.00085097    0.00149438   -0.00494235
     atom    8 type  1   force =     0.00125180    0.00085421   -0.00579479
     atom    9 type  1   force =     0.00000772    0.00002286   -0.00370526
     atom   10 type  1   force =     0.00039486   -0.00023258    0.00873859
     atom   11 type  1   force =    -0.00102087    0.00110941    0.00792599
     atom   12 type  1   force =    -0.00124379   -0.00071970    0.00870298
     atom   13 type  1   force =    -0.00172190   -0.00050296   -0.00300732
     atom   14 type  1   force =     0.00008923    0.00008210   -0.00396647
     atom   15 type  1   force =     0.00034497    0.00065254    0.00882843
     atom   16 type  1   force =     0.00005652   -0.00008874   -0.00266325
     atom   17 type  1   force =    -0.00216145   -0.00125103    0.00516487
     atom   18 type  1   force =     0.00075745   -0.00190112    0.00853299
     atom   19 type  1   force =    -0.00005091    0.00009507   -0.00013277
     atom   20 type  1   force =    -0.00001031   -0.00008143    0.00055275
     atom   21 type  1   force =     0.00002637   -0.00000450    0.00050437
     atom   22 type  1   force =    -0.00013313    0.00019766    0.00039630
     atom   23 type  1   force =    -0.00004934    0.00005131   -0.00033811
     atom   24 type  1   force =     0.00001040    0.00015423    0.00020561
     atom   25 type  1   force =    -0.00012341    0.00013681    0.00045208
     atom   26 type  1   force =     0.00010993    0.00012216    0.00026249
     atom   27 type  1   force =     0.00009117    0.00024771    0.00062479
     atom   28 type  1   force =     0.00013365    0.00010345   -0.00018996
     atom   29 type  1   force =    -0.00005607    0.00028039    0.00067437
     atom   30 type  1   force =     0.00019873    0.00027178    0.00077827
     atom   31 type  1   force =     0.00020380    0.00019130   -0.00016437
     atom   32 type  1   force =     0.00004548    0.00009039   -0.00026685
     atom   33 type  1   force =    -0.00009600    0.00013335   -0.00010082
     atom   34 type  1   force =     0.00005225    0.00025402   -0.00010590
     atom   35 type  1   force =     0.00002917    0.00023445   -0.00014500
     atom   36 type  1   force =     0.00021807    0.00007093    0.00052927
     atom   37 type  2   force =     0.00060225   -0.00020673   -0.00095893
     atom   38 type  2   force =     0.00010956    0.00029469   -0.00187114
     atom   39 type  2   force =    -0.00399660   -0.00250800    0.00584226
     atom   40 type  3   force =     0.00044046   -0.00047394    0.00014619
     atom   41 type  3   force =    -0.00024736   -0.00007153   -0.00019679
     atom   42 type  3   force =     0.00000959   -0.00039886    0.00005616
     atom   43 type  3   force =     0.00003594    0.00016338   -0.00019720
     atom   44 type  3   force =     0.00474105    0.00260106   -0.00669507

     Total force =     0.011831     Total SCF correction =     0.003821
     SCF correction compared to forces is large: reduce conv_thr to get better values

     negative rho (up, down):  1.336E-02 0.000E+00

     negative rho (up, down):  1.336E-02 0.000E+00

     negative rho (up, down):  1.336E-02 0.000E+00

     negative rho (up, down):  1.336E-02 0.000E+00

     negative rho (up, down):  1.336E-02 0.000E+00

     negative rho (up, down):  1.336E-02 0.000E+00

     negative rho (up, down):  1.336E-02 0.000E+00

     negative rho (up, down):  1.336E-02 0.000E+00

     negative rho (up, down):  1.336E-02 0.000E+00

     negative rho (up, down):  1.336E-02 0.000E+00

     negative rho (up, down):  1.336E-02 0.000E+00

     negative rho (up, down):  1.336E-02 0.000E+00

     negative rho (up, down):  1.336E-02 0.000E+00

     negative rho (up, down):  1.336E-02 0.000E+00

     negative rho (up, down):  1.336E-02 0.000E+00

     negative rho (up, down):  1.336E-02 0.000E+00

     negative rho (up, down):  1.336E-02 0.000E+00

     negative rho (up, down):  1.336E-02 0.000E+00

     negative rho (up, down):  1.336E-02 0.000E+00

     negative rho (up, down):  1.336E-02 0.000E+00

     negative rho (up, down):  1.336E-02 0.000E+00

     negative rho (up, down):  1.336E-02 0.000E+00

     negative rho (up, down):  1.336E-02 0.000E+00

     negative rho (up, down):  1.336E-02 0.000E+00

     negative rho (up, down):  1.336E-02 0.000E+00

     negative rho (up, down):  1.336E-02 0.000E+00

     negative rho (up, down):  1.336E-02 0.000E+00

     negative rho (up, down):  1.336E-02 0.000E+00

     negative rho (up, down):  1.336E-02 0.000E+00

     negative rho (up, down):  1.336E-02 0.000E+00

     negative rho (up, down):  1.336E-02 0.000E+00

     negative rho (up, down):  1.336E-02 0.000E+00

     negative rho (up, down):  1.336E-02 0.000E+00

     negative rho (up, down):  1.336E-02 0.000E+00
 BEEFens 2000 ensemble energies
             -0.608146262655098E+02
             -0.362154945520243E+01
             -0.158598285813403E+02
              0.430359941972729E+02
             -0.221567486888156E+02
             -0.205537204993811E+02
             -0.353270657995272E+02
             -0.867008316308583E+02
             -0.465489177465952E+02
             -0.473227049339837E+02
             -0.370093137739187E+02
              0.229154472006206E+01
              0.408459002889225E+01
              0.759750024169290E+01
              0.266726341819182E+01
              0.475878881996429E+02
             -0.209091549601207E+02
             -0.230168338184380E+02
              0.193641710672528E+02
             -0.112596026664547E+03
              0.537444600761221E+02
             -0.290138470411239E+02
             -0.336264636230195E+01
             -0.114202894140568E+02
             -0.881444893785181E+01
             -0.462877891045639E+01
              0.884412729377698E+02
             -0.187853640218896E+02
             -0.900944921415442E+01
             -0.519610320035868E+02
              0.816581083252081E+02
             -0.187128119353141E+02
             -0.375829975195323E+02
              0.249416862759293E+02
             -0.285033472481189E+01
              0.164920220489033E+02
             -0.483683163653575E+01
              0.107896016986186E+02
              0.289430132987983E+02
             -0.103447683306062E+03
              0.559524996118482E+02
              0.142635889403513E+02
             -0.176219076841585E+01
             -0.361984044483419E+02
              0.123471788515253E+02
             -0.147289002227361E+02
              0.399563648074820E+02
              0.365398985811099E+02
             -0.308262932882242E+02
             -0.275790227045875E+02
             -0.329200764648940E+02
             -0.352926321970204E+02
              0.137023216244098E+02
             -0.491867830563845E+02
              0.115975640626759E+02
              0.624258501504292E+02
              0.637028833822770E+02
              0.356416928805208E+02
              0.154266703296121E+02
              0.271310629711189E+02
              0.893277595647866E+02
              0.212739182417605E+02
             -0.549593926465470E+02
             -0.157109008972831E+02
             -0.236594451119074E+02
              0.631037784367189E+02
             -0.774564533732164E+02
             -0.672951724058975E+02
             -0.260368578552087E+02
             -0.653379110878120E+01
             -0.471336611056140E+02
              0.271234684943039E+02
              0.803729970107406E+01
              0.870997554869132E+01
             -0.398031297882267E+02
             -0.347614621658652E+02
             -0.543154971772721E+02
              0.390857695204920E+02
             -0.296791863517762E+02
              0.266019722940115E+02
             -0.718034868834132E+01
             -0.318485846797848E+02
             -0.577001462782474E+02
             -0.176919557049431E+02
             -0.909147829880078E+01
             -0.124851456963487E+02
              0.412962252605050E+02
              0.684540002582213E+02
             -0.386518764139828E+02
             -0.796124331021848E+02
             -0.219888499463919E+02
              0.111704798814790E+03
             -0.593645579667204E+02
              0.356749929025710E+02
             -0.960326605265311E+01
             -0.664144928955332E+02
              0.254835697078445E+02
              0.398351127349698E+02
             -0.199252910930019E+02
              0.400734459648511E+02
             -0.296346365001798E+02
             -0.479645380652232E+02
              0.868131536023288E+02
              0.454848793690454E+02
              0.336689965356309E+02
              0.146684405534282E+02
              0.206284628070700E+02
              0.858017003373652E+02
             -0.257148871714289E+02
              0.788389510571483E+01
             -0.142652635349448E+03
              0.181307489306702E+02
             -0.717462063404217E+02
              0.151234876425030E+02
              0.205067807088067E+02
             -0.333672872033844E+02
             -0.558126760669021E+02
              0.653328951087508E+01
             -0.304867693726246E+02
              0.308943473432745E+02
             -0.530742737178771E+02
              0.168509357398182E+01
             -0.357672622422125E+02
             -0.424634000403091E+01
             -0.101141808708343E+01
              0.181969449517641E+02
              0.143224982769777E+01
             -0.651707634859690E+01
              0.591867309686746E+02
              0.910096057651583E+02
              0.485216409615577E+02
              0.831272886304440E+02
             -0.115260000857303E+02
              0.143249769114258E+02
              0.541996185155502E+02
             -0.110465149588701E+02
             -0.737281972004087E+02
             -0.385224257567807E+02
             -0.522787999071383E+02
             -0.277231196073196E+02
              0.327789473908464E+02
             -0.117021431425071E+03
             -0.187465182470949E+02
              0.415086608573331E+02
             -0.386990618143752E+02
             -0.365934399251851E+02
              0.545489064022147E+02
              0.401557968813556E+02
             -0.354548702283965E+02
              0.138634786052921E+02
             -0.273811973845242E+02
              0.343903355562624E+02
              0.445556381334222E+01
              0.211102887221579E+02
             -0.886241307323770E+02
             -0.480951883908344E+02
             -0.997156090662747E+01
              0.320507691450047E+01
             -0.367578076017694E+02
              0.106245589187334E+03
             -0.230962271265984E+02
             -0.399165603777610E+02
              0.389463181253127E+02
             -0.494960464387867E+02
             -0.364229956642847E+02
              0.325495431194422E+02
              0.124821300564720E+02
              0.164815793705438E+02
              0.117058049039175E+02
             -0.133063223526612E+02
              0.225148753231248E+02
              0.591035215949670E+02
             -0.311975783632875E+02
              0.162852332195696E+02
              0.936105231353526E+02
              0.341445159149751E+02
             -0.728617978285672E+01
             -0.189221903702197E+02
              0.153650509217554E+03
             -0.164791911568136E+02
              0.364143887045756E+02
              0.195185784172596E+02
              0.361845226819463E+02
              0.893700646976669E+02
              0.543805068672796E+02
             -0.240424232989675E+01
              0.228395850099666E+02
              0.486094843772345E+02
              0.364262617520807E+02
             -0.526757281882407E+02
              0.937815485701564E+02
             -0.827255830240225E+02
             -0.198148490507070E+02
              0.583761810821908E+02
              0.682997518933506E+01
              0.791255096158068E+01
              0.341140238101206E+02
              0.299426021318815E+02
              0.354182888640096E+02
             -0.638747252513378E+02
              0.286809596501178E+01
             -0.298014600692901E+02
             -0.870102387256941E+01
             -0.147607561599420E+01
             -0.727669257055951E+01
             -0.416702375445777E+01
              0.860885840018726E+02
             -0.101094030063137E+02
             -0.276890250002299E+02
             -0.496163526426682E+01
              0.140299050203031E+02
             -0.565325934931050E+02
             -0.408641950676496E+02
             -0.382625498725965E+02
             -0.631638407010225E+02
             -0.170161338081672E+02
             -0.448254588549894E+02
              0.163633477111714E+02
             -0.238165722003899E+01
             -0.104695432116702E+02
             -0.935537907339992E+01
              0.807985972678597E+01
             -0.242659623524998E+02
              0.690647650071829E+02
             -0.809018397493945E+02
             -0.141353285589118E+02
             -0.174135846498024E+02
              0.182099525994801E+02
              0.215233983978755E+02
             -0.464832679673675E+02
             -0.202081217436552E+02
              0.441754954754035E+02
             -0.276401317864667E+02
              0.187414425522483E+02
              0.383286136622716E+02
             -0.323192979273131E+01
              0.114363569393999E+03
             -0.229999178189109E+02
             -0.341577993475042E+02
              0.577224414769842E+01
             -0.228890451484355E+02
              0.528741929478126E+02
             -0.338375316273113E+02
              0.106865773326773E+02
              0.641267059076505E+02
             -0.126395463904546E+02
              0.120470760755932E+03
              0.126119617738707E+03
             -0.651229091645400E+02
              0.591771316575229E+02
              0.167151988520080E+02
             -0.518900073281272E+02
              0.216336285884074E+02
              0.355046805160784E+02
              0.363780828817519E+02
              0.134976342382066E+01
              0.160240727363577E+02
              0.697336435106051E+02
             -0.247421823743414E+02
              0.181416961730457E+02
              0.739980955506848E+02
             -0.373101105554632E+02
             -0.130429919069313E+02
              0.509924169751329E+02
              0.298078226171469E+02
              0.781669829295879E+02
              0.223460463185480E+02
              0.629664534897438E+01
              0.280801222661822E+02
              0.384148931726411E+02
             -0.473130520355993E+02
              0.335041571522163E+01
              0.130692542740862E+02
              0.114134789756645E+02
              0.221098324628727E+02
             -0.576177772643909E+02
              0.366635203659117E+02
             -0.444677297626314E+02
             -0.348147231418004E+02
              0.178622283264124E+02
             -0.181347248932223E+02
              0.556505706525517E+02
             -0.256039107660515E+02
              0.267402776397628E+02
              0.368793780602500E+02
              0.830651870714297E+02
              0.575614064899488E+02
              0.462720958646212E+02
             -0.105187476545649E+02
             -0.395216037091410E+01
             -0.332629526007145E+02
              0.752376040252659E+02
              0.798766125263037E+02
              0.362779842394762E+02
             -0.192652172407380E+02
              0.512789937057480E+02
             -0.162550146921895E+02
              0.214840779554990E+02
              0.615912187065727E+02
              0.214053212688023E+01
             -0.104515102196298E+02
             -0.283137265705533E+02
             -0.513182601915640E+02
              0.947337367193450E+02
              0.441058854953217E+02
             -0.560585953168352E+02
             -0.968917942450929E+01
              0.250152439190564E+02
             -0.996742388876476E+01
              0.593465884647822E+02
              0.152446767509171E+02
              0.800813120487278E+02
              0.280325986115365E+02
             -0.264210575321453E+02
              0.249158801513167E+02
             -0.503308807506198E+01
             -0.323953698389705E+02
              0.133413842226946E+02
              0.205822056685663E+02
              0.934842882855237E+02
              0.798811020915911E+02
              0.552226907888524E+02
              0.731865157411930E+02
              0.802038196826533E+01
             -0.274236881901650E+02
              0.163466371326651E+02
             -0.368495078372068E+02
             -0.477595474344868E+02
             -0.564575351298538E+02
             -0.267225955245059E+02
             -0.109902492773118E+03
             -0.292356416561209E+02
             -0.839128370631463E+02
              0.210663119531227E+02
             -0.477846965353089E+02
              0.398007186080477E+02
             -0.943539485615120E+02
             -0.330724061020145E+02
              0.548929037784517E+02
              0.208114099693686E+02
             -0.832656831600296E+02
              0.631868615085046E+02
             -0.257447389478215E+02
              0.513493006269610E+02
             -0.242836400029046E+02
             -0.752939480559796E+02
              0.112151462348488E+02
             -0.612613892932222E+02
             -0.167883543309044E+02
             -0.150165022345691E+01
              0.418882083269066E+02
              0.127264942635568E+03
             -0.462463833831891E+02
             -0.363376401957557E+02
             -0.991895042756596E+00
             -0.130264693718748E+02
             -0.824240401546148E+02
             -0.597770003951838E+02
              0.518111890674965E+02
             -0.289137979870247E+02
              0.170022740411040E+02
             -0.490299148567087E+02
             -0.132266955210386E+02
             -0.438022596741343E+02
              0.566539447088699E+02
              0.151062348614835E+02
             -0.232214461197819E+02
             -0.127490931010296E+02
              0.670784317930232E+01
             -0.619372351731482E+01
              0.442303087786119E+02
             -0.252438151409027E+02
              0.281705335761001E+01
              0.340179315448469E+02
              0.171312113128258E+02
             -0.160455257797053E+02
              0.156575035127742E+03
              0.539405218070097E+02
              0.120083689921466E+01
              0.161673352263832E+02
             -0.615995130553081E+02
              0.315746674333782E+02
             -0.723458849951896E+02
             -0.252909473068322E+02
             -0.523930969979903E+02
             -0.220534189557309E+02
              0.570570886814610E+02
             -0.538180986048916E+02
              0.161668281019290E+02
             -0.411154715578232E+01
              0.386821207565046E+01
             -0.434395120663252E+02
             -0.479149960281582E+02
             -0.404473588955364E+01
             -0.425215535153298E+02
             -0.217529928274098E+02
             -0.439362770523876E+02
             -0.119321623814085E+02
             -0.359565774824405E+02
             -0.517455671706867E+02
              0.212951906564522E+02
             -0.209254024474300E+02
              0.188393774936264E+02
              0.975450239279748E+01
             -0.739659253103550E+02
             -0.548971666858310E+02
             -0.399514075256414E+02
              0.354592423271488E+02
              0.267709179198172E+01
             -0.627658375699016E+02
              0.586986928435894E+02
             -0.402025339211443E+02
              0.546339940369890E+02
             -0.290285064729290E+02
             -0.446823946996017E+02
              0.298805322607219E+02
             -0.659187374809402E+02
             -0.380438297582704E+02
              0.673619770902474E+02
              0.204500746605033E+02
             -0.361256574677774E+02
              0.490559686864695E+02
             -0.174366843367321E+02
             -0.323663423408127E+02
             -0.302296773544133E+02
             -0.501753947212723E+02
              0.250113444011190E+02
             -0.934836601422415E+02
             -0.841553525598149E+02
             -0.736544308355701E+01
             -0.307440992025462E+02
             -0.576921268973449E+02
              0.723444738507246E+02
              0.131819162993764E+03
             -0.361129707452120E+02
             -0.257513893701804E+01
             -0.638115133283123E+02
              0.652024258483876E+02
              0.171170415624645E+02
             -0.182220234224637E+02
             -0.410708878507467E+02
              0.148891611285379E+02
             -0.587203527074040E+02
             -0.197997320777516E+02
             -0.906225222224552E+02
              0.337704380551038E+02
              0.168984042408387E+02
              0.182579489837349E+01
             -0.710904653175351E+01
             -0.330717474275248E+02
             -0.762539823179418E+01
              0.125819865312891E+03
             -0.199348403716326E+02
             -0.438589425552824E+02
             -0.685466576976692E+02
              0.109601409652487E+02
             -0.343105489788185E+02
              0.594116637282485E+01
              0.262215643979925E+02
              0.102300785035516E+02
              0.278741769659343E+02
              0.120408173455995E+02
              0.630864588352640E+02
              0.317112660457771E+02
             -0.327457824066771E+02
              0.357141143280206E+02
              0.380131213790432E+02
              0.121100740162071E+02
              0.487636171053455E+02
             -0.225713538977628E+02
              0.767130935763711E+02
              0.173044061402430E+02
             -0.272931804022479E+02
             -0.723823238910320E+01
             -0.186777901580558E+02
              0.262052576315588E+02
             -0.234834123824338E+02
             -0.173310414173955E+00
             -0.851563963547824E+01
              0.811455039680924E+02
              0.501247401220501E+02
             -0.688049430707915E+02
             -0.478886153289088E+01
             -0.556211338225968E+02
             -0.159626226554317E+02
             -0.268654996307617E+02
              0.378476992829667E+01
              0.594663592015477E+00
             -0.258228504960746E+02
              0.819009364836751E+01
             -0.604936343479523E+01
             -0.128486576587046E+02
              0.860803277411977E+02
              0.182032606148660E+02
             -0.808997821806275E+02
             -0.459034259326938E+02
              0.947173760352072E+02
              0.278350156753608E+02
             -0.107023222828492E+02
              0.104788539629045E+03
             -0.194962061591906E+02
             -0.123158502354865E+02
             -0.542542794366466E+01
              0.107713914739712E+02
              0.273375691854320E+02
              0.780686045219696E+01
              0.305929754747222E+02
             -0.188122857933009E+02
             -0.304873035570172E+02
             -0.418817181192420E+02
             -0.477772373504338E+02
              0.464754076288927E+02
              0.127084252475232E+02
              0.388377558192676E+02
              0.133804096733627E+02
              0.857549522468178E+02
              0.156924003934502E+02
             -0.847766160135876E+02
             -0.335064163182761E+02
              0.133624570432125E+02
             -0.303323175134614E+02
              0.627930406682288E+02
             -0.889477202555622E+01
              0.149065951876433E+02
              0.498441233903224E+02
             -0.709120700703816E+02
              0.150033982983996E+03
              0.209087722963729E+02
              0.271852579918735E+02
              0.348470731559872E+02
              0.103619358138170E+02
             -0.156830821494651E+01
              0.358937458400838E+02
             -0.357918870722695E+02
              0.775283934945562E+02
              0.686563913003263E+02
             -0.406834765019679E+02
              0.149742236370951E+02
              0.671711579015637E+02
             -0.224282006003968E+02
              0.154940731335926E+02
              0.435534584069144E+02
              0.422953998362903E+02
             -0.786268322265132E+02
             -0.152712197946131E+02
             -0.356448502373797E+02
             -0.149318621798869E+01
             -0.767314772068728E+01
             -0.539902039934498E+01
             -0.180740251699486E+02
             -0.294580117709261E+02
              0.639412785592503E+01
              0.111768308984185E+02
              0.536714605456811E+02
             -0.391387661593377E+02
              0.375697142626532E+02
              0.439614494868547E+02
             -0.186501184117333E+02
              0.873645534879384E+02
             -0.699362102128099E+02
             -0.103404405806206E+03
             -0.663514086063500E+01
             -0.270179064049876E+01
              0.384543639974856E+01
              0.791325395712323E+02
             -0.106971057371062E+02
              0.417671937434395E+02
              0.445067561774713E+02
              0.386159003736681E+02
             -0.997619421892364E+01
              0.628550857479280E+02
             -0.134001347409618E+02
             -0.308364159704129E+02
             -0.479737366771350E+02
              0.591402803839307E+01
              0.369922046929358E+02
             -0.602762708430384E+01
              0.393520766306497E+02
             -0.176855119844498E+01
              0.656279939936213E+02
              0.187552641319190E+02
              0.100101358187595E+02
             -0.121569305130851E+02
              0.332698770718044E+02
              0.363530283454946E+02
              0.232914545897059E+02
             -0.519459336150533E+00
             -0.551747071096996E+02
              0.261479226875089E+02
              0.175678766017269E+02
              0.403131287026551E+02
              0.272804230893239E+02
              0.373340204906062E+02
             -0.606499458152686E+01
              0.251981227730913E+02
             -0.299352828132426E+02
             -0.197437434050562E+01
             -0.570273032736814E+02
             -0.308702502197312E+02
              0.379654373353598E+02
             -0.937463664153488E+02
              0.294810084570846E+02
              0.184272413006297E+02
              0.842212419495444E+02
             -0.300352911833835E+02
              0.330260730582450E+02
             -0.137975098813722E+02
             -0.465104977829862E+02
             -0.762818725315987E+02
             -0.531503670063057E+01
             -0.861902389261187E+02
              0.199727939278642E+02
             -0.247924428305556E+02
              0.306612823317995E+02
              0.237717735002634E+02
             -0.241882700457271E+02
             -0.266167172131921E+02
              0.391848199979704E+02
             -0.589626015267360E+02
             -0.117111206221934E+02
             -0.196435497598472E+02
              0.213352955335735E+02
             -0.886615918211834E+01
              0.363694115848077E+01
             -0.200812788057421E+02
              0.559984495035367E+02
             -0.441180546844045E+02
              0.787886220281439E+01
              0.586821505207667E+02
             -0.324289445321295E+02
              0.362367010542445E+01
             -0.879509610704315E+01
             -0.670613944068453E+02
             -0.483052574899681E+02
             -0.860034307451686E+01
              0.241570827989934E+02
              0.303262326449275E+02
              0.860266087511741E+01
             -0.419272246998094E+01
              0.152098519000963E+02
             -0.440543389741302E+02
              0.331169751806402E+01
             -0.532212953273631E+02
             -0.325506167754608E+02
              0.475947155090524E+02
             -0.295836940597801E+02
              0.624141297513548E+02
             -0.215303703092935E+02
              0.354232228705806E+02
              0.242285894980274E+02
             -0.645384574983810E+02
             -0.280788162627246E+02
              0.935857949735004E+01
             -0.372956786247480E+02
             -0.340446061784666E+02
             -0.832095792292982E+02
             -0.540403270637343E+02
             -0.511533711677581E+02
             -0.416618297838649E+02
             -0.988774531378311E+00
              0.100312709463247E+02
              0.109052744128201E+01
              0.154059655270603E+02
             -0.550619224907099E+02
              0.142218526816177E+02
              0.257666872236240E+02
             -0.668210039155456E+02
             -0.703128374338118E+02
             -0.432295025676220E+02
             -0.172976673450631E+02
              0.178663470029634E+02
              0.454326970026625E+01
             -0.426664633085543E+02
              0.366659986480755E+02
             -0.216786489721565E+02
              0.518537162223054E+02
             -0.889278468527728E+02
              0.599405682485360E+02
             -0.218451188840094E+01
             -0.369398872116698E+02
             -0.216926477379389E+02
              0.471672784554384E+01
              0.375822539979458E+02
             -0.757769826120254E+02
             -0.121044847618332E+02
             -0.217053623401276E+02
              0.511832679827611E+02
              0.866616500554086E+02
             -0.967604702560042E+02
              0.945958749671643E+02
              0.468334627926880E+02
             -0.727092079723423E+02
             -0.367158468005971E+02
              0.753701827621952E+02
              0.633154620714166E+02
             -0.181618872382645E+02
             -0.464818763668262E+01
              0.737331107964570E+01
              0.650921020494361E+02
             -0.509848205043714E+02
              0.158552969414749E+02
             -0.475232024990439E+01
              0.348106128407790E+02
             -0.748535159703113E+02
             -0.647744964780127E+01
             -0.351440474208294E+02
              0.461766706232099E+02
              0.469531436780249E+02
             -0.864005675635759E+02
             -0.488129710397160E+02
             -0.256591195788543E+02
             -0.340597705563831E+02
             -0.109501207094383E+02
[...]
              0.283873053385728E+02
              0.142067894845537E+03
              0.243051773113633E+02
              0.122908713913838E+02
             -0.465217009486647E+02
             -0.638735668614811E+02
             -0.189193897655194E+02
              0.330238259578541E+02
             -0.428468871004782E+01
              0.190720265654005E+02
              0.336977771774715E+02
             -0.587530347665332E+02
              0.222973164913525E+02
              0.582300579399047E+02
              0.553837688804158E+02
             -0.422179930329224E+01
             -0.134474774441810E+01
             -0.994258227303692E+01
             -0.483025157475500E+02
             -0.676454723199250E+02
              0.786803498737385E+02
             -0.525823367893057E+01
             -0.588787966558916E+02
              0.175469521621721E+01
             -0.205944014090362E+02
              0.940023583010560E+02
             -0.217110109019333E+02
             -0.354441321554443E+02
              0.336111994065137E+02
             -0.146180884483800E+02
              0.390526035576829E+02
             -0.233086460609900E+01
              0.101244015566934E+03
              0.490921401586823E+02
             -0.503883060003166E+01
             -0.322849226931585E+02
              0.232896721660242E+02
             -0.529568168125457E+02
             -0.127940064566276E+02
              0.586968008669324E+02
             -0.288230791852876E+02
             -0.439112108446872E+02
             -0.223783191474333E+02
              0.519617098210935E+02
              0.124897460410462E+02
             -0.850225412799846E+02
              0.304479484219263E+02
              0.151958874640721E+02
              0.580077439943767E+01
             -0.514407810651953E+02
             -0.375489422584127E+01
              0.323741244683483E+02
              0.513372289931394E+02
              0.634111183403012E+02
              0.229800247163332E+02
              0.780911272093249E+00
             -0.499230869665057E+02
             -0.510790508050851E+02
             -0.748768121425149E+02
             -0.621074446639898E+01
              0.309652605351246E+02
             -0.376080917567140E+01
              0.547860016101660E+02
             -0.318656648617714E+02
              0.166836389063239E+02
             -0.103312390487065E+02
             -0.290068751627645E+02
              0.586779333516342E+02
              0.792686444194737E+01
              0.605640856639117E+02
              0.509598379827480E+01
              0.265261675056988E+02
             -0.193014467278160E+02
              0.587214802467336E+02
             -0.111946531213623E+02
             -0.116206555282183E+00
             -0.791631272897308E+02
             -0.128371727838790E+02
              0.720232384376963E+02
              0.674156665852588E+02
              0.252570676833989E+02
             -0.130771682466188E+02
              0.347074120960579E+01
             -0.174180916697744E+02
             -0.213455889144049E+01
              0.909656712077581E+02
              0.127741838296822E+01
             -0.191170001653084E+02
             -0.110942045846544E+03
             -0.553047304129044E+02
             -0.375768944343923E+02
             -0.659584626527351E+02
             -0.556742386287755E+02
             -0.683758682065699E+02
             -0.447995755675501E+02
             -0.411226456687767E+02
             -0.452886017722317E+02
              0.484284641856596E+02
             -0.294252332858495E+02
             -0.996319610975582E+02
              0.419585754117891E+02
             -0.260774291645433E+02
             -0.792359072673846E+02
              0.945667007719259E+02
             -0.220249101293551E+02
              0.228219930879396E+02
              0.455589071835695E+02
             -0.128777118912325E+01
              0.255024911291840E+02
              0.469932690665871E+01
              0.421709563902123E+00
             -0.150930332459527E+02
             -0.717223685009924E+02
              0.133302896631178E+02
             -0.129580614112312E+03
              0.625800500546700E+02
             -0.441387023762958E+02
             -0.163526796560067E+02
             -0.158712265895616E+02
              0.720802895153541E+01
             -0.227893211895660E+02
              0.297478939308417E+02
             -0.521785997931464E+02
              0.367685384670894E+02
              0.371812241799748E+02
              0.168313913602602E+02
              0.100734822140475E+02
              0.198269932561385E+02
              0.625534813518010E+01
              0.310737086702382E+02
             -0.797901682674322E+01
             -0.594113642435772E+02
              0.758581965970848E+01
             -0.153384688788846E+02
             -0.194093624442087E+01
              0.507541587012605E+02
             -0.828206609880639E+02
             -0.147924290887875E+01
              0.593512507656612E+00
              0.997548495130536E+01
              0.319000184821384E+02
             -0.123789880185817E+02
              0.837285072317760E+02
              0.487940615942838E+02
             -0.183346575361466E+02
             -0.955603414466310E+01
              0.107689095494655E+01
              0.770908775466352E+02
             -0.587039405394160E+02
             -0.105939225867504E+03
              0.309717620617620E+02
             -0.163429023272442E+02
             -0.139825189967874E+02
              0.131011718082036E+02
              0.769780619721735E+02
              0.464814407364796E+02
             -0.153730340442364E+02
             -0.504158859192668E+02
             -0.553214615634076E+01
              0.306888124817809E+02
             -0.111981309272761E+02
             -0.757255008104312E+02
             -0.275235288934894E+01
             -0.891951447172877E+02
             -0.476694819627405E+02
              0.770445407931237E+02
             -0.484574918937330E+02
             -0.637980245222684E+02
             -0.515218168236926E+02
             -0.350655280521431E+02
              0.341568647137458E+02
              0.823204725678836E+02
             -0.360975473371445E+01
              0.277087827889816E+02
             -0.184282972598013E+02
             -0.695349013440750E+02
              0.465996113172088E+02
             -0.446026850406548E+02
              0.321961467351842E+02
              0.376578163353224E+02
             -0.659531620995318E+01
              0.390858137083832E+02
              0.438850593017831E+02
              0.100926744567493E+03
             -0.155956917909187E+02
             -0.457594663031751E+02
             -0.614065021499927E+02
             -0.124471138013006E+02
             -0.234021320583607E+02
              0.103159428337836E+03
             -0.449826197739318E+02
              0.105414691342431E+02
              0.970541233803863E+01
             -0.264874204329689E+02
             -0.800664120744721E+02
             -0.700033166519393E+01
              0.981775952489965E+02
              0.944528342092121E+01
              0.808885079178799E+01
             -0.528413298429550E+02
             -0.606528697447609E+02
             -0.568740900115290E+01
              0.501312700925262E+02
             -0.222421458297050E+02
              0.108146885044068E+03
             -0.436649938561776E+02
              0.146759812388844E+02
             -0.224143655617303E+02
             -0.719608986189949E+02
              0.170207748461218E+01
             -0.502770454511510E+02
             -0.762016550274244E+02
              0.619869153845673E+01
              0.237546517757747E+01
              0.515057633834711E+02
              0.187877652532677E+02
             -0.324291824902159E+02
              0.230275776015658E+02
             -0.812899963691104E+02
             -0.522473007055547E+02
              0.903418686040435E+02
              0.142206291662774E+02
             -0.187839211535784E+02
             -0.352687575284420E+02
             -0.270303568403722E+01
             -0.590692267945815E+01
              0.832090540252945E+02
              0.418489172868602E+02
             -0.166007261493976E+02
             -0.121553343934563E+02
             -0.428133955679134E+02
             -0.200615674560169E+02
             -0.670996889828386E+02
              0.460678478130281E+02
              0.547703752238544E+01
              0.144900843036281E+02
              0.156660489877730E+02
             -0.607905849519355E+00
             -0.168930547662816E+02
             -0.302108160355465E+01
             -0.100655310690889E+03
             -0.229981428725762E+02
             -0.768312011410723E+01
             -0.949019251830893E+01
              0.547077911203114E+02
              0.625153002800610E+02
              0.165217687901234E+02
             -0.972237845144064E+02
              0.648693691499648E+02
             -0.215425419568343E+02
             -0.377735588610549E+02
             -0.865847386245228E+02
             -0.387134295937162E+02
              0.565960728612235E+02
              0.244964203672845E+02
              0.516693868640897E+01
              0.293005658838762E+02
             -0.565886872953936E+02
             -0.423340153673132E+02
              0.516545463876032E+02
              0.387979444287158E+02
              0.519639837514362E+02
             -0.115779171339267E+01
              0.688635483457585E+01
              0.570398653435672E+02
              0.964459753721408E+02
             -0.300357284901430E+02
              0.323734051940189E+02
             -0.119628595131662E+02
             -0.412894512336628E+02
             -0.315036197744659E+02
             -0.301006937864648E+02
             -0.131670690926829E+02
             -0.524238048409619E+02
             -0.217342180094286E+02
             -0.141389595970727E+03
              0.369383199779734E+02
              0.207408888937711E+02
             -0.395467367541618E+01
             -0.380682166087597E+02
             -0.204394899012540E+02
             -0.528050364634942E+02
              0.151129099576414E+02
              0.821414195971893E+02
             -0.252477938339091E+02
             -0.163436004282005E+02
              0.238621642406771E+02
             -0.490376026145058E+02
              0.881848204040428E+02
              0.154544150464977E+02
              0.226117088699202E+02
              0.491155467919078E+02
              0.316889504001597E+01
              0.543174698969433E+02
              0.143545314962201E+02
             -0.106328218134225E+02
              0.734951759428807E+01
              0.748303174194575E+00
              0.728145635588415E+02
              0.101205450076320E+02
              0.121098472910423E+02
             -0.130271423041214E+02
              0.132460062580678E+02
             -0.912812108743940E+02
             -0.326346778257833E+02
             -0.458384275413100E+02
              0.485947678843642E+02
             -0.291824497811156E+02
             -0.659174347214671E+02
              0.539641255380848E+02
             -0.122112564180866E+02
              0.440729000757418E+02
             -0.900178457292103E+02
              0.232087516946171E+02
              0.857057466590584E+01
              0.586331700629739E+01
             -0.836079712007842E+01
             -0.905748465838690E+01
              0.480210236900987E+02
              0.199596906298041E+01
             -0.476315643937251E+02
             -0.176597291147740E+02
              0.276732867529745E+02
             -0.118123417098886E+03
             -0.931154455606248E+02
              0.395542357982697E+01
              0.118089812945562E+02
             -0.414370466965399E+02
             -0.386942127770152E+01
              0.112272163922935E+03
              0.306823206119163E+02
             -0.572491717391358E+02
              0.926615226079434E+01
             -0.966702364400541E+01
              0.105918057735161E+02
             -0.338493509763326E+02
              0.195991403170566E+02
              0.285026185251969E+02
             -0.301850236026456E+01
              0.108386966344327E+03
             -0.140112539661375E+02
             -0.316395093487035E+02
              0.143734465499361E+02
              0.467241253836272E+02
             -0.356220676491698E+02
             -0.318167593542832E+01
              0.966598990826905E+02
             -0.463092291791327E+01
              0.622625672537187E+02
              0.135737491665906E+02
             -0.902032804345870E+01
             -0.305553623057235E+02
              0.567267145159020E+02
             -0.515315504314521E+02
             -0.219498615812063E+01
             -0.170450853237407E+02
             -0.405803153120098E+02
              0.185156163629851E+02
              0.239900933613178E+02
              0.115885423549220E+02
              0.720696928153188E+00
             -0.385503221285502E+02
              0.215553251655477E+02
             -0.674101765949865E+01
             -0.246799648834225E+02
             -0.210875008444314E+02
              0.203317583409165E+02
             -0.596336168459288E+01
             -0.349926157284247E+02
             -0.106830789188996E+03
              0.103207930141276E+02
              0.248677560893852E+02
             -0.388306240797360E+02
             -0.211504334966172E+02
              0.808588641140381E+02
              0.655708005194487E+01
              0.311889162123636E+02
              0.395143899662710E+01
              0.322752704980928E+02
              0.645937566971088E+01
             -0.373688084057611E+02
             -0.237794045257283E+01
              0.876894296097993E+01
              0.274540222510772E+02
              0.782972854459338E+02
              0.508285670503184E+02
              0.191029405523750E+00
              0.169426065917583E+02
              0.614323005168501E+02
              0.236522933581235E+02
             -0.753901974871191E+02
             -0.274146474969830E+02
              0.151014729782228E+02
              0.564379537877682E+01
              0.255533009996506E+02
             -0.548572334841971E+02
              0.898542571981147E+01
              0.386877619764789E+02
              0.498826882335768E+02
             -0.435673556924986E+02
             -0.687764520325942E+01
             -0.208980945713972E+01
             -0.134217629940121E+02
             -0.365873376142094E+02
             -0.215361646583876E+02
             -0.208340215940160E+01
              0.795536951400334E+01
              0.422134580553917E+02
             -0.309009281012966E+02
              0.827638489514771E+02
              0.328129426393778E+02
              0.220386576086367E+02
              0.333794131489565E+02
              0.323362569010186E+02
              0.347019908193133E+02
              0.538173638200977E+02
             -0.434725471854017E+02
              0.620725183830060E+02
             -0.112482224712056E+03
              0.307871184133659E+02
             -0.106709667125718E+03
              0.856125537449805E+02
              0.692151487826360E+02
             -0.110005058647030E+02
             -0.493912952598710E+02
             -0.430325341139668E+02
             -0.624322026337539E+02
             -0.630018600616417E+02
              0.552865445367698E+02
              0.406281422782349E+02
              0.237291946496484E+02
              0.374039131578913E+02
              0.404283268643641E+02
             -0.382887060964844E+02
             -0.198058044382886E+02
              0.587464813070451E+02
             -0.116326732035355E+02
              0.552726924252916E+02
              0.700998279483150E+02
             -0.556470646194511E+01
             -0.707742368027114E+02
             -0.863246742099705E+00
             -0.246857146082525E+01
             -0.884831373450095E+01
             -0.180000167463277E+01
             -0.654007627188364E+02
             -0.210605284903994E+02
              0.542848424345379E+01
              0.903714797239630E+01
              0.469935510939443E+02
             -0.398689629279906E+02
              0.657910124503121E+02
             -0.426017570205419E+02
              0.211060970856938E+02
              0.351202212757374E+02
 
 BEEF-vdW xc energy contributions
           1 :   -784.117732164997     
           2 :    720.230914355843     
           3 :   -609.615579335784     
           4 :    479.392782468446     
           5 :   -357.137260639442     
           6 :    262.738228943556     
           7 :   -203.876937915470     
           8 :    175.994737405837     
           9 :   -166.338182431867     
          10 :    160.166038864660     
          11 :   -146.578910969819     
          12 :    121.775106427653     
          13 :   -88.8874059320882     
          14 :    55.0301162568946     
          15 :   -27.2638217085976     
          16 :    9.31123532970832     
          17 :  -0.295606343502641     
          18 :   -4.25518540793587     
          19 :    9.87501268979884     
          20 :   -20.4352940019581     
          21 :    36.4789088484093     
          22 :   -55.2666459981551     
          23 :    72.3415587044791     
          24 :   -83.7546513090878     
          25 :    87.8591083378716     
          26 :   -85.8890918846243     
          27 :    81.1566742850785     
          28 :   -77.3501787340043     
          29 :    76.7870264967113     
          30 :   -79.4429029818029     
          31 :   -86.0910222448563     
          32 :   -65.9663488002379     

     Writing output data file ./pwscf.save/
 
     init_run     :    332.73s CPU    337.48s WALL (       1 calls)
     electrons    :  13981.43s CPU  14125.90s WALL (       1 calls)
     forces       :    103.21s CPU    104.50s WALL (       1 calls)

     Called by init_run:
     wfcinit      :    284.23s CPU    287.97s WALL (       1 calls)
     potinit      :     45.36s CPU     45.70s WALL (       1 calls)
     hinit0       :      1.17s CPU      1.21s WALL (       1 calls)

     Called by electrons:
     c_bands      :  11695.47s CPU  11807.88s WALL (      22 calls)
     sum_band     :   1616.86s CPU   1630.93s WALL (      22 calls)
     v_of_rho     :    117.72s CPU    122.52s WALL (      22 calls)
     newd         :     33.21s CPU     46.38s WALL (      22 calls)
     PAW_pot      :    154.37s CPU    154.38s WALL (      22 calls)
     mix_rho      :    409.95s CPU    410.80s WALL (      22 calls)
     vdW_kernel   :     33.91s CPU     33.92s WALL (       1 calls)

     Called by c_bands:
     init_us_2    :     90.12s CPU     90.47s WALL (     598 calls)
     cegterg      :  10777.42s CPU  10889.40s WALL (     286 calls)

     Called by *egterg:
     cdiaghg      :    109.36s CPU    109.40s WALL (    1617 calls)
     h_psi        :   6749.46s CPU   6788.03s WALL (    1643 calls)
     s_psi        :   1193.32s CPU   1193.36s WALL (    1643 calls)
     g_psi        :     18.21s CPU     18.25s WALL (    1344 calls)

     Called by h_psi:
     h_psi:calbec :   1120.39s CPU   1120.58s WALL (    1643 calls)
     vloc_psi     :   4405.16s CPU   4406.50s WALL (    1643 calls)
     add_vuspsi   :   1193.57s CPU   1193.73s WALL (    1643 calls)

     General routines
     calbec       :   1647.38s CPU   1647.62s WALL (    1981 calls)
     fft          :     52.76s CPU     52.79s WALL (    3342 calls)
     ffts         :    129.05s CPU    129.07s WALL (    9220 calls)
     fftw         :   4565.63s CPU   4566.32s WALL (  364366 calls)
 
     Parallel routines
 
     PWSCF        :      4h 2m CPU      4h 4m WALL

 
   This run was terminated on:  18:57: 1  20May2022            

=------------------------------------------------------------------------------=
   JOB DONE.
=------------------------------------------------------------------------------=
