
     Program PWSCF v.6.7MaX starts on 20May2022 at 14:53: 4 

     This program is part of the open-source Quantum ESPRESSO suite
     for quantum simulation of materials; please cite
         "P. Giannozzi et al., J. Phys.:Condens. Matter 21 395502 (2009);
         "P. Giannozzi et al., J. Phys.:Condens. Matter 29 465901 (2017);
          URL http://www.quantum-espresso.org", 
     in publications or presentations arising from this work. More details at
     http://www.quantum-espresso.org/quote

     Parallel version (MPI), running on     1 processors

     MPI processes distributed on     1 nodes
     Reading input from c3h6-ensemble.in
Warning: card &CELL ignored
Warning: card / ignored

     Current dimensions of program PWSCF are:
     Max number of different atomic species (ntypx) = 10
     Max number of k-points (npk) =  40000
     Max angular momentum in pseudopotentials (lmaxx) =  3
     file Pt.pbe-n-kjpaw_psl.1.0.0.UPF: wavefunction(s)  6S 5D renormalized
     file C.pbe-n-kjpaw_psl.1.0.0.UPF: wavefunction(s)  2S 2P renormalized
     file H.pbe-kjpaw_psl.1.0.0.UPF: wavefunction(s)  1S renormalized

     **************************************************************************
     Initializing libbeef V0.1.2 with the BEEF-vdW functional.
     Citation: Wellendorff et al., PRB 85, 235149 (2012).
     **************************************************************************


     IMPORTANT: XC functional enforced from input :
     Exchange-correlation= BEEF-VDW
                           (   1   4  43  14   2   0   0)
     Any further DFT definition will be discarded
     Please, verify this is what you really want


     Subspace diagonalization in iterative solution of the eigenvalue problem:
     a serial algorithm will be used

 
     G-vector sticks info
     --------------------
     sticks:   dense  smooth     PW     G-vecs:    dense   smooth      PW
     Sum        4267    4267   1159               742083   742083  104567
 


     bravais-lattice index     =            0
     lattice parameter (alat)  =      16.0349  a.u.
     unit-cell volume          =   11811.5707 (a.u.)^3
     number of atoms/cell      =           45
     number of atomic types    =            3
     number of electrons       =       378.00
     number of Kohn-Sham states=          227
     kinetic-energy cutoff     =      60.0000  Ry
     charge density cutoff     =     240.0000  Ry
     scf convergence threshold =      1.0E-06
     mixing beta               =       0.7000
     number of iterations used =            8  local-TF  mixing
     Exchange-correlation= BEEF-VDW
                           (   1   4  43  14   2   0   0)

     celldm(1)=  16.034858  celldm(2)=   0.000000  celldm(3)=   0.000000
     celldm(4)=   0.000000  celldm(5)=   0.000000  celldm(6)=   0.000000

     crystal axes: (cart. coord. in units of alat)
               a(1) = (   1.000000   0.000000   0.000000 )  
               a(2) = (   0.500000   0.866025   0.000000 )  
               a(3) = (   0.000000   0.000000   3.308123 )  

     reciprocal axes: (cart. coord. in units 2 pi/alat)
               b(1) = (  1.000000 -0.577350  0.000000 )  
               b(2) = (  0.000000  1.154701  0.000000 )  
               b(3) = (  0.000000  0.000000  0.302286 )  


     PseudoPot. # 1 for Pt read from file:
     /users/bkreitz1/quantum-espresso/potentials/Pt.pbe-n-kjpaw_psl.1.0.0.UPF
     MD5 check sum: 04dc8a03c51ece93fc7b5889c2958091
     Pseudo is Projector augmented-wave + core cor, Zval = 10.0
     Generated using 'atomic' code by A. Dal Corso  v.6.7MaX
     Shape of augmentation charge: PSQ
     Using radial grid of 1277 points,  6 beta functions with: 
                l(1) =   0
                l(2) =   0
                l(3) =   1
                l(4) =   1
                l(5) =   2
                l(6) =   2
     Q(r) pseudized with 0 coefficients 


     PseudoPot. # 2 for C  read from file:
     /users/bkreitz1/quantum-espresso/potentials/C.pbe-n-kjpaw_psl.1.0.0.UPF
     MD5 check sum: a169b0ebad56f5ec0d79c4633f80bf22
     Pseudo is Projector augmented-wave + core cor, Zval =  4.0
     Generated using 'atomic' code by A. Dal Corso  v.6.7MaX
     Shape of augmentation charge: PSQ
     Using radial grid of 1073 points,  4 beta functions with: 
                l(1) =   0
                l(2) =   0
                l(3) =   1
                l(4) =   1
     Q(r) pseudized with 0 coefficients 


     PseudoPot. # 3 for H  read from file:
     /users/bkreitz1/quantum-espresso/potentials/H.pbe-kjpaw_psl.1.0.0.UPF
     MD5 check sum: ae98473e6dc62675f0d0baffdab24f65
     Pseudo is Projector augmented-wave, Zval =  1.0
     Generated using 'atomic' code by A. Dal Corso  v.6.7MaX
     Shape of augmentation charge: PSQ
     Using radial grid of  929 points,  2 beta functions with: 
                l(1) =   0
                l(2) =   0
     Q(r) pseudized with 0 coefficients 


     atomic species   valence    mass     pseudopotential
        Pt            10.00   195.08400     Pt( 1.00)
        C              4.00    12.01100     C ( 1.00)
        H              1.00     1.00800     H ( 1.00)

     No symmetry found



   Cartesian axes

     site n.     atom                  positions (alat units)
         1           Pt  tau(   1) = (   0.0000000   0.0000000   1.0017346  )
         2           Pt  tau(   2) = (   0.3333333   0.0000000   1.0017346  )
         3           Pt  tau(   3) = (   0.6666667   0.0000000   1.0017346  )
         4           Pt  tau(   4) = (   0.1666667   0.2886751   1.0017346  )
         5           Pt  tau(   5) = (   0.5000000   0.2886751   1.0017346  )
         6           Pt  tau(   6) = (   0.8333333   0.2886751   1.0017346  )
         7           Pt  tau(   7) = (   0.3333333   0.5773503   1.0017346  )
         8           Pt  tau(   8) = (   0.6666667   0.5773503   1.0017346  )
         9           Pt  tau(   9) = (   1.0000000   0.5773503   1.0017346  )
        10           Pt  tau(  10) = (   0.1666667   0.0962250   1.2739001  )
        11           Pt  tau(  11) = (   0.5000000   0.0962250   1.2739001  )
        12           Pt  tau(  12) = (   0.8333333   0.0962250   1.2739001  )
        13           Pt  tau(  13) = (   0.3333333   0.3849002   1.2739001  )
        14           Pt  tau(  14) = (   0.6666667   0.3849002   1.2739001  )
        15           Pt  tau(  15) = (   1.0000000   0.3849002   1.2739001  )
        16           Pt  tau(  16) = (   0.5000000   0.6735753   1.2739001  )
        17           Pt  tau(  17) = (   0.8333333   0.6735753   1.2739001  )
        18           Pt  tau(  18) = (   1.1666667   0.6735753   1.2739001  )
        19           Pt  tau(  19) = (  -0.0044075   0.1940125   1.5487411  )
        20           Pt  tau(  20) = (   0.3320918   0.1918634   1.5400218  )
        21           Pt  tau(  21) = (   0.6694321   0.1939794   1.5495479  )
        22           Pt  tau(  22) = (   0.1654366   0.4810812   1.5418387  )
        23           Pt  tau(  23) = (   0.4991937   0.4812023   1.5412207  )
        24           Pt  tau(  24) = (   0.8326118   0.4777708   1.5487764  )
        25           Pt  tau(  25) = (   0.3322873   0.7696978   1.5418170  )
        26           Pt  tau(  26) = (   0.6659251   0.7697197   1.5407384  )
        27           Pt  tau(  27) = (   0.9992588   0.7697310   1.5412229  )
        28           Pt  tau(  28) = (  -0.0006829  -0.0037386   1.8141008  )
        29           Pt  tau(  29) = (   0.3315852  -0.0011537   1.8166565  )
        30           Pt  tau(  30) = (   0.6635486  -0.0032334   1.8160807  )
        31           Pt  tau(  31) = (   0.1676890   0.2878778   1.8131233  )
        32           Pt  tau(  32) = (   0.4950130   0.2876567   1.8112773  )
        33           Pt  tau(  33) = (   0.8310498   0.2870469   1.8563023  )
        34           Pt  tau(  34) = (   0.3308901   0.5768206   1.8167791  )
        35           Pt  tau(  35) = (   0.6636971   0.5789795   1.8141350  )
        36           Pt  tau(  36) = (   0.9986913   0.5785192   1.8160608  )
        37           C   tau(  37) = (   0.6226799   0.2647480   2.1785273  )
        38           C   tau(  38) = (   0.7711713   0.3360405   2.1129878  )
        39           C   tau(  39) = (   0.9134946   0.2516059   2.1006503  )
        40           H   tau(  40) = (   0.5169720   0.3207511   2.1311226  )
        41           H   tau(  41) = (   0.6160615   0.1381286   2.1576191  )
        42           H   tau(  42) = (   0.6226297   0.2850411   2.3063886  )
        43           H   tau(  43) = (   0.7794529   0.4634961   2.1224826  )
        44           H   tau(  44) = (   1.0252203   0.3125530   2.1117191  )
        45           H   tau(  45) = (   0.9156705   0.1268911   2.1298101  )

     number of k points=    13  Marzari-Vanderbilt smearing, width (Ry)=  0.0200
                       cart. coord. in units 2pi/alat
        k(    1) = (   0.0000000   0.0000000   0.0000000), wk =   0.0800000
        k(    2) = (   0.0000000   0.2309401   0.0000000), wk =   0.1600000
        k(    3) = (   0.0000000   0.4618802   0.0000000), wk =   0.1600000
        k(    4) = (   0.2000000  -0.1154701   0.0000000), wk =   0.1600000
        k(    5) = (   0.2000000   0.1154701   0.0000000), wk =   0.1600000
        k(    6) = (   0.2000000   0.3464102   0.0000000), wk =   0.1600000
        k(    7) = (   0.2000000  -0.5773503   0.0000000), wk =   0.1600000
        k(    8) = (   0.2000000  -0.3464102   0.0000000), wk =   0.1600000
        k(    9) = (   0.4000000  -0.2309401   0.0000000), wk =   0.1600000
        k(   10) = (   0.4000000  -0.0000000   0.0000000), wk =   0.1600000
        k(   11) = (   0.4000000   0.2309401   0.0000000), wk =   0.1600000
        k(   12) = (   0.4000000  -0.6928203   0.0000000), wk =   0.1600000
        k(   13) = (   0.4000000  -0.4618802   0.0000000), wk =   0.1600000

     Dense  grid:   742083 G-vectors     FFT dimensions: (  80,  80, 270)

     Estimated max dynamical RAM per process >       9.03 GB

     Check: negative core charge=   -0.000002

     Initial potential from superposition of free atoms

     starting charge  377.99371, renormalised to  378.00000

     negative rho (up, down):  1.137E-02 0.000E+00


     %%%%%%%%%%%%%%%%%%%%%%%%%%%%%%%%%%%%%%%%%%%%%%%%%%%%%%%%%%%%%%%%%%%%%%%%
     %                                                                      %
     % You are using vdW-DF, which was implemented by the Thonhauser group. %
     % Please cite the following two papers that made this development      %
     % possible and the two reviews that describe the various versions:     %
     %                                                                      %
     %   T. Thonhauser et al., PRL 115, 136402 (2015).                      %
     %   T. Thonhauser et al., PRB 76, 125112 (2007).                       %
     %   K. Berland et al., Rep. Prog. Phys. 78, 066501 (2015).             %
     %   D.C. Langreth et al., J. Phys.: Condens. Matter 21, 084203 (2009). %
     %                                                                      %
     %                                                                      %
     % If you are calculating the stress with vdW-DF, please also cite:     %
     %                                                                      %
     %   R. Sabatini et al., J. Phys.: Condens. Matter 24, 424209 (2012).   %
     %                                                                      %
     %%%%%%%%%%%%%%%%%%%%%%%%%%%%%%%%%%%%%%%%%%%%%%%%%%%%%%%%%%%%%%%%%%%%%%%%


     Starting wfcs are  342 randomized atomic wfcs
     Checking if some PAW data can be deallocated... 

     total cpu time spent up to now is      332.4 secs

     Self-consistent Calculation

     iteration #  1     ecut=    60.00 Ry     beta= 0.70
     Davidson diagonalization with overlap
     ethr =  1.00E-02,  avg # of iterations =  2.4

     Threshold (ethr) on eigenvalues was too large:
     Diagonalizing with lowered threshold

     Davidson diagonalization with overlap
     ethr =  8.15E-04,  avg # of iterations =  2.6

     negative rho (up, down):  1.144E-02 0.000E+00

     total cpu time spent up to now is     1595.7 secs

     total energy              =  -27818.36181217 Ry
     estimated scf accuracy    <       3.33224130 Ry

     iteration #  2     ecut=    60.00 Ry     beta= 0.70
     Davidson diagonalization with overlap
     ethr =  8.82E-04,  avg # of iterations =  2.8

     negative rho (up, down):  9.474E-03 0.000E+00

     total cpu time spent up to now is     2197.4 secs

     total energy              =  -27818.51160997 Ry
     estimated scf accuracy    <       1.24568016 Ry

     iteration #  3     ecut=    60.00 Ry     beta= 0.70
     Davidson diagonalization with overlap
     ethr =  3.30E-04,  avg # of iterations =  4.2

     negative rho (up, down):  6.194E-03 0.000E+00

     total cpu time spent up to now is     2800.7 secs

     total energy              =  -27818.54773124 Ry
     estimated scf accuracy    <       0.43348092 Ry

     iteration #  4     ecut=    60.00 Ry     beta= 0.70
     Davidson diagonalization with overlap
     ethr =  1.15E-04,  avg # of iterations = 11.5

     negative rho (up, down):  4.603E-03 0.000E+00

     total cpu time spent up to now is     3599.2 secs

     total energy              =  -27818.60571599 Ry
     estimated scf accuracy    <       0.28804884 Ry

     iteration #  5     ecut=    60.00 Ry     beta= 0.70
     Davidson diagonalization with overlap
     ethr =  7.62E-05,  avg # of iterations =  1.9

     negative rho (up, down):  3.242E-03 0.000E+00

     total cpu time spent up to now is     4194.0 secs

     total energy              =  -27818.61181175 Ry
     estimated scf accuracy    <       0.05452376 Ry

     iteration #  6     ecut=    60.00 Ry     beta= 0.70
     Davidson diagonalization with overlap
     c_bands:  1 eigenvalues not converged
     c_bands:  2 eigenvalues not converged
     c_bands:  1 eigenvalues not converged
     ethr =  1.44E-05,  avg # of iterations = 12.5

     negative rho (up, down):  2.437E-03 0.000E+00

     total cpu time spent up to now is     5050.1 secs

     total energy              =  -27818.62000343 Ry
     estimated scf accuracy    <       0.03062732 Ry

     iteration #  7     ecut=    60.00 Ry     beta= 0.70
     Davidson diagonalization with overlap
     ethr =  8.10E-06,  avg # of iterations =  5.9

     negative rho (up, down):  2.222E-03 0.000E+00

     total cpu time spent up to now is     5668.3 secs

     total energy              =  -27818.62124466 Ry
     estimated scf accuracy    <       0.01408837 Ry

     iteration #  8     ecut=    60.00 Ry     beta= 0.70
     Davidson diagonalization with overlap
     c_bands:  1 eigenvalues not converged
     ethr =  3.73E-06,  avg # of iterations = 11.5

     negative rho (up, down):  2.227E-03 0.000E+00

     total cpu time spent up to now is     6354.8 secs

     total energy              =  -27818.62203234 Ry
     estimated scf accuracy    <       0.00656015 Ry

     iteration #  9     ecut=    60.00 Ry     beta= 0.70
     Davidson diagonalization with overlap
     c_bands:  2 eigenvalues not converged
     ethr =  1.74E-06,  avg # of iterations = 11.2

     negative rho (up, down):  2.844E-03 0.000E+00

     total cpu time spent up to now is     7042.8 secs

     total energy              =  -27818.62259761 Ry
     estimated scf accuracy    <       0.00232284 Ry

     iteration # 10     ecut=    60.00 Ry     beta= 0.70
     Davidson diagonalization with overlap
     c_bands:  1 eigenvalues not converged
     c_bands:  2 eigenvalues not converged
     c_bands:  2 eigenvalues not converged
     c_bands:  2 eigenvalues not converged
     ethr =  6.15E-07,  avg # of iterations = 15.4

     negative rho (up, down):  3.323E-03 0.000E+00

     total cpu time spent up to now is     7802.0 secs

     total energy              =  -27818.62284729 Ry
     estimated scf accuracy    <       0.00172721 Ry

     iteration # 11     ecut=    60.00 Ry     beta= 0.70
     Davidson diagonalization with overlap
     c_bands:  2 eigenvalues not converged
     c_bands:  1 eigenvalues not converged
     ethr =  4.57E-07,  avg # of iterations =  5.2

     negative rho (up, down):  5.037E-03 0.000E+00

     total cpu time spent up to now is     8394.4 secs

     total energy              =  -27818.62300663 Ry
     estimated scf accuracy    <       0.00132683 Ry

     iteration # 12     ecut=    60.00 Ry     beta= 0.70
     Davidson diagonalization with overlap
     ethr =  3.51E-07,  avg # of iterations =  8.8

     negative rho (up, down):  6.195E-03 0.000E+00

     total cpu time spent up to now is     9024.9 secs

     total energy              =  -27818.62304217 Ry
     estimated scf accuracy    <       0.00078337 Ry

     iteration # 13     ecut=    60.00 Ry     beta= 0.70
     Davidson diagonalization with overlap
     ethr =  2.07E-07,  avg # of iterations =  1.8

     negative rho (up, down):  1.102E-02 0.000E+00

     total cpu time spent up to now is     9588.8 secs

     total energy              =  -27818.62298099 Ry
     estimated scf accuracy    <       0.00075153 Ry

     iteration # 14     ecut=    60.00 Ry     beta= 0.70
     Davidson diagonalization with overlap
     ethr =  1.99E-07,  avg # of iterations =  9.3

     negative rho (up, down):  1.215E-02 0.000E+00

     total cpu time spent up to now is    10236.2 secs

     total energy              =  -27818.62297083 Ry
     estimated scf accuracy    <       0.00022674 Ry

     iteration # 15     ecut=    60.00 Ry     beta= 0.70
     Davidson diagonalization with overlap
     ethr =  6.00E-08,  avg # of iterations =  2.0

     negative rho (up, down):  1.364E-02 0.000E+00

     total cpu time spent up to now is    10827.6 secs

     total energy              =  -27818.62300403 Ry
     estimated scf accuracy    <       0.00006967 Ry

     iteration # 16     ecut=    60.00 Ry     beta= 0.70
     Davidson diagonalization with overlap
     ethr =  1.84E-08,  avg # of iterations =  4.0

     negative rho (up, down):  1.275E-02 0.000E+00

     total cpu time spent up to now is    11510.9 secs

     total energy              =  -27818.62302161 Ry
     estimated scf accuracy    <       0.00004910 Ry

     iteration # 17     ecut=    60.00 Ry     beta= 0.70
     Davidson diagonalization with overlap
     ethr =  1.30E-08,  avg # of iterations =  2.0

     negative rho (up, down):  1.319E-02 0.000E+00

     total cpu time spent up to now is    12089.4 secs

     total energy              =  -27818.62303140 Ry
     estimated scf accuracy    <       0.00001158 Ry

     iteration # 18     ecut=    60.00 Ry     beta= 0.70
     Davidson diagonalization with overlap
     ethr =  3.06E-09,  avg # of iterations =  4.1

     negative rho (up, down):  1.286E-02 0.000E+00

     total cpu time spent up to now is    12900.6 secs

     total energy              =  -27818.62303648 Ry
     estimated scf accuracy    <       0.00000843 Ry

     iteration # 19     ecut=    60.00 Ry     beta= 0.70
     Davidson diagonalization with overlap
     ethr =  2.23E-09,  avg # of iterations =  1.3

     negative rho (up, down):  1.305E-02 0.000E+00

     total cpu time spent up to now is    13437.3 secs

     total energy              =  -27818.62303675 Ry
     estimated scf accuracy    <       0.00000162 Ry

     iteration # 20     ecut=    60.00 Ry     beta= 0.70
     Davidson diagonalization with overlap
     ethr =  4.29E-10,  avg # of iterations =  3.4

     negative rho (up, down):  1.288E-02 0.000E+00

     total cpu time spent up to now is    14077.2 secs

     End of self-consistent calculation

          k = 0.0000 0.0000 0.0000 ( 92795 PWs)   bands (ev):

   -13.9633 -11.1852  -8.0683  -6.8904  -5.7437  -5.6106  -4.7486  -4.6058
    -4.5007  -4.4901  -4.4879  -4.4741  -4.4408  -4.4334  -4.4156  -4.1720
    -3.9369  -3.9273  -3.9192  -3.9015  -3.8981  -3.8875  -3.4846  -3.4699
    -3.4585  -3.4477  -3.4377  -3.4100  -3.3155  -3.2461  -3.2394  -3.2368
    -3.2300  -3.2071  -3.1792  -3.0302  -3.0217  -3.0134  -3.0079  -3.0008
    -2.9903  -2.9843  -2.9808  -2.9480  -2.9348  -2.9264  -2.9202  -2.6461
    -2.3981  -2.3912  -2.3692  -2.3637  -2.3460  -2.3233  -2.3058  -2.2956
    -2.2949  -2.2811  -2.1783  -2.1501  -2.1090  -2.0754  -1.8719  -1.6458
    -1.5837  -1.5713  -1.5627  -1.5534  -1.5447  -1.4850  -1.4334  -1.4230
    -1.3925  -1.3893  -1.3680  -1.3621  -1.3586  -1.3401  -1.3355  -1.3166
    -1.3087  -1.3071  -1.2860  -1.2807  -1.2463  -1.1733  -1.1704  -1.1556
    -1.1456  -1.1402  -1.0166  -1.0139  -0.9956  -0.9926  -0.9505  -0.9422
    -0.9380  -0.9221  -0.8969  -0.8685  -0.8667  -0.7936  -0.7910  -0.7333
    -0.7201  -0.7198  -0.6805  -0.6780  -0.6393  -0.5955  -0.5838  -0.5422
    -0.5277  -0.5093  -0.5068  -0.2663  -0.1775  -0.1418  -0.0833  -0.0616
    -0.0422  -0.0409  -0.0272   0.0124   0.0332   0.0406   0.0460   0.0931
     0.1124   0.1470   0.2342   0.2632   0.2641   0.2712   0.3356   0.3446
     0.3573   0.3873   0.4516   0.4636   0.4785   0.4813   0.6121   0.6508
     0.6969   0.7013   0.7094   0.7428   0.7734   0.7783   0.9333   0.9444
     0.9552   0.9829   0.9938   1.0118   1.0867   1.0930   1.1186   1.1217
     1.1349   1.1558   1.1583   1.1668   1.1701   1.1801   1.1990   1.2460
     1.2560   1.2692   1.2788   1.2881   1.3023   1.3386   1.3592   1.3787
     1.3826   1.3909   1.3996   1.4067   1.4378   1.4547   1.4649   1.4678
     1.5296   1.5318   1.5489   1.5617   1.5671   1.5883   1.5997   1.6478
     1.6498   1.6524   1.6868   1.6900   1.8436   1.8561   1.9458   1.9510
     1.9888   1.9927   1.9960   2.0212   2.0793   2.7627   2.8287   2.8492
     2.8582   2.8630   2.8987   3.6408   4.9084   5.1146   5.1457   5.1783
     5.2008   5.2754   5.5947   5.8246   6.4255   6.7114   6.7336   6.7714
     6.7856   6.8101   6.8605

          k = 0.0000 0.2309 0.0000 ( 92710 PWs)   bands (ev):

   -13.9632 -11.1852  -8.0689  -6.7436  -5.7375  -5.4750  -4.9944  -4.7272
    -4.5810  -4.5750  -4.4933  -4.3408  -4.2773  -4.2292  -4.2249  -4.1660
    -4.0088  -3.9870  -3.8654  -3.8528  -3.8322  -3.8213  -3.5491  -3.4380
    -3.4240  -3.4127  -3.3946  -3.3546  -3.3291  -3.3161  -3.2692  -3.2475
    -3.2317  -3.2200  -3.1758  -3.1371  -3.0995  -3.0484  -3.0329  -3.0169
    -2.9925  -2.9757  -2.8247  -2.8068  -2.7941  -2.7563  -2.7383  -2.6451
    -2.5197  -2.5024  -2.4769  -2.4403  -2.4182  -2.3932  -2.3893  -2.2337
    -2.1988  -2.1595  -2.1330  -2.0939  -2.0848  -2.0742  -1.9319  -1.8359
    -1.7595  -1.7374  -1.6953  -1.6730  -1.6453  -1.5990  -1.5750  -1.5509
    -1.5369  -1.5172  -1.4949  -1.4583  -1.4182  -1.3916  -1.3814  -1.3508
    -1.2897  -1.2774  -1.2677  -1.2198  -1.2015  -1.1819  -1.1318  -1.1089
    -1.0942  -1.0892  -1.0537  -1.0222  -1.0106  -0.9991  -0.9873  -0.9600
    -0.9456  -0.9133  -0.8619  -0.8474  -0.8170  -0.8072  -0.7883  -0.7766
    -0.7547  -0.7388  -0.7157  -0.6916  -0.6213  -0.5939  -0.5695  -0.5659
    -0.5308  -0.5101  -0.4998  -0.4696  -0.4484  -0.4376  -0.4173  -0.4003
    -0.3129  -0.2072  -0.1547  -0.0880  -0.0697  -0.0393  -0.0073   0.0052
     0.0392   0.0419   0.1483   0.1730   0.1999   0.2942   0.3168   0.3528
     0.3884   0.3918   0.4159   0.4317   0.4745   0.4870   0.5446   0.5636
     0.5877   0.6048   0.6207   0.7336   0.7518   0.7946   0.8092   0.8478
     0.8548   0.8858   0.9198   0.9489   0.9647   0.9952   0.9994   1.0473
     1.0929   1.0969   1.1184   1.1903   1.1986   1.2240   1.2333   1.2885
     1.3052   1.3419   1.3627   1.3764   1.4029   1.4356   1.4831   1.5115
     1.5293   1.5735   1.5790   1.5885   1.6238   1.6290   1.6305   1.6445
     1.6488   1.7004   1.7090   1.7735   1.8274   1.8416   1.8820   1.8966
     1.9180   1.9224   1.9490   1.9688   1.9924   2.0043   2.0832   2.0935
     2.1235   2.2648   2.2789   2.2907   2.3048   2.5378   2.7281   2.9272
     3.4158   3.4579   3.5579   3.8184   4.5308   4.8234   5.0358   5.1180
     5.6062   5.6287   5.7015   5.8117   5.8884   6.0958   6.4925   6.5395
     6.6060   6.6752   6.9525

          k = 0.0000 0.4619 0.0000 ( 92734 PWs)   bands (ev):

   -13.9632 -11.1852  -8.0699  -6.3218  -5.7409  -5.6803  -5.0876  -4.7386
    -4.6142  -4.6051  -4.5190  -4.2946  -4.2275  -4.0943  -3.9633  -3.9109
    -3.8910  -3.8832  -3.7424  -3.7259  -3.6802  -3.6667  -3.6521  -3.5460
    -3.5043  -3.5015  -3.4695  -3.4455  -3.4192  -3.3845  -3.3315  -3.3166
    -3.3062  -3.2495  -3.0665  -3.0576  -3.0477  -3.0413  -3.0325  -3.0055
    -2.8349  -2.8110  -2.7880  -2.7696  -2.7608  -2.7323  -2.6622  -2.5735
    -2.4956  -2.4597  -2.4469  -2.4330  -2.4034  -2.3850  -2.3469  -2.3186
    -2.3039  -2.2636  -2.2345  -2.1250  -2.1098  -2.0777  -2.0568  -1.9931
    -1.9391  -1.9144  -1.8920  -1.8665  -1.8051  -1.7290  -1.6783  -1.6575
    -1.6450  -1.6078  -1.5808  -1.5397  -1.5219  -1.4794  -1.4312  -1.4065
    -1.3864  -1.3105  -1.2928  -1.2798  -1.2598  -1.2500  -1.2097  -1.1928
    -1.1742  -1.1617  -1.1546  -1.1432  -1.1289  -1.1137  -1.0852  -1.0442
    -1.0065  -0.9860  -0.9791  -0.9662  -0.9247  -0.8854  -0.8292  -0.8106
    -0.7942  -0.7395  -0.7303  -0.7010  -0.6959  -0.6725  -0.6173  -0.5460
    -0.5212  -0.5072  -0.4963  -0.4258  -0.4183  -0.3218  -0.3039  -0.2747
    -0.2276  -0.1853  -0.1530  -0.1196  -0.1023  -0.0720  -0.0533  -0.0499
     0.0049   0.0103   0.0188   0.0295   0.0596   0.0812   0.0995   0.1229
     0.1346   0.2245   0.2597   0.2755   0.3058   0.3482   0.4288   0.4680
     0.4752   0.5624   0.5805   0.6596   0.7029   0.7125   0.7855   0.7886
     0.8163   0.8445   0.8759   0.9166   0.9201   0.9699   0.9877   1.0040
     1.0865   1.0960   1.1147   1.1356   1.1511   1.1632   1.2249   1.3074
     1.3299   1.3570   1.4001   1.4301   1.4488   1.5167   1.5345   1.5601
     1.6244   1.6317   1.6407   1.6840   1.7005   1.7224   1.7582   1.7938
     1.8314   1.8644   1.8784   1.9020   1.9137   1.9241   1.9360   2.0736
     2.0985   2.1213   2.1484   2.1568   2.2351   2.2964   2.3619   2.7314
     2.7805   2.8209   3.1567   3.1767   3.2110   3.5213   3.5713   3.8314
     3.8989   4.2685   4.3910   4.4060   4.5448   4.5612   4.6714   4.7377
     4.9099   5.0114   5.0996   5.4124   5.6835   5.7512   6.0755   6.2333
     6.3047   6.6302   6.6763

          k = 0.2000-0.1155 0.0000 ( 92710 PWs)   bands (ev):

   -13.9632 -11.1857  -8.0680  -6.7435  -5.7330  -5.4763  -4.9907  -4.7336
    -4.5821  -4.5734  -4.4881  -4.3412  -4.2789  -4.2309  -4.2227  -4.1517
    -4.0272  -4.0001  -3.8661  -3.8600  -3.8294  -3.8067  -3.5464  -3.4374
    -3.4260  -3.4100  -3.3878  -3.3594  -3.3300  -3.3122  -3.2755  -3.2550
    -3.2269  -3.2166  -3.1790  -3.1373  -3.1080  -3.0539  -3.0264  -3.0193
    -2.9893  -2.9817  -2.8188  -2.8112  -2.7923  -2.7683  -2.7365  -2.6419
    -2.5153  -2.4976  -2.4815  -2.4363  -2.4280  -2.3882  -2.3802  -2.2384
    -2.1968  -2.1772  -2.1281  -2.0978  -2.0823  -2.0664  -1.9332  -1.8316
    -1.7563  -1.7528  -1.6869  -1.6807  -1.6350  -1.5966  -1.5623  -1.5529
    -1.5355  -1.5228  -1.5105  -1.4559  -1.3968  -1.3816  -1.3706  -1.3508
    -1.2892  -1.2790  -1.2765  -1.2139  -1.2060  -1.1874  -1.1271  -1.1066
    -1.0973  -1.0868  -1.0671  -1.0180  -1.0118  -1.0014  -0.9824  -0.9537
    -0.9476  -0.9302  -0.8673  -0.8453  -0.8220  -0.8039  -0.7874  -0.7762
    -0.7687  -0.7438  -0.7102  -0.6826  -0.6275  -0.5859  -0.5776  -0.5550
    -0.5362  -0.5310  -0.4998  -0.4637  -0.4484  -0.4313  -0.4247  -0.3581
    -0.3221  -0.1883  -0.1494  -0.1203  -0.0840  -0.0420  -0.0053   0.0147
     0.0325   0.0417   0.1456   0.1721   0.2406   0.2759   0.3188   0.3477
     0.3880   0.3924   0.4237   0.4303   0.4759   0.4871   0.5489   0.5554
     0.5946   0.6041   0.6198   0.7173   0.7647   0.8018   0.8140   0.8414
     0.8538   0.8801   0.9292   0.9510   0.9647   0.9950   1.0031   1.0575
     1.0883   1.1017   1.1219   1.1879   1.1996   1.2220   1.2297   1.2878
     1.3132   1.3360   1.3670   1.3784   1.4017   1.4334   1.4785   1.5114
     1.5256   1.5711   1.5742   1.5930   1.6214   1.6268   1.6304   1.6448
     1.6486   1.6982   1.7087   1.7658   1.8282   1.8429   1.8801   1.8946
     1.9217   1.9257   1.9460   1.9699   1.9919   2.0046   2.0855   2.0911
     2.1237   2.2540   2.2804   2.2923   2.3143   2.5227   2.7387   2.9243
     3.4090   3.4629   3.5501   3.8083   4.5021   4.8471   5.0182   5.1517
     5.6062   5.6366   5.7172   5.7935   5.8739   6.1399   6.5083   6.5402
     6.6147   6.6650   6.9390

          k = 0.2000 0.1155 0.0000 ( 92710 PWs)   bands (ev):

   -13.9632 -11.1857  -8.0677  -6.7436  -5.7350  -5.4748  -4.9843  -4.7492
    -4.5844  -4.5610  -4.4946  -4.3406  -4.2741  -4.2353  -4.2227  -4.1622
    -4.0209  -3.9983  -3.8595  -3.8536  -3.8303  -3.8059  -3.5540  -3.4454
    -3.4274  -3.4218  -3.3971  -3.3416  -3.3222  -3.2884  -3.2778  -3.2573
    -3.2322  -3.2155  -3.1755  -3.1409  -3.1105  -3.0502  -3.0307  -3.0120
    -2.9905  -2.9815  -2.8210  -2.8044  -2.7886  -2.7698  -2.7434  -2.6368
    -2.5242  -2.5014  -2.4804  -2.4367  -2.4201  -2.3934  -2.3835  -2.2292
    -2.1987  -2.1575  -2.1335  -2.1110  -2.0850  -2.0658  -1.9358  -1.8272
    -1.7594  -1.7430  -1.6947  -1.6870  -1.6480  -1.5988  -1.5741  -1.5537
    -1.5317  -1.5150  -1.4874  -1.4559  -1.4190  -1.3942  -1.3828  -1.3538
    -1.2855  -1.2732  -1.2555  -1.2244  -1.2015  -1.1898  -1.1340  -1.1135
    -1.1022  -1.0834  -1.0626  -1.0284  -1.0107  -0.9923  -0.9863  -0.9679
    -0.9434  -0.9142  -0.8611  -0.8403  -0.8186  -0.8057  -0.7874  -0.7735
    -0.7513  -0.7339  -0.7142  -0.6922  -0.6175  -0.5850  -0.5692  -0.5652
    -0.5329  -0.5069  -0.5001  -0.4808  -0.4486  -0.4401  -0.4166  -0.4059
    -0.2979  -0.2014  -0.1661  -0.0917  -0.0658  -0.0389  -0.0078   0.0112
     0.0376   0.0420   0.1520   0.1741   0.1922   0.2980   0.3175   0.3467
     0.3899   0.3955   0.4149   0.4359   0.4695   0.4840   0.5445   0.5651
     0.5889   0.6051   0.6147   0.7326   0.7587   0.7966   0.8107   0.8490
     0.8603   0.8870   0.9197   0.9545   0.9613   0.9963   1.0085   1.0495
     1.0888   1.0962   1.1190   1.1885   1.1920   1.2201   1.2359   1.2864
     1.3008   1.3483   1.3625   1.3731   1.4001   1.4351   1.4824   1.5110
     1.5269   1.5732   1.5764   1.5898   1.6210   1.6277   1.6313   1.6458
     1.6486   1.7023   1.7132   1.7835   1.8265   1.8455   1.8779   1.8966
     1.9163   1.9222   1.9429   1.9665   1.9886   1.9980   2.0861   2.0914
     2.1233   2.2654   2.2791   2.2950   2.3161   2.5443   2.7137   2.9175
     3.4170   3.4418   3.5620   3.8434   4.5511   4.8002   5.0558   5.1043
     5.6073   5.6305   5.7133   5.7917   5.8871   6.1066   6.4971   6.5453
     6.6008   6.6800   6.9505

          k = 0.2000 0.3464 0.0000 ( 92714 PWs)   bands (ev):

   -13.9631 -11.1857  -8.0683  -6.4586  -5.7330  -5.2500  -5.2260  -5.1993
    -4.7151  -4.3882  -4.1651  -4.1586  -4.1512  -4.1266  -4.1048  -4.0748
    -4.0458  -3.9759  -3.9534  -3.9308  -3.6004  -3.5790  -3.5704  -3.5641
    -3.4935  -3.4782  -3.3833  -3.3381  -3.3293  -3.3244  -3.3066  -3.2498
    -3.2026  -3.1934  -3.1613  -3.1472  -3.1361  -3.0932  -3.0578  -3.0377
    -3.0076  -2.9849  -2.9040  -2.7134  -2.6556  -2.5929  -2.5736  -2.5469
    -2.5248  -2.5160  -2.4964  -2.4820  -2.4383  -2.4218  -2.2944  -2.2825
    -2.2704  -2.1963  -2.1502  -2.1360  -2.0915  -2.0813  -2.0250  -2.0019
    -1.9088  -1.8593  -1.8224  -1.7910  -1.7476  -1.7297  -1.7073  -1.6865
    -1.6313  -1.6067  -1.6012  -1.4831  -1.4623  -1.4487  -1.4297  -1.3888
    -1.3735  -1.3558  -1.3374  -1.3055  -1.2704  -1.2000  -1.1753  -1.1505
    -1.1368  -1.1219  -1.1132  -1.1030  -1.0565  -1.0490  -1.0294  -0.9858
    -0.9661  -0.9264  -0.9143  -0.8921  -0.8706  -0.8184  -0.7942  -0.7665
    -0.7599  -0.7435  -0.7340  -0.7177  -0.6969  -0.6757  -0.6715  -0.6394
    -0.6070  -0.6005  -0.5669  -0.5054  -0.4874  -0.4686  -0.3989  -0.3839
    -0.3746  -0.2885  -0.1861  -0.1487  -0.1282  -0.0656  -0.0496  -0.0299
     0.0148   0.0366   0.0477   0.0822   0.0904   0.1104   0.1569   0.1740
     0.2108   0.3107   0.3763   0.3886   0.4067   0.4420   0.4814   0.5040
     0.5343   0.5989   0.6252   0.6555   0.7040   0.7167   0.7593   0.7929
     0.8360   0.8513   0.8802   0.9163   0.9341   0.9546   0.9619   0.9686
     0.9931   0.9938   1.0345   1.0638   1.1543   1.1908   1.2393   1.3120
     1.3408   1.4141   1.4966   1.5090   1.5209   1.5523   1.6203   1.6438
     1.6496   1.6755   1.6886   1.7176   1.7237   1.7358   1.7536   1.7719
     1.7786   1.8083   1.8705   1.9059   1.9174   1.9375   1.9474   1.9962
     2.0071   2.1366   2.1745   2.1944   2.2302   2.2638   2.2776   2.3630
     2.3924   2.4779   2.9196   2.9381   3.0589   3.4312   3.4641   3.4981
     3.5877   4.1170   4.1674   4.3477   4.3939   4.4124   4.7296   5.0267
     5.1052   5.5970   5.6450   5.6887   5.8830   6.0010   6.1941   6.2600
     6.3267   6.4302   6.5529

          k = 0.2000-0.5774 0.0000 ( 92692 PWs)   bands (ev):

   -13.9631 -11.1857  -8.0691  -5.9398  -5.9120  -5.7276  -5.3141  -4.8301
    -4.6936  -4.6259  -4.2916  -4.1641  -4.1084  -4.0146  -3.9794  -3.8763
    -3.8649  -3.7681  -3.7552  -3.6735  -3.6455  -3.6309  -3.6132  -3.5949
    -3.5609  -3.5467  -3.4651  -3.4324  -3.4258  -3.3929  -3.3735  -3.3181
    -3.2581  -3.2249  -3.1729  -3.1400  -3.0490  -3.0326  -3.0204  -2.9904
    -2.9711  -2.9037  -2.8906  -2.7927  -2.7756  -2.6796  -2.6073  -2.5886
    -2.5510  -2.4641  -2.4548  -2.4106  -2.3805  -2.2909  -2.2369  -2.2087
    -2.1909  -2.1746  -2.1309  -2.1082  -2.0963  -2.0427  -1.9956  -1.9794
    -1.9616  -1.9412  -1.9288  -1.9254  -1.8843  -1.8414  -1.7936  -1.7510
    -1.7059  -1.6814  -1.6496  -1.5561  -1.5312  -1.5124  -1.4948  -1.4715
    -1.4434  -1.4300  -1.4143  -1.3375  -1.3169  -1.2929  -1.2663  -1.2537
    -1.2212  -1.1885  -1.1530  -1.1231  -1.0957  -1.0796  -1.0341  -0.9676
    -0.9388  -0.9097  -0.8965  -0.8779  -0.8525  -0.8353  -0.8187  -0.7959
    -0.7838  -0.7691  -0.7464  -0.7267  -0.7040  -0.6916  -0.6699  -0.6576
    -0.6427  -0.6305  -0.6200  -0.5921  -0.5687  -0.5202  -0.4037  -0.3206
    -0.2728  -0.2566  -0.2015  -0.1604  -0.1549  -0.1177  -0.0904  -0.0767
    -0.0331  -0.0158   0.0097   0.0486   0.0816   0.1025   0.1284   0.1452
     0.2228   0.2374   0.2712   0.3432   0.3990   0.4476   0.4763   0.5102
     0.5442   0.5764   0.6001   0.6341   0.6523   0.6610   0.6884   0.7107
     0.7363   0.7898   0.8050   0.8574   0.8920   0.9051   0.9091   0.9387
     0.9460   1.0277   1.0767   1.1391   1.1897   1.2540   1.3124   1.3507
     1.3638   1.4254   1.4764   1.4877   1.5137   1.5874   1.6188   1.6542
     1.6810   1.6954   1.7112   1.7250   1.7494   1.7825   1.8491   1.8565
     1.8658   1.8996   1.9183   1.9243   1.9351   1.9965   2.0800   2.1047
     2.1388   2.1493   2.1630   2.1881   2.2205   2.3234   2.4109   2.5397
     3.2803   3.2888   3.4035   3.5171   3.6225   3.6509   3.6781   3.7824
     4.1874   4.2361   4.3101   4.5060   4.7498   4.7873   4.8367   4.8883
     5.0746   5.1406   5.1861   5.3219   5.4922   5.6634   5.7337   5.9913
     6.1623   6.2978   6.3870

          k = 0.2000-0.3464 0.0000 ( 92714 PWs)   bands (ev):

   -13.9631 -11.1857  -8.0689  -6.4583  -5.7314  -5.2513  -5.2223  -5.2043
    -4.7088  -4.3832  -4.1700  -4.1549  -4.1459  -4.1254  -4.0990  -4.0752
    -4.0526  -3.9788  -3.9562  -3.9358  -3.6118  -3.5865  -3.5721  -3.5606
    -3.5012  -3.4721  -3.3527  -3.3414  -3.3271  -3.3171  -3.2966  -3.2821
    -3.2014  -3.1827  -3.1641  -3.1519  -3.1365  -3.0813  -3.0679  -3.0433
    -3.0095  -2.9831  -2.9117  -2.7448  -2.6640  -2.5889  -2.5818  -2.5431
    -2.5247  -2.5101  -2.5028  -2.4800  -2.4379  -2.4196  -2.2936  -2.2801
    -2.2491  -2.1836  -2.1555  -2.1247  -2.0958  -2.0741  -2.0124  -2.0050
    -1.9609  -1.8443  -1.8116  -1.7850  -1.7462  -1.7088  -1.6956  -1.6743
    -1.6482  -1.6318  -1.6017  -1.4732  -1.4640  -1.4434  -1.4194  -1.3920
    -1.3570  -1.3441  -1.3184  -1.2997  -1.2841  -1.1920  -1.1755  -1.1510
    -1.1371  -1.1216  -1.1182  -1.0991  -1.0691  -1.0440  -1.0379  -0.9981
    -0.9701  -0.9459  -0.8946  -0.8738  -0.8715  -0.8219  -0.8062  -0.7727
    -0.7555  -0.7484  -0.7344  -0.7171  -0.7070  -0.6856  -0.6731  -0.6399
    -0.6083  -0.6044  -0.5630  -0.5046  -0.4801  -0.4675  -0.4307  -0.3777
    -0.3727  -0.3005  -0.1937  -0.1711  -0.1322  -0.0582  -0.0429  -0.0043
     0.0093   0.0389   0.0563   0.0799   0.0909   0.1104   0.1602   0.1892
     0.2267   0.2952   0.3769   0.3913   0.4087   0.4546   0.4840   0.4925
     0.5363   0.5836   0.6221   0.6576   0.7046   0.7196   0.7554   0.7994
     0.8370   0.8475   0.8844   0.9127   0.9290   0.9547   0.9657   0.9743
     0.9917   0.9975   1.0352   1.0634   1.1635   1.2002   1.2241   1.3124
     1.3407   1.4104   1.5001   1.5153   1.5250   1.5474   1.6174   1.6446
     1.6489   1.6796   1.6901   1.7140   1.7239   1.7335   1.7515   1.7732
     1.7882   1.8007   1.8760   1.8977   1.9160   1.9422   1.9518   1.9942
     2.0068   2.1403   2.1729   2.2018   2.2367   2.2671   2.2783   2.3683
     2.3940   2.4683   2.8894   2.9371   3.0396   3.4118   3.4819   3.5055
     3.6123   4.1120   4.1623   4.2234   4.4031   4.4356   4.6575   4.9742
     5.3572   5.5989   5.6259   5.7352   5.8468   5.9988   6.1783   6.2931
     6.3682   6.4233   6.4512

          k = 0.4000-0.2309 0.0000 ( 92734 PWs)   bands (ev):

   -13.9630 -11.1865  -8.0675  -6.3211  -5.7262  -5.6849  -5.0859  -4.7413
    -4.6134  -4.6081  -4.5051  -4.2927  -4.2444  -4.0954  -3.9676  -3.9317
    -3.8894  -3.8865  -3.7463  -3.7127  -3.6805  -3.6598  -3.6506  -3.5482
    -3.5074  -3.5015  -3.4655  -3.4434  -3.4127  -3.3888  -3.3284  -3.3142
    -3.3086  -3.2559  -3.0724  -3.0627  -3.0552  -3.0461  -3.0240  -3.0077
    -2.8417  -2.8139  -2.7996  -2.7835  -2.7560  -2.7363  -2.6673  -2.5744
    -2.4879  -2.4810  -2.4502  -2.4194  -2.3902  -2.3819  -2.3385  -2.3182
    -2.3006  -2.2529  -2.2391  -2.1416  -2.0968  -2.0772  -2.0404  -2.0021
    -1.9400  -1.9020  -1.8798  -1.8734  -1.8336  -1.7253  -1.6880  -1.6473
    -1.6330  -1.6273  -1.5753  -1.5462  -1.5011  -1.4726  -1.4284  -1.3956
    -1.3880  -1.3092  -1.2865  -1.2736  -1.2600  -1.2510  -1.2048  -1.1866
    -1.1823  -1.1619  -1.1564  -1.1345  -1.1179  -1.1094  -1.0781  -1.0264
    -1.0220  -1.0067  -0.9746  -0.9663  -0.9576  -0.8757  -0.8214  -0.8038
    -0.7709  -0.7480  -0.7195  -0.7161  -0.6879  -0.6789  -0.6150  -0.5490
    -0.5443  -0.5153  -0.4884  -0.4291  -0.4156  -0.3665  -0.2986  -0.2877
    -0.2068  -0.1984  -0.1446  -0.1381  -0.1117  -0.0701  -0.0588  -0.0469
    -0.0025   0.0160   0.0190   0.0415   0.0663   0.0805   0.1056   0.1247
     0.1358   0.2233   0.2651   0.2745   0.3142   0.3640   0.4092   0.4727
     0.4800   0.5688   0.5741   0.6619   0.7148   0.7289   0.7816   0.7915
     0.8141   0.8507   0.8774   0.9204   0.9262   0.9700   0.9964   1.0077
     1.0880   1.0931   1.1174   1.1404   1.1510   1.1648   1.2204   1.3198
     1.3339   1.3611   1.3923   1.4306   1.4472   1.5161   1.5390   1.5581
     1.6189   1.6315   1.6370   1.6745   1.6990   1.7235   1.7578   1.8033
     1.8341   1.8646   1.8735   1.8996   1.9119   1.9256   1.9381   2.0855
     2.0977   2.1204   2.1473   2.1572   2.2263   2.2909   2.3615   2.7328
     2.7480   2.8166   3.1509   3.1839   3.2176   3.5253   3.5551   3.8233
     3.8653   4.1889   4.3943   4.3975   4.5231   4.6130   4.6468   4.7466
     4.9148   5.0265   5.1170   5.4466   5.6854   5.8148   6.0965   6.2002
     6.3731   6.6371   6.6993

          k = 0.4000-0.0000 0.0000 ( 92714 PWs)   bands (ev):

   -13.9630 -11.1865  -8.0668  -6.4581  -5.7273  -5.2453  -5.2270  -5.2020
    -4.7164  -4.3845  -4.1703  -4.1519  -4.1451  -4.1312  -4.0958  -4.0752
    -4.0579  -3.9763  -3.9581  -3.9437  -3.6029  -3.5862  -3.5684  -3.5588
    -3.4964  -3.4704  -3.3750  -3.3414  -3.3277  -3.3148  -3.2986  -3.2560
    -3.2133  -3.1837  -3.1627  -3.1569  -3.1384  -3.0830  -3.0650  -3.0379
    -3.0050  -2.9953  -2.9087  -2.7568  -2.6581  -2.5906  -2.5793  -2.5400
    -2.5301  -2.5020  -2.4993  -2.4705  -2.4416  -2.4272  -2.2983  -2.2766
    -2.2496  -2.1811  -2.1586  -2.1244  -2.0970  -2.0769  -2.0168  -2.0080
    -1.9420  -1.8427  -1.8262  -1.7914  -1.7455  -1.7115  -1.6987  -1.6797
    -1.6503  -1.6315  -1.6009  -1.4734  -1.4634  -1.4385  -1.4149  -1.3866
    -1.3575  -1.3501  -1.3224  -1.3054  -1.2795  -1.1945  -1.1784  -1.1527
    -1.1381  -1.1245  -1.1147  -1.1005  -1.0653  -1.0455  -1.0378  -0.9918
    -0.9692  -0.9377  -0.8966  -0.8795  -0.8687  -0.8180  -0.8041  -0.7782
    -0.7573  -0.7466  -0.7351  -0.7157  -0.7025  -0.6847  -0.6737  -0.6385
    -0.6073  -0.6030  -0.5559  -0.5041  -0.4823  -0.4690  -0.4197  -0.3746
    -0.3708  -0.3074  -0.1956  -0.1664  -0.1342  -0.0548  -0.0407  -0.0134
     0.0111   0.0369   0.0602   0.0787   0.0947   0.1058   0.1631   0.1865
     0.2162   0.2950   0.3785   0.3913   0.4104   0.4521   0.4811   0.5012
     0.5357   0.5885   0.6226   0.6532   0.7037   0.7181   0.7595   0.8000
     0.8448   0.8505   0.8851   0.9157   0.9345   0.9514   0.9635   0.9755
     0.9884   0.9982   1.0305   1.0667   1.1549   1.1984   1.2367   1.3121
     1.3375   1.4107   1.4975   1.5142   1.5211   1.5457   1.6185   1.6449
     1.6487   1.6799   1.6909   1.7155   1.7241   1.7352   1.7552   1.7724
     1.7879   1.8013   1.8750   1.9014   1.9162   1.9421   1.9525   1.9968
     2.0089   2.1357   2.1658   2.1947   2.2282   2.2596   2.2783   2.3790
     2.3995   2.4683   2.8908   2.9373   3.0526   3.4000   3.4734   3.5024
     3.6083   4.1334   4.1518   4.2311   4.4059   4.4363   4.6533   4.9858
     5.3675   5.5936   5.6335   5.7377   5.8530   5.9985   6.1386   6.3145
     6.3640   6.4257   6.4927

          k = 0.4000 0.2309 0.0000 ( 92734 PWs)   bands (ev):

   -13.9630 -11.1865  -8.0665  -6.3214  -5.7356  -5.6767  -5.0835  -4.7572
    -4.6150  -4.5860  -4.5356  -4.2938  -4.2337  -4.0947  -3.9640  -3.9190
    -3.8900  -3.8847  -3.7439  -3.7102  -3.6793  -3.6567  -3.6498  -3.5472
    -3.5125  -3.5031  -3.4508  -3.4442  -3.4353  -3.3880  -3.3415  -3.3198
    -3.3128  -3.2232  -3.0750  -3.0621  -3.0548  -3.0416  -3.0234  -3.0094
    -2.8355  -2.8047  -2.7974  -2.7778  -2.7583  -2.7352  -2.6556  -2.5759
    -2.4892  -2.4613  -2.4461  -2.4270  -2.4049  -2.3861  -2.3387  -2.3221
    -2.3033  -2.2674  -2.2327  -2.1240  -2.1066  -2.0801  -2.0594  -2.0099
    -1.9382  -1.9213  -1.8922  -1.8785  -1.8017  -1.7252  -1.6770  -1.6540
    -1.6426  -1.6114  -1.5721  -1.5427  -1.5167  -1.4739  -1.4176  -1.4030
    -1.3869  -1.3107  -1.2950  -1.2858  -1.2642  -1.2531  -1.2135  -1.1968
    -1.1825  -1.1672  -1.1553  -1.1439  -1.1320  -1.1114  -1.0891  -1.0474
    -1.0090  -0.9909  -0.9832  -0.9704  -0.9258  -0.8781  -0.8222  -0.8119
    -0.7928  -0.7323  -0.7242  -0.6963  -0.6927  -0.6700  -0.6130  -0.5457
    -0.5197  -0.4994  -0.4888  -0.4256  -0.4155  -0.3162  -0.3014  -0.2762
    -0.2216  -0.1816  -0.1550  -0.1183  -0.1013  -0.0793  -0.0607  -0.0530
     0.0022   0.0098   0.0217   0.0269   0.0551   0.0801   0.0993   0.1166
     0.1316   0.2243   0.2630   0.2784   0.2988   0.3497   0.4298   0.4688
     0.4848   0.5568   0.5881   0.6710   0.7105   0.7194   0.7860   0.7912
     0.8196   0.8455   0.8747   0.9148   0.9213   0.9673   0.9873   1.0015
     1.0867   1.0899   1.1144   1.1341   1.1459   1.1626   1.2409   1.3098
     1.3271   1.3525   1.3983   1.4281   1.4482   1.5189   1.5382   1.5563
     1.6267   1.6309   1.6387   1.6851   1.7052   1.7223   1.7617   1.7957
     1.8305   1.8625   1.8772   1.9016   1.9087   1.9204   1.9306   2.0802
     2.0974   2.1161   2.1454   2.1485   2.2352   2.2985   2.3621   2.7200
     2.7913   2.8097   3.1605   3.1770   3.2213   3.5180   3.5756   3.8555
     3.8922   4.2560   4.3928   4.4063   4.5386   4.5537   4.6801   4.7376
     4.9175   5.0126   5.0951   5.4493   5.6774   5.7776   6.0367   6.2465
     6.3436   6.5405   6.6744

          k = 0.4000-0.6928 0.0000 ( 92692 PWs)   bands (ev):

   -13.9630 -11.1865  -8.0670  -5.9425  -5.9073  -5.7231  -5.3183  -4.8076
    -4.6919  -4.6596  -4.2978  -4.1550  -4.1057  -4.0152  -3.9788  -3.8749
    -3.8652  -3.7686  -3.7520  -3.6733  -3.6525  -3.6251  -3.6142  -3.5931
    -3.5721  -3.5450  -3.4607  -3.4356  -3.4194  -3.3839  -3.3755  -3.3459
    -3.2718  -3.1987  -3.1617  -3.1200  -3.0577  -3.0271  -3.0236  -3.0039
    -2.9730  -2.9218  -2.8924  -2.8007  -2.7634  -2.6847  -2.6020  -2.5856
    -2.5496  -2.4663  -2.4507  -2.4041  -2.3797  -2.2832  -2.2351  -2.2111
    -2.1884  -2.1746  -2.1461  -2.1149  -2.0947  -2.0496  -1.9999  -1.9768
    -1.9616  -1.9413  -1.9276  -1.9239  -1.8906  -1.8435  -1.7883  -1.7491
    -1.7064  -1.6781  -1.6496  -1.5553  -1.5336  -1.5197  -1.4894  -1.4760
    -1.4368  -1.4239  -1.4029  -1.3376  -1.3221  -1.2960  -1.2756  -1.2536
    -1.2302  -1.1839  -1.1473  -1.1214  -1.1032  -1.0804  -1.0354  -0.9660
    -0.9429  -0.9116  -0.8975  -0.8818  -0.8475  -0.8354  -0.8233  -0.7927
    -0.7772  -0.7656  -0.7419  -0.7242  -0.7079  -0.6932  -0.6703  -0.6566
    -0.6397  -0.6317  -0.6244  -0.5936  -0.5656  -0.5053  -0.3981  -0.3238
    -0.2695  -0.2554  -0.1995  -0.1605  -0.1515  -0.1178  -0.0919  -0.0827
    -0.0384  -0.0141   0.0059   0.0450   0.0834   0.1007   0.1353   0.1419
     0.2211   0.2392   0.2810   0.3359   0.3977   0.4483   0.4778   0.5087
     0.5405   0.5851   0.6028   0.6311   0.6512   0.6635   0.6916   0.7100
     0.7365   0.7895   0.8012   0.8569   0.8936   0.9029   0.9128   0.9367
     0.9511   1.0225   1.0749   1.1508   1.1873   1.2592   1.3182   1.3467
     1.3633   1.4224   1.4788   1.4852   1.5073   1.5857   1.6206   1.6524
     1.6830   1.6969   1.7136   1.7262   1.7493   1.7809   1.8430   1.8605
     1.8657   1.9067   1.9202   1.9262   1.9340   1.9957   2.0811   2.1075
     2.1355   2.1454   2.1569   2.1861   2.2208   2.3231   2.4095   2.5258
     3.2796   3.2888   3.4354   3.5143   3.6132   3.6565   3.6770   3.7843
     4.1801   4.2385   4.3013   4.5051   4.7552   4.7753   4.8465   4.8865
     5.0551   5.1694   5.2065   5.3177   5.4807   5.6559   5.7384   6.0091
     6.1808   6.3188   6.3758

          k = 0.4000-0.4619 0.0000 ( 92692 PWs)   bands (ev):

   -13.9630 -11.1865  -8.0676  -5.9428  -5.9045  -5.7258  -5.3153  -4.8204
    -4.7005  -4.6179  -4.3254  -4.1467  -4.1033  -4.0161  -3.9793  -3.8736
    -3.8641  -3.7704  -3.7528  -3.6830  -3.6542  -3.6284  -3.6175  -3.5950
    -3.5644  -3.5482  -3.4614  -3.4311  -3.4245  -3.3920  -3.3781  -3.3038
    -3.2621  -3.2148  -3.1706  -3.1305  -3.0544  -3.0359  -3.0223  -3.0050
    -2.9740  -2.9232  -2.8966  -2.7999  -2.7616  -2.6925  -2.6071  -2.5754
    -2.5518  -2.4681  -2.4465  -2.4149  -2.3885  -2.2892  -2.2337  -2.2060
    -2.1875  -2.1660  -2.1406  -2.1051  -2.0896  -2.0417  -1.9881  -1.9650
    -1.9565  -1.9393  -1.9360  -1.9242  -1.8962  -1.8595  -1.8174  -1.7326
    -1.6911  -1.6842  -1.6501  -1.5609  -1.5331  -1.4979  -1.4832  -1.4737
    -1.4460  -1.4337  -1.4069  -1.3336  -1.3186  -1.2917  -1.2665  -1.2540
    -1.2165  -1.1804  -1.1507  -1.1163  -1.0965  -1.0753  -1.0202  -0.9799
    -0.9418  -0.9093  -0.8967  -0.8791  -0.8576  -0.8391  -0.8177  -0.8016
    -0.7877  -0.7726  -0.7415  -0.7279  -0.6941  -0.6889  -0.6724  -0.6648
    -0.6493  -0.6270  -0.6153  -0.5806  -0.5689  -0.5402  -0.3735  -0.3556
    -0.2979  -0.2648  -0.2237  -0.1650  -0.1459  -0.1071  -0.0872  -0.0716
    -0.0363  -0.0109   0.0083   0.0565   0.0653   0.1014   0.1305   0.1532
     0.2217   0.2442   0.2804   0.3502   0.3885   0.4453   0.4942   0.5121
     0.5423   0.5684   0.6037   0.6326   0.6522   0.6609   0.6888   0.7267
     0.7420   0.7861   0.8178   0.8629   0.8927   0.9078   0.9115   0.9405
     0.9523   1.0252   1.0738   1.1286   1.1877   1.2593   1.3101   1.3492
     1.3656   1.4122   1.4825   1.4896   1.5145   1.5869   1.6160   1.6560
     1.6818   1.6987   1.7100   1.7244   1.7461   1.7844   1.8487   1.8618
     1.8706   1.9003   1.9182   1.9219   1.9361   1.9966   2.0879   2.1024
     2.1356   2.1475   2.1628   2.1852   2.2170   2.3278   2.4285   2.5208
     3.2720   3.2907   3.4309   3.5303   3.5564   3.6356   3.6632   3.7727
     4.2028   4.2571   4.2947   4.4182   4.7594   4.7946   4.8408   4.8897
     5.0429   5.1685   5.2091   5.3584   5.5310   5.6574   5.7541   6.0170
     6.1990   6.3101   6.3759

     the Fermi energy is     1.9161 ev

!    total energy              =  -27818.62303679 Ry

     total all-electron energy =  -1326878.680723 Ry
     estimated scf accuracy    <       0.00000082 Ry
     smearing contrib. (-TS)   =       0.00138131 Ry
     internal energy E=F+TS    =  -27818.62441810 Ry

     The total energy is F=E-TS. E is the sum of the following terms:
     one-electron contribution =  -29353.11087158 Ry
     hartree contribution      =   14981.60510129 Ry
     xc contribution           =    -909.04646384 Ry
     ewald contribution        =   12955.53334437 Ry
     one-center paw contrib.   =  -25493.60552834 Ry

     convergence has been achieved in  20 iterations

     negative rho (up, down):  1.288E-02 0.000E+00

     Forces acting on atoms (cartesian axes, Ry/au):

     atom    1 type  1   force =     0.00154602    0.00023196   -0.00350082
     atom    2 type  1   force =     0.00021549   -0.00031945   -0.00919349
     atom    3 type  1   force =    -0.00124071    0.00031931   -0.00339688
     atom    4 type  1   force =     0.00044508   -0.00112601   -0.00327997
     atom    5 type  1   force =    -0.00016463   -0.00110059   -0.00335173
     atom    6 type  1   force =     0.00013712    0.00010108   -0.00305973
     atom    7 type  1   force =     0.00006496   -0.00000912   -0.00315787
     atom    8 type  1   force =     0.00088804    0.00100915   -0.00345706
     atom    9 type  1   force =    -0.00080404    0.00103681   -0.00333493
     atom   10 type  1   force =    -0.00152554    0.00034772    0.00096632
     atom   11 type  1   force =     0.00141311    0.00056172    0.00194087
     atom   12 type  1   force =    -0.00055179    0.00369023    0.01076226
     atom   13 type  1   force =    -0.00064493    0.00021299   -0.00045557
     atom   14 type  1   force =     0.00322752   -0.00222930    0.01026991
     atom   15 type  1   force =    -0.00332264   -0.00169589    0.01024793
     atom   16 type  1   force =    -0.00028794    0.00025288    0.00019578
     atom   17 type  1   force =     0.00004494   -0.00103037    0.00141505
     atom   18 type  1   force =    -0.00069544   -0.00004112    0.00108630
     atom   19 type  1   force =     0.00001701   -0.00001873    0.00003314
     atom   20 type  1   force =    -0.00007937    0.00000076    0.00021687
     atom   21 type  1   force =    -0.00015316   -0.00002772   -0.00012286
     atom   22 type  1   force =    -0.00007495   -0.00001667    0.00011816
     atom   23 type  1   force =    -0.00017111    0.00003665    0.00016602
     atom   24 type  1   force =    -0.00007276    0.00007690   -0.00008528
     atom   25 type  1   force =    -0.00009578    0.00003128    0.00006864
     atom   26 type  1   force =    -0.00012826   -0.00001210    0.00014130
     atom   27 type  1   force =    -0.00007523    0.00004716    0.00010454
     atom   28 type  1   force =     0.00000817    0.00008488    0.00023917
     atom   29 type  1   force =     0.00000653    0.00000366   -0.00025530
     atom   30 type  1   force =    -0.00000804   -0.00000666    0.00022159
     atom   31 type  1   force =    -0.00001626    0.00002715    0.00022023
     atom   32 type  1   force =    -0.00003128   -0.00000795    0.00021800
     atom   33 type  1   force =     0.00002867   -0.00021779    0.00083570
     atom   34 type  1   force =     0.00004626    0.00000995   -0.00027760
     atom   35 type  1   force =     0.00003764    0.00012285    0.00022753
     atom   36 type  1   force =     0.00008132   -0.00003136   -0.00000570
     atom   37 type  2   force =     0.00230117    0.00016561    0.00117720
     atom   38 type  2   force =     0.00009792   -0.00010002   -0.00292973
     atom   39 type  2   force =     0.00066566   -0.00302509    0.00011762
     atom   40 type  3   force =    -0.00008362   -0.00003565    0.00012273
     atom   41 type  3   force =    -0.00014577    0.00046859    0.00010092
     atom   42 type  3   force =     0.00007354   -0.00008157    0.00013145
     atom   43 type  3   force =    -0.00029743   -0.00037140   -0.00007064
     atom   44 type  3   force =    -0.00043016   -0.00012160    0.00001455
     atom   45 type  3   force =    -0.00024536    0.00278685   -0.00142463

     Total force =     0.006079     Total SCF correction =     0.001859
     SCF correction compared to forces is large: reduce conv_thr to get better values

     negative rho (up, down):  1.288E-02 0.000E+00

     negative rho (up, down):  1.288E-02 0.000E+00

     negative rho (up, down):  1.288E-02 0.000E+00

     negative rho (up, down):  1.288E-02 0.000E+00

     negative rho (up, down):  1.288E-02 0.000E+00

     negative rho (up, down):  1.288E-02 0.000E+00

     negative rho (up, down):  1.288E-02 0.000E+00

     negative rho (up, down):  1.288E-02 0.000E+00

     negative rho (up, down):  1.288E-02 0.000E+00

     negative rho (up, down):  1.288E-02 0.000E+00

     negative rho (up, down):  1.288E-02 0.000E+00

     negative rho (up, down):  1.288E-02 0.000E+00

     negative rho (up, down):  1.288E-02 0.000E+00

     negative rho (up, down):  1.288E-02 0.000E+00

     negative rho (up, down):  1.288E-02 0.000E+00

     negative rho (up, down):  1.288E-02 0.000E+00

     negative rho (up, down):  1.288E-02 0.000E+00

     negative rho (up, down):  1.288E-02 0.000E+00

     negative rho (up, down):  1.288E-02 0.000E+00

     negative rho (up, down):  1.288E-02 0.000E+00

     negative rho (up, down):  1.288E-02 0.000E+00

     negative rho (up, down):  1.288E-02 0.000E+00

     negative rho (up, down):  1.288E-02 0.000E+00

     negative rho (up, down):  1.288E-02 0.000E+00

     negative rho (up, down):  1.288E-02 0.000E+00

     negative rho (up, down):  1.288E-02 0.000E+00

     negative rho (up, down):  1.288E-02 0.000E+00

     negative rho (up, down):  1.288E-02 0.000E+00

     negative rho (up, down):  1.288E-02 0.000E+00

     negative rho (up, down):  1.288E-02 0.000E+00

     negative rho (up, down):  1.288E-02 0.000E+00

     negative rho (up, down):  1.288E-02 0.000E+00

     negative rho (up, down):  1.288E-02 0.000E+00

     negative rho (up, down):  1.288E-02 0.000E+00
 BEEFens 2000 ensemble energies
             -0.608861836320714E+02
             -0.361799083082880E+01
             -0.158617695548215E+02
              0.430745673096639E+02
             -0.221817365487299E+02
             -0.205670257636272E+02
             -0.353882657026013E+02
             -0.867935593344993E+02
             -0.465748741462614E+02
             -0.473401179013620E+02
             -0.370490660846136E+02
              0.232262881927404E+01
              0.408796270080865E+01
              0.758048891772432E+01
              0.266270527381977E+01
              0.476384691830771E+02
             -0.209169729070932E+02
             -0.230049703908912E+02
              0.193833683361927E+02
             -0.112718521565868E+03
              0.538066556080619E+02
             -0.290260006149538E+02
             -0.335668230349906E+01
             -0.114268800255064E+02
             -0.880026635085233E+01
             -0.461437582072932E+01
              0.885297430391345E+02
             -0.188305629956577E+02
             -0.900606128890706E+01
             -0.520220879909438E+02
              0.817017092348069E+02
             -0.186936195259089E+02
             -0.376088570160207E+02
              0.249490028095330E+02
             -0.285007154611662E+01
              0.165301357006128E+02
             -0.483474499706898E+01
              0.107851135266511E+02
              0.290048546881493E+02
             -0.103528670525506E+03
              0.560117021305195E+02
              0.142863859659424E+02
             -0.179052139230214E+01
             -0.362157754471732E+02
              0.123591559262503E+02
             -0.147604067091609E+02
              0.399993982565813E+02
              0.365750697223644E+02
             -0.308329381553491E+02
             -0.275992510501409E+02
             -0.329462351405500E+02
             -0.353415656768916E+02
              0.137504294623081E+02
             -0.492299491857959E+02
              0.116189571324139E+02
              0.625047476311255E+02
              0.637935790921395E+02
              0.356808937917476E+02
              0.154359275308089E+02
              0.271811369406848E+02
              0.894350141981246E+02
              0.212665717976568E+02
             -0.550107574893501E+02
             -0.157213929339609E+02
             -0.236898702552085E+02
              0.631538624399157E+02
             -0.775152499296687E+02
             -0.673613725937017E+02
             -0.260919433157356E+02
             -0.659612055840512E+01
             -0.471498798858073E+02
              0.271540459685421E+02
              0.805011471222736E+01
              0.872669822643269E+01
             -0.398584741903429E+02
             -0.347892346576254E+02
             -0.543859759529042E+02
              0.390901632434602E+02
             -0.297156931188975E+02
              0.266613720624753E+02
             -0.720973013547523E+01
             -0.318680355822042E+02
             -0.577247155204046E+02
             -0.176973839542874E+02
             -0.909794874996135E+01
             -0.124798599780628E+02
              0.413486760263043E+02
              0.685665338294738E+02
             -0.387056107175755E+02
             -0.796825083182798E+02
             -0.220162070000206E+02
              0.111803508247695E+03
             -0.594362138930979E+02
              0.357009942432862E+02
             -0.961753240285805E+01
             -0.664663919183603E+02
              0.255116244672294E+02
              0.398589841791931E+02
             -0.199418677478294E+02
              0.401057149409152E+02
             -0.296536495821667E+02
             -0.480391554002425E+02
              0.869164867302998E+02
              0.455132629527159E+02
              0.336826916073854E+02
              0.146749012346122E+02
              0.206681859743024E+02
              0.858837163837044E+02
             -0.257540530608896E+02
              0.789463478086228E+01
             -0.142787239673984E+03
              0.181328698378133E+02
             -0.718067236768890E+02
              0.151414398891726E+02
              0.205293414622344E+02
             -0.334210016382472E+02
             -0.558535693714604E+02
              0.652188485997351E+01
             -0.305272924657548E+02
              0.309348065985330E+02
             -0.531266269790603E+02
              0.167090096880452E+01
             -0.358058148174537E+02
             -0.424171645002605E+01
             -0.988115844079346E+00
              0.182405024043642E+02
              0.142255264106814E+01
             -0.651818763788924E+01
              0.592732162163983E+02
              0.911081215023860E+02
              0.485743763689429E+02
              0.831746314701781E+02
             -0.115425557946257E+02
              0.143085232228820E+02
              0.542505161750479E+02
             -0.110231788158532E+02
             -0.738176233144521E+02
             -0.385801576177613E+02
             -0.523344025017333E+02
             -0.277578997263610E+02
              0.328142170293900E+02
             -0.117142828677695E+03
             -0.187591736557915E+02
              0.415521205296827E+02
             -0.387394941899590E+02
             -0.366066219391961E+02
              0.546394193651438E+02
              0.402018222526282E+02
             -0.354883028054344E+02
              0.139272605508432E+02
             -0.274168570009801E+02
              0.344239369830563E+02
              0.444871886993809E+01
              0.211154719131056E+02
             -0.887102476934528E+02
             -0.481469752826237E+02
             -0.999227591916269E+01
              0.318543504030973E+01
             -0.368105623878639E+02
              0.106372446329055E+03
             -0.231101225371118E+02
             -0.399546477511215E+02
              0.389709960787834E+02
             -0.495324726368269E+02
             -0.364683877883396E+02
              0.325963791281092E+02
              0.125040533589346E+02
              0.165194530853679E+02
              0.117373790187566E+02
             -0.133173810905473E+02
              0.225280017035407E+02
              0.591681239657372E+02
             -0.312162077661507E+02
              0.163110163033504E+02
              0.937141306949201E+02
              0.341795373963089E+02
             -0.729198210798927E+01
             -0.189421285829540E+02
              0.153812503628411E+03
             -0.165054010787341E+02
              0.364623288229628E+02
              0.195562044352420E+02
              0.362006893034336E+02
              0.894537494308238E+02
              0.544213883385960E+02
             -0.239883494321576E+01
              0.228700820994040E+02
              0.486540369108590E+02
              0.364486513532799E+02
             -0.527436508841431E+02
              0.938877044541547E+02
             -0.828224076749246E+02
             -0.198065290956530E+02
              0.584299851991323E+02
              0.686640756660807E+01
              0.791358677779397E+01
              0.341305497733914E+02
              0.299613184476163E+02
              0.354517645506103E+02
             -0.639329622176662E+02
              0.286591332898911E+01
             -0.298307079579995E+02
             -0.869057604682565E+01
             -0.147794970059624E+01
             -0.729158175945830E+01
             -0.417269463167679E+01
              0.861802734526041E+02
             -0.101190765118205E+02
             -0.277063828106060E+02
             -0.496208032351853E+01
              0.140472216492117E+02
             -0.565874071548057E+02
             -0.409460679902763E+02
             -0.383009014888576E+02
             -0.632156892213050E+02
             -0.170238588960193E+02
             -0.448659617658072E+02
              0.163676069858183E+02
             -0.236693137140935E+01
             -0.104865664182701E+02
             -0.935825015539496E+01
              0.808438352455590E+01
             -0.242620662145493E+02
              0.691479896648697E+02
             -0.810053603708965E+02
             -0.141504742273367E+02
             -0.174266973981184E+02
              0.182340629823448E+02
              0.215607914661069E+02
             -0.465286573705471E+02
             -0.202004325906714E+02
              0.442290086398178E+02
             -0.276628624442489E+02
              0.187608352902386E+02
              0.383644726806128E+02
             -0.322749110622544E+01
              0.114455433914054E+03
             -0.229868506965016E+02
             -0.341772173823084E+02
              0.576625569976710E+01
             -0.229219078937199E+02
              0.529254086993948E+02
             -0.339078076656684E+02
              0.107100195469712E+02
              0.641543496115510E+02
             -0.126573168982416E+02
              0.120587000117232E+03
              0.126244661197404E+03
             -0.651911328743713E+02
              0.592370761560202E+02
              0.167523159556896E+02
             -0.519551691024031E+02
              0.216392522551217E+02
              0.355661312224962E+02
              0.364350192753267E+02
              0.134416211826448E+01
              0.160673579081838E+02
              0.698365502901363E+02
             -0.247708052357542E+02
              0.181701113270005E+02
              0.740657153364920E+02
             -0.373473870569655E+02
             -0.130830483455508E+02
              0.510632637024980E+02
              0.298405063882692E+02
              0.782260105799245E+02
              0.224056293562655E+02
              0.632363806822138E+01
              0.281114944605380E+02
              0.384687623600137E+02
             -0.474006518837006E+02
              0.337225106567502E+01
              0.131242670646403E+02
              0.114189956499067E+02
              0.221443801118960E+02
             -0.576955198315969E+02
              0.366796809522817E+02
             -0.445045943927425E+02
             -0.348519765625122E+02
              0.179033504079852E+02
             -0.181485357092047E+02
              0.557136492620942E+02
             -0.255840014494039E+02
              0.267733957837171E+02
              0.369073169934883E+02
              0.831402675473230E+02
              0.576189666834460E+02
              0.463391589193810E+02
             -0.104925408277514E+02
             -0.396607619884679E+01
             -0.333073919080100E+02
              0.753379451684600E+02
              0.799576519219818E+02
              0.363174786609615E+02
             -0.193015343451587E+02
              0.513216256873412E+02
             -0.162439192116257E+02
              0.214873305374629E+02
              0.616748656700092E+02
              0.212643440784896E+01
             -0.104704895109209E+02
             -0.283218203185377E+02
             -0.514064314877269E+02
              0.948277073688332E+02
              0.441837262704555E+02
             -0.561255381736764E+02
             -0.970732398784233E+01
              0.250407496905357E+02
             -0.997839306982883E+01
              0.594175121563740E+02
              0.152450828103149E+02
              0.801622900311235E+02
              0.280882708706708E+02
             -0.264137857438251E+02
              0.249085990130955E+02
             -0.503775542955162E+01
             -0.323984829235811E+02
              0.133517130119101E+02
              0.205789825335498E+02
              0.935999615568285E+02
              0.799631892764678E+02
              0.552949946886129E+02
              0.732360620874833E+02
              0.804377686398024E+01
             -0.274417602046875E+02
              0.163590448041712E+02
             -0.368830289854041E+02
             -0.478326008859227E+02
             -0.565042621179928E+02
             -0.267607931355116E+02
             -0.110021042725932E+03
             -0.292813263341424E+02
             -0.840074064427548E+02
              0.210932904237163E+02
             -0.478364031291917E+02
              0.398674341104380E+02
             -0.944801329343601E+02
             -0.331014512285353E+02
              0.549095353769321E+02
              0.208227143123796E+02
             -0.833644479619763E+02
              0.632225117302837E+02
             -0.257783242507614E+02
              0.514116385710313E+02
             -0.242920705613878E+02
             -0.753694945358985E+02
              0.112352315631719E+02
             -0.613356907400076E+02
             -0.167843664770484E+02
             -0.152110529457700E+01
              0.419213035520148E+02
              0.127399295504955E+03
             -0.462822887389064E+02
             -0.363600753510996E+02
             -0.101100604991444E+01
             -0.130387624071062E+02
             -0.824967984094194E+02
             -0.598356731574590E+02
              0.518449397737662E+02
             -0.289290252174615E+02
              0.170299848662930E+02
             -0.490810858288316E+02
             -0.132593949332149E+02
             -0.438425453995430E+02
              0.567038734938158E+02
              0.150882847541543E+02
             -0.232443922095673E+02
             -0.127839528890617E+02
              0.672809776379742E+01
             -0.620673340162091E+01
              0.442663726228647E+02
             -0.252718182926591E+02
              0.286355011479452E+01
              0.340572218086423E+02
              0.171325722860061E+02
             -0.160910355843187E+02
              0.156722896897263E+03
              0.540268162349863E+02
              0.120468969319948E+01
              0.161667280038677E+02
             -0.616779750722624E+02
              0.316124314355651E+02
             -0.724254830892006E+02
             -0.253222881118037E+02
             -0.524542732672936E+02
             -0.220752178548055E+02
              0.571201858538494E+02
             -0.538798073430091E+02
              0.162037063378575E+02
             -0.411972072531159E+01
              0.386572419832387E+01
             -0.434696294105396E+02
             -0.479517669398834E+02
             -0.407554427120431E+01
             -0.425333870975945E+02
             -0.217552304379628E+02
             -0.439849841438346E+02
             -0.119328787762513E+02
             -0.359974167035738E+02
             -0.517901942231449E+02
              0.213114236407926E+02
             -0.209322793334393E+02
              0.188750692313452E+02
              0.976071924030872E+01
             -0.740449101848126E+02
             -0.549427649341698E+02
             -0.400192767888959E+02
              0.354893123180564E+02
              0.266676616528915E+01
             -0.628281697719542E+02
              0.587674249398172E+02
             -0.402440507847560E+02
              0.546991260987160E+02
             -0.290766382804897E+02
             -0.447334541857961E+02
              0.298836169419869E+02
             -0.659842947034454E+02
             -0.380748680163929E+02
              0.674316123633641E+02
              0.204749776328100E+02
             -0.362025325650724E+02
              0.491365030262118E+02
             -0.174595194961003E+02
             -0.324155235869829E+02
             -0.302620276519702E+02
             -0.502294175266186E+02
              0.250538464748504E+02
             -0.935799134870246E+02
             -0.842350667372214E+02
             -0.737711576214110E+01
             -0.307716123298659E+02
             -0.577699705622336E+02
              0.724222387655152E+02
              0.131967039476787E+03
             -0.361254861443131E+02
             -0.258226308844581E+01
             -0.638796172063926E+02
              0.652624033982587E+02
              0.171492636228135E+02
             -0.182740457790804E+02
             -0.411054707138372E+02
              0.149004098011658E+02
             -0.587778319565986E+02
             -0.198209589742263E+02
             -0.907060462656964E+02
              0.338171045243982E+02
              0.169058553064077E+02
              0.181845991238868E+01
             -0.713389770285755E+01
             -0.331421358854320E+02
             -0.764837078461272E+01
              0.125977707413449E+03
             -0.199404562468443E+02
             -0.439281978229606E+02
             -0.686233814548812E+02
              0.109817982190369E+02
             -0.343610934936621E+02
              0.596497064253222E+01
              0.262584006254500E+02
              0.102427626888294E+02
              0.279155303277963E+02
              0.120654725515177E+02
              0.631413412196282E+02
              0.317203966042784E+02
             -0.327897776037749E+02
              0.357809533930689E+02
              0.380518830767851E+02
              0.121211659368181E+02
              0.488195316511234E+02
             -0.226168902394578E+02
              0.767949492369322E+02
              0.173464190137578E+02
             -0.273297161995407E+02
             -0.725541806212361E+01
             -0.186992190050041E+02
              0.262127838084239E+02
             -0.234824200023731E+02
             -0.200283674156594E+00
             -0.853756257255873E+01
              0.812117029016506E+02
              0.501913326824171E+02
             -0.688550177887786E+02
             -0.481709650767863E+01
             -0.556718413082166E+02
             -0.159628215331649E+02
             -0.269039366322074E+02
              0.380321661511698E+01
              0.603308804356839E+00
             -0.258686309370818E+02
              0.822063464091974E+01
             -0.605883115486242E+01
             -0.128563067028405E+02
              0.861654867977600E+02
              0.182077965744154E+02
             -0.809871171519297E+02
             -0.459413898183560E+02
              0.948297167335832E+02
              0.278648844545315E+02
             -0.107111223631978E+02
              0.104903707489259E+03
             -0.194905000514370E+02
             -0.123199189813349E+02
             -0.544885473856141E+01
              0.107997836364069E+02
              0.273805598607292E+02
              0.781652570891956E+01
              0.306245062016537E+02
             -0.188076034823100E+02
             -0.305497515386872E+02
             -0.419269663024998E+02
             -0.478298445403378E+02
              0.465144739991634E+02
              0.127221472988899E+02
              0.388867843895949E+02
              0.134016321327233E+02
              0.858559884792863E+02
              0.157199624033712E+02
             -0.848581572158043E+02
             -0.335518683615239E+02
              0.133557698822838E+02
             -0.303684046725919E+02
              0.628724458392846E+02
             -0.890838641676305E+01
              0.149154553258349E+02
              0.499116355093992E+02
             -0.709899005800445E+02
              0.150194485024196E+03
              0.209388309706639E+02
              0.272131948011705E+02
              0.348944422353933E+02
              0.103759230344885E+02
             -0.154987182931046E+01
              0.359284356271278E+02
             -0.358489073403818E+02
              0.776252278893232E+02
              0.687478399790372E+02
             -0.407391200227682E+02
              0.150087034726312E+02
              0.672492859604826E+02
             -0.224467216100110E+02
              0.155226407893712E+02
              0.435804898049106E+02
              0.423264393954512E+02
             -0.787161468303985E+02
             -0.152757026500733E+02
             -0.356665347953374E+02
             -0.150032155189353E+01
             -0.770510941013735E+01
             -0.537892438583003E+01
             -0.180655605876857E+02
             -0.295138177840081E+02
              0.642985173981991E+01
              0.111736168215270E+02
              0.537361931111342E+02
             -0.391974125211198E+02
              0.376390039977468E+02
              0.440241356924023E+02
             -0.186437554336745E+02
              0.874327128085992E+02
             -0.700049126062642E+02
             -0.103509221002478E+03
             -0.664414472837110E+01
             -0.271042083224324E+01
              0.383756496655269E+01
              0.792222407295782E+02
             -0.106920141875664E+02
              0.418161562282214E+02
              0.445884126621727E+02
              0.386431584319706E+02
             -0.999366476833768E+01
              0.629037863055188E+02
             -0.134117898883439E+02
             -0.308842657233311E+02
             -0.480168229220841E+02
              0.593764126137069E+01
              0.370259968026830E+02
             -0.601901950554623E+01
              0.393760754549604E+02
             -0.174440192984969E+01
              0.656759568727255E+02
              0.187480517306394E+02
              0.100139778243994E+02
             -0.121598880159845E+02
              0.332972666444028E+02
              0.363822010806281E+02
              0.232928815453283E+02
             -0.521029744117214E+00
             -0.552461398864254E+02
              0.261728940256439E+02
              0.175862558930476E+02
              0.403415954342763E+02
              0.273060626541055E+02
              0.373719215417624E+02
             -0.607067871521400E+01
              0.252556320169264E+02
             -0.299657471867840E+02
             -0.198486961932383E+01
             -0.570769374191446E+02
             -0.308884803466633E+02
              0.380130891510567E+02
             -0.938388024754773E+02
              0.294963284302108E+02
              0.184497832076822E+02
              0.843145085027610E+02
             -0.300323220142334E+02
              0.330736783723152E+02
             -0.137984897877323E+02
             -0.465586762643173E+02
             -0.763285210388581E+02
             -0.534017598840806E+01
             -0.862989096326434E+02
              0.199679013187684E+02
             -0.248135727545899E+02
              0.306984407633141E+02
              0.238063761441334E+02
             -0.242324102402067E+02
             -0.266726476440754E+02
              0.392216057657590E+02
             -0.590486554911452E+02
             -0.117306256020340E+02
             -0.196600914396347E+02
              0.213891005047255E+02
             -0.884281531879157E+01
              0.362326808899238E+01
             -0.200953041090708E+02
              0.560439578216713E+02
             -0.442099951094691E+02
              0.788415365783123E+01
              0.587520545164778E+02
             -0.324771929625500E+02
              0.363289187982630E+01
             -0.877997940099260E+01
             -0.671177138174165E+02
             -0.483222404133334E+02
             -0.859138653667497E+01
              0.241919146363050E+02
              0.303649093423023E+02
              0.862075351377143E+01
             -0.419547788438399E+01
              0.152175277168758E+02
             -0.440903807820648E+02
              0.328535739114062E+01
             -0.532940225707113E+02
             -0.325777772280487E+02
              0.476429756901027E+02
             -0.296135922912479E+02
              0.624985769492828E+02
             -0.215789793224595E+02
              0.354482051795059E+02
              0.242578660898722E+02
             -0.646043905562731E+02
             -0.280954084332966E+02
              0.937266068252157E+01
             -0.373461940608291E+02
             -0.340873624578529E+02
             -0.833031720642541E+02
             -0.540951986460530E+02
             -0.511969366490520E+02
             -0.417065381525093E+02
             -0.997293696160511E+00
              0.100535244283324E+02
              0.111943302997500E+01
              0.154425125784164E+02
             -0.551209110843066E+02
              0.142472680973538E+02
              0.258251234856466E+02
             -0.668988607373443E+02
             -0.703735078490924E+02
             -0.432791745034225E+02
             -0.173434516880222E+02
              0.178712871235819E+02
              0.453108936444755E+01
             -0.426982270146134E+02
              0.366778349874838E+02
             -0.217171443341157E+02
              0.519102632925669E+02
             -0.890150860442495E+02
              0.600160600377862E+02
             -0.220709109174493E+01
             -0.370015836100378E+02
             -0.217017611010859E+02
              0.471108225761908E+01
              0.376334471559953E+02
             -0.758554519351865E+02
             -0.121060734422907E+02
             -0.217271633581836E+02
              0.512215601637890E+02
              0.867553745681227E+02
             -0.968740787297450E+02
              0.946860246415036E+02
              0.468599574358793E+02
             -0.727899008551467E+02
             -0.367393242319915E+02
              0.754692674538301E+02
              0.633762844809701E+02
             -0.182106849092276E+02
             -0.466135388487044E+01
              0.740431597750504E+01
              0.651884129331246E+02
             -0.510540341683328E+02
              0.158566669077832E+02
             -0.475662437270117E+01
              0.348280329912468E+02
             -0.749251961617823E+02
             -0.647356813112360E+01
             -0.351666542084126E+02
              0.462348208031429E+02
              0.469918491894948E+02
             -0.864929134627880E+02
             -0.488487204228667E+02
[...]
              0.284171099003132E+02
              0.142186105376971E+03
              0.243577573216514E+02
              0.123134568642554E+02
             -0.465539856498577E+02
             -0.639105415777741E+02
             -0.189415180774191E+02
              0.330821159378381E+02
             -0.429354762950447E+01
              0.191174823415210E+02
              0.337323100531597E+02
             -0.587848208693630E+02
              0.223307469973972E+02
              0.582395760993644E+02
              0.554207523003807E+02
             -0.422296308950951E+01
             -0.132335687218506E+01
             -0.995711836434529E+01
             -0.483469193552687E+02
             -0.677180935245781E+02
              0.787431582580148E+02
             -0.526352224621607E+01
             -0.589237132302146E+02
              0.176513289456324E+01
             -0.206330139326337E+02
              0.940977690573531E+02
             -0.217364509092869E+02
             -0.354845742460876E+02
              0.336681078251542E+02
             -0.146396654236712E+02
              0.391012318244972E+02
             -0.230992400696999E+01
              0.101328478988608E+03
              0.491546719679435E+02
             -0.502493593824842E+01
             -0.323213557415911E+02
              0.233317807320919E+02
             -0.530085706230301E+02
             -0.127887136190640E+02
              0.587617443111796E+02
             -0.288497779000774E+02
             -0.439438265154118E+02
             -0.224022523149102E+02
              0.520040321793905E+02
              0.124909224663765E+02
             -0.851096004878831E+02
              0.304963040264969E+02
              0.151958818474944E+02
              0.582482546913772E+01
             -0.514926260534573E+02
             -0.373760893759851E+01
              0.323976537507528E+02
              0.513818164484179E+02
              0.634909550195927E+02
              0.230190181929183E+02
              0.763009517077194E+00
             -0.499966970757979E+02
             -0.511348604561235E+02
             -0.749316560324021E+02
             -0.623175630721619E+01
              0.310094425259845E+02
             -0.378307384483915E+01
              0.548287524680816E+02
             -0.319026702598362E+02
              0.166793284928028E+02
             -0.103767369760221E+02
             -0.290502941979214E+02
              0.587555516422985E+02
              0.793187197765803E+01
              0.606405629788796E+02
              0.511648869559144E+01
              0.265352939876868E+02
             -0.193211646381714E+02
              0.587798509557765E+02
             -0.112404905438467E+02
             -0.101581862529054E+00
             -0.792462173449464E+02
             -0.128420918677674E+02
              0.720988059018726E+02
              0.674700171138709E+02
              0.252857132428706E+02
             -0.130946956654575E+02
              0.349028253551782E+01
             -0.174491502080978E+02
             -0.217383411637115E+01
              0.910719147695191E+02
              0.129240678913015E+01
             -0.191473869956122E+02
             -0.111034608055068E+03
             -0.553308336083796E+02
             -0.376257189534110E+02
             -0.660103238741938E+02
             -0.557403007609259E+02
             -0.684509071019494E+02
             -0.448492872153594E+02
             -0.411406465731732E+02
             -0.453439488852642E+02
              0.484850145491459E+02
             -0.294254207621202E+02
             -0.996878103594296E+02
              0.420122579922184E+02
             -0.261114968636520E+02
             -0.793051454717285E+02
              0.946736978376081E+02
             -0.220585913251726E+02
              0.228276187279899E+02
              0.456009913144565E+02
             -0.125076811264785E+01
              0.255413899217381E+02
              0.471553384388952E+01
              0.420634946819952E+00
             -0.151235173229628E+02
             -0.718168411416256E+02
              0.133600251736619E+02
             -0.129697058162000E+03
              0.626792439984730E+02
             -0.441874104984834E+02
             -0.163725279689730E+02
             -0.158833363470522E+02
              0.723953899299823E+01
             -0.227990073110796E+02
              0.297676991305200E+02
             -0.522356580712478E+02
              0.368018736338467E+02
              0.372518922589385E+02
              0.168153991430389E+02
              0.101044615814678E+02
              0.198498325226811E+02
              0.627307316209465E+01
              0.310902074796107E+02
             -0.798995748699528E+01
             -0.595203403692089E+02
              0.759893260044726E+01
             -0.153724019559866E+02
             -0.195674301361908E+01
              0.508386198009344E+02
             -0.829026113102373E+02
             -0.146469676130442E+01
              0.597408788426208E+00
              0.999220119336491E+01
              0.319178238014869E+02
             -0.123845439383641E+02
              0.838029778969005E+02
              0.488197250956227E+02
             -0.183489767195399E+02
             -0.954696728285609E+01
              0.110004908451114E+01
              0.771632973084171E+02
             -0.587419805679667E+02
             -0.106047959414087E+03
              0.310174041541763E+02
             -0.163636592322805E+02
             -0.140234455445680E+02
              0.131084419892329E+02
              0.770521731903743E+02
              0.465280430242178E+02
             -0.153784437550870E+02
             -0.504729588548033E+02
             -0.555134654028042E+01
              0.307151985750365E+02
             -0.112281595642291E+02
             -0.758064670252925E+02
             -0.277280732141324E+01
             -0.893012784376263E+02
             -0.477273949931304E+02
              0.771372205204800E+02
             -0.485209507247616E+02
             -0.638785345207244E+02
             -0.515819368822113E+02
             -0.351051261679073E+02
              0.342247214711898E+02
              0.824235939797602E+02
             -0.363797409384074E+01
              0.277279883553479E+02
             -0.184646556816914E+02
             -0.696024696683385E+02
              0.466554611705510E+02
             -0.446623965202788E+02
              0.322153738290165E+02
              0.376801766442373E+02
             -0.662564006254610E+01
              0.391055600129451E+02
              0.439235935561411E+02
              0.101071093377672E+03
             -0.155933289558525E+02
             -0.458308691838437E+02
             -0.614609881104300E+02
             -0.124634492935275E+02
             -0.234672645900440E+02
              0.103244526090656E+03
             -0.450406530499583E+02
              0.105520987389877E+02
              0.969460681373334E+01
             -0.264991460772438E+02
             -0.801795585167611E+02
             -0.701643858116489E+01
              0.982857973782027E+02
              0.948598813841076E+01
              0.810115693408557E+01
             -0.529172894187096E+02
             -0.606956777612625E+02
             -0.571653178239329E+01
              0.501582857263624E+02
             -0.222763511321504E+02
              0.108245133979055E+03
             -0.437543909984593E+02
              0.146964889068884E+02
             -0.224006905233530E+02
             -0.720306750584700E+02
              0.170571097734580E+01
             -0.503381717958487E+02
             -0.762754358740723E+02
              0.622305544176493E+01
              0.235833961647825E+01
              0.515628480177782E+02
              0.188171168121416E+02
             -0.324725580237478E+02
              0.230505836002417E+02
             -0.814077843277128E+02
             -0.522825195015653E+02
              0.904389648553034E+02
              0.142045934913146E+02
             -0.187783751984484E+02
             -0.352908450768490E+02
             -0.271013820261635E+01
             -0.592271593661565E+01
              0.833462769167385E+02
              0.419102978926000E+02
             -0.165912034782331E+02
             -0.121432444210935E+02
             -0.428574896372277E+02
             -0.200706983319507E+02
             -0.671500423381434E+02
              0.461291638015750E+02
              0.548913649906541E+01
              0.144887740790747E+02
              0.156967703943322E+02
             -0.621881711272223E+00
             -0.169244784363245E+02
             -0.299114626603924E+01
             -0.100781194963533E+03
             -0.230093091207572E+02
             -0.770728874298044E+01
             -0.949452069891183E+01
              0.547240670796547E+02
              0.625987860358193E+02
              0.165424007403320E+02
             -0.973265177568361E+02
              0.649193878934144E+02
             -0.215568896422935E+02
             -0.378058250764672E+02
             -0.866721471712063E+02
             -0.387316173374537E+02
              0.566853797224660E+02
              0.245579948357721E+02
              0.519247858431788E+01
              0.293451040303217E+02
             -0.566532713568454E+02
             -0.423987699473665E+02
              0.517202828001016E+02
              0.388343669771231E+02
              0.520004044480884E+02
             -0.112915401615160E+01
              0.689979025458354E+01
              0.570981182281598E+02
              0.965504551788356E+02
             -0.300376976125313E+02
              0.324284523752092E+02
             -0.120348565293758E+02
             -0.413437006368922E+02
             -0.315516883618644E+02
             -0.301538259491149E+02
             -0.131787434665302E+02
             -0.524623705201086E+02
             -0.217424465728983E+02
             -0.141527696299435E+03
              0.369856950811828E+02
              0.207659274317290E+02
             -0.396398509154277E+01
             -0.380975260206257E+02
             -0.204475998371978E+02
             -0.528638665201314E+02
              0.151266850037194E+02
              0.822222089532349E+02
             -0.252731018965085E+02
             -0.163593411339889E+02
              0.238746272209983E+02
             -0.491120293631937E+02
              0.882756559382274E+02
              0.154648983995094E+02
              0.226176624137850E+02
              0.491452288352961E+02
              0.314603945574612E+01
              0.543690119390776E+02
              0.143730039625423E+02
             -0.106237416286922E+02
              0.734246380726509E+01
              0.716358377927349E+00
              0.728685178416476E+02
              0.101463725657910E+02
              0.121421923424727E+02
             -0.130473156014531E+02
              0.132731310596378E+02
             -0.913842372228279E+02
             -0.326638456641862E+02
             -0.458920921814323E+02
              0.486289609421185E+02
             -0.292200475505530E+02
             -0.659750518047537E+02
              0.540258937010113E+02
             -0.122262937655193E+02
              0.441069234811321E+02
             -0.901117646103734E+02
              0.232114157759843E+02
              0.856513026532028E+01
              0.586731372763393E+01
             -0.838027445442475E+01
             -0.906784905831762E+01
              0.480940075736764E+02
              0.200229689509507E+01
             -0.476888012786206E+02
             -0.176923928800237E+02
              0.276869957277727E+02
             -0.118254676985686E+03
             -0.931913764940675E+02
              0.395395469331044E+01
              0.118364966920155E+02
             -0.415008878143674E+02
             -0.387151925232246E+01
              0.112370704876966E+03
              0.306890150467858E+02
             -0.573005630702638E+02
              0.927227802282528E+01
             -0.967770515239116E+01
              0.106219777472737E+02
             -0.338943282990974E+02
              0.196389406127417E+02
              0.285220293597012E+02
             -0.300552326523712E+01
              0.108504462157203E+03
             -0.140185879656990E+02
             -0.316773708975727E+02
              0.144133524266709E+02
              0.467816334917827E+02
             -0.356556105869585E+02
             -0.317354093484080E+01
              0.967724432524699E+02
             -0.463896657296027E+01
              0.623216806439155E+02
              0.135914614248514E+02
             -0.900700391322967E+01
             -0.305594552218807E+02
              0.567588421214515E+02
             -0.515980696492654E+02
             -0.220202196520563E+01
             -0.170718879484770E+02
             -0.406199119173716E+02
              0.185378652945890E+02
              0.240280680384788E+02
              0.115857001135871E+02
              0.723495968634438E+00
             -0.385839995285639E+02
              0.215511693098642E+02
             -0.674221285706145E+01
             -0.246883413082387E+02
             -0.211013172589085E+02
              0.203325684267563E+02
             -0.596995324558588E+01
             -0.350317338084962E+02
             -0.106961830164162E+03
              0.103320908543047E+02
              0.248791804677887E+02
             -0.388897003997244E+02
             -0.211771978845520E+02
              0.809507348308248E+02
              0.658560489463065E+01
              0.312363082013961E+02
              0.396059635564035E+01
              0.323125824869127E+02
              0.647672920185863E+01
             -0.374020981572612E+02
             -0.242021096486053E+01
              0.876796982716661E+01
              0.275011115680906E+02
              0.783603389555761E+02
              0.508825355079958E+02
              0.205849322308495E+00
              0.169762727027156E+02
              0.614990838636892E+02
              0.236790209490545E+02
             -0.754494322426885E+02
             -0.274564142420068E+02
              0.151130386581983E+02
              0.564821426515385E+01
              0.255665729854813E+02
             -0.549093640325571E+02
              0.897873747083200E+01
              0.387450712084334E+02
              0.499348433744158E+02
             -0.436017268701114E+02
             -0.685435099286667E+01
             -0.209360851174887E+01
             -0.134427511610984E+02
             -0.365937422645994E+02
             -0.215421173445388E+02
             -0.211638962259097E+01
              0.797689605002176E+01
              0.422641688567600E+02
             -0.309191818682726E+02
              0.828465348351218E+02
              0.328355282051180E+02
              0.220711028998903E+02
              0.334340803417310E+02
              0.323529816612711E+02
              0.347623222211488E+02
              0.538704923412362E+02
             -0.435247344518151E+02
              0.621411529257439E+02
             -0.112620627888767E+03
              0.308196513827458E+02
             -0.106818431926485E+03
              0.856904471937971E+02
              0.692956080077492E+02
             -0.110057525656381E+02
             -0.494423032871072E+02
             -0.430912482922349E+02
             -0.624855557745379E+02
             -0.630736829659402E+02
              0.553532535217338E+02
              0.406617991440238E+02
              0.237442462557219E+02
              0.374151520862257E+02
              0.404824980069350E+02
             -0.383345893996732E+02
             -0.198216931899629E+02
              0.588016621526930E+02
             -0.116493495413156E+02
              0.553336174488001E+02
              0.701797707300784E+02
             -0.557539879566170E+01
             -0.708544748031987E+02
             -0.838554579840888E+00
             -0.248421218442972E+01
             -0.885725108719259E+01
             -0.180290783055989E+01
             -0.654655177951490E+02
             -0.210435561759168E+02
              0.545226698480361E+01
              0.907136015714161E+01
              0.470478568104052E+02
             -0.399122833954542E+02
              0.658302560753040E+02
             -0.426343872648664E+02
              0.211480973479282E+02
              0.351618719272729E+02
 
 BEEF-vdW xc energy contributions
           1 :   -784.755806977705     
           2 :    720.648158647778     
           3 :   -609.737860689720     
           4 :    479.302479108638     
           5 :   -356.980286031727     
           6 :    262.637848181840     
           7 :   -203.893958641445     
           8 :    176.131807425515     
           9 :   -166.567372653849     
          10 :    160.455277274824     
          11 :   -146.901030986946     
          12 :    122.100199158399     
          13 :   -89.1732158457044     
          14 :    55.2278696854237     
          15 :   -27.3396298333980     
          16 :    9.27020766372812     
          17 :  -0.191149738674653     
          18 :   -4.33903935151159     
          19 :    9.86360801205456     
          20 :   -20.3033148099150     
          21 :    36.2674972427814     
          22 :   -55.0651835510116     
          23 :    72.2420638110342     
          24 :   -83.8039351095342     
          25 :    88.0360250395878     
          26 :   -86.1174949710929     
          27 :    81.3444832207052     
          28 :   -77.4337706252825     
          29 :    76.7587966210949     
          30 :   -79.3522321339013     
          31 :   -86.1893000587989     
          32 :   -66.0033860548608     

     Writing output data file ./pwscf.save/
 
     init_run     :    327.60s CPU    332.22s WALL (       1 calls)
     electrons    :  13603.34s CPU  13744.93s WALL (       1 calls)
     forces       :    102.05s CPU    103.44s WALL (       1 calls)

     Called by init_run:
     wfcinit      :    279.51s CPU    283.15s WALL (       1 calls)
     potinit      :     45.05s CPU     45.36s WALL (       1 calls)
     hinit0       :      1.17s CPU      1.20s WALL (       1 calls)

     Called by electrons:
     c_bands      :  11439.47s CPU  11549.85s WALL (      21 calls)
     sum_band     :   1519.91s CPU   1533.69s WALL (      21 calls)
     v_of_rho     :    112.28s CPU    116.94s WALL (      21 calls)
     newd         :     31.47s CPU     44.24s WALL (      21 calls)
     PAW_pot      :    147.35s CPU    147.36s WALL (      21 calls)
     mix_rho      :    398.64s CPU    399.45s WALL (      21 calls)
     vdW_kernel   :     33.89s CPU     33.89s WALL (       1 calls)

     Called by c_bands:
     init_us_2    :     84.72s CPU     85.07s WALL (     572 calls)
     cegterg      :  10564.37s CPU  10674.29s WALL (     273 calls)

     Called by *egterg:
     cdiaghg      :    121.23s CPU    121.31s WALL (    1871 calls)
     h_psi        :   6526.68s CPU   6564.81s WALL (    1897 calls)
     s_psi        :   1191.37s CPU   1191.41s WALL (    1897 calls)
     g_psi        :     17.24s CPU     17.29s WALL (    1611 calls)

     Called by h_psi:
     h_psi:calbec :   1107.69s CPU   1107.90s WALL (    1897 calls)
     vloc_psi     :   4199.52s CPU   4200.82s WALL (    1897 calls)
     add_vuspsi   :   1191.87s CPU   1191.94s WALL (    1897 calls)

     General routines
     calbec       :   1608.84s CPU   1609.13s WALL (    2222 calls)
     fft          :     49.83s CPU     49.85s WALL (    3281 calls)
     ffts         :    129.02s CPU    129.04s WALL (    9378 calls)
     fftw         :   4375.04s CPU   4375.73s WALL (  351077 calls)
 
     Parallel routines
 
     PWSCF        :      3h55m CPU      3h58m WALL

 
   This run was terminated on:  18:51:24  20May2022            

=------------------------------------------------------------------------------=
   JOB DONE.
=------------------------------------------------------------------------------=
