
     Program PWSCF v.6.7MaX starts on 20May2022 at 14:53:55 

     This program is part of the open-source Quantum ESPRESSO suite
     for quantum simulation of materials; please cite
         "P. Giannozzi et al., J. Phys.:Condens. Matter 21 395502 (2009);
         "P. Giannozzi et al., J. Phys.:Condens. Matter 29 465901 (2017);
          URL http://www.quantum-espresso.org", 
     in publications or presentations arising from this work. More details at
     http://www.quantum-espresso.org/quote

     Parallel version (MPI), running on     1 processors

     MPI processes distributed on     1 nodes
     Reading input from c3h7-ensemble.in
Warning: card &CELL ignored
Warning: card / ignored

     Current dimensions of program PWSCF are:
     Max number of different atomic species (ntypx) = 10
     Max number of k-points (npk) =  40000
     Max angular momentum in pseudopotentials (lmaxx) =  3
     file Pt.pbe-n-kjpaw_psl.1.0.0.UPF: wavefunction(s)  6S 5D renormalized
     file C.pbe-n-kjpaw_psl.1.0.0.UPF: wavefunction(s)  2S 2P renormalized
     file H.pbe-kjpaw_psl.1.0.0.UPF: wavefunction(s)  1S renormalized

     **************************************************************************
     Initializing libbeef V0.1.2 with the BEEF-vdW functional.
     Citation: Wellendorff et al., PRB 85, 235149 (2012).
     **************************************************************************


     IMPORTANT: XC functional enforced from input :
     Exchange-correlation= BEEF-VDW
                           (   1   4  43  14   2   0   0)
     Any further DFT definition will be discarded
     Please, verify this is what you really want


     Subspace diagonalization in iterative solution of the eigenvalue problem:
     a serial algorithm will be used

 
     G-vector sticks info
     --------------------
     sticks:   dense  smooth     PW     G-vecs:    dense   smooth      PW
     Sum        4267    4267   1159               742491   742491  104663
 


     bravais-lattice index     =            0
     lattice parameter (alat)  =      16.0349  a.u.
     unit-cell volume          =   11819.4441 (a.u.)^3
     number of atoms/cell      =           46
     number of atomic types    =            3
     number of electrons       =       379.00
     number of Kohn-Sham states=          228
     kinetic-energy cutoff     =      60.0000  Ry
     charge density cutoff     =     240.0000  Ry
     scf convergence threshold =      1.0E-06
     mixing beta               =       0.7000
     number of iterations used =            8  local-TF  mixing
     Exchange-correlation= BEEF-VDW
                           (   1   4  43  14   2   0   0)

     celldm(1)=  16.034858  celldm(2)=   0.000000  celldm(3)=   0.000000
     celldm(4)=   0.000000  celldm(5)=   0.000000  celldm(6)=   0.000000

     crystal axes: (cart. coord. in units of alat)
               a(1) = (   1.000000   0.000000   0.000000 )  
               a(2) = (   0.500000   0.866025   0.000000 )  
               a(3) = (   0.000000   0.000000   3.310328 )  

     reciprocal axes: (cart. coord. in units 2 pi/alat)
               b(1) = (  1.000000 -0.577350  0.000000 )  
               b(2) = (  0.000000  1.154701  0.000000 )  
               b(3) = (  0.000000  0.000000  0.302085 )  


     PseudoPot. # 1 for Pt read from file:
     /users/bkreitz1/quantum-espresso/potentials/Pt.pbe-n-kjpaw_psl.1.0.0.UPF
     MD5 check sum: 04dc8a03c51ece93fc7b5889c2958091
     Pseudo is Projector augmented-wave + core cor, Zval = 10.0
     Generated using 'atomic' code by A. Dal Corso  v.6.7MaX
     Shape of augmentation charge: PSQ
     Using radial grid of 1277 points,  6 beta functions with: 
                l(1) =   0
                l(2) =   0
                l(3) =   1
                l(4) =   1
                l(5) =   2
                l(6) =   2
     Q(r) pseudized with 0 coefficients 


     PseudoPot. # 2 for C  read from file:
     /users/bkreitz1/quantum-espresso/potentials/C.pbe-n-kjpaw_psl.1.0.0.UPF
     MD5 check sum: a169b0ebad56f5ec0d79c4633f80bf22
     Pseudo is Projector augmented-wave + core cor, Zval =  4.0
     Generated using 'atomic' code by A. Dal Corso  v.6.7MaX
     Shape of augmentation charge: PSQ
     Using radial grid of 1073 points,  4 beta functions with: 
                l(1) =   0
                l(2) =   0
                l(3) =   1
                l(4) =   1
     Q(r) pseudized with 0 coefficients 


     PseudoPot. # 3 for H  read from file:
     /users/bkreitz1/quantum-espresso/potentials/H.pbe-kjpaw_psl.1.0.0.UPF
     MD5 check sum: ae98473e6dc62675f0d0baffdab24f65
     Pseudo is Projector augmented-wave, Zval =  1.0
     Generated using 'atomic' code by A. Dal Corso  v.6.7MaX
     Shape of augmentation charge: PSQ
     Using radial grid of  929 points,  2 beta functions with: 
                l(1) =   0
                l(2) =   0
     Q(r) pseudized with 0 coefficients 


     atomic species   valence    mass     pseudopotential
        Pt            10.00   195.08400     Pt( 1.00)
        C              4.00    12.01100     C ( 1.00)
        H              1.00     1.00800     H ( 1.00)

     No symmetry found



   Cartesian axes

     site n.     atom                  positions (alat units)
         1           Pt  tau(   1) = (   0.0000000   0.0000000   1.0017346  )
         2           Pt  tau(   2) = (   0.3333333   0.0000000   1.0017346  )
         3           Pt  tau(   3) = (   0.6666667   0.0000000   1.0017346  )
         4           Pt  tau(   4) = (   0.1666667   0.2886751   1.0017346  )
         5           Pt  tau(   5) = (   0.5000000   0.2886751   1.0017346  )
         6           Pt  tau(   6) = (   0.8333333   0.2886751   1.0017346  )
         7           Pt  tau(   7) = (   0.3333333   0.5773503   1.0017346  )
         8           Pt  tau(   8) = (   0.6666667   0.5773503   1.0017346  )
         9           Pt  tau(   9) = (   1.0000000   0.5773503   1.0017346  )
        10           Pt  tau(  10) = (   0.1666667   0.0962250   1.2739001  )
        11           Pt  tau(  11) = (   0.5000000   0.0962250   1.2739001  )
        12           Pt  tau(  12) = (   0.8333333   0.0962250   1.2739001  )
        13           Pt  tau(  13) = (   0.3333333   0.3849002   1.2739001  )
        14           Pt  tau(  14) = (   0.6666667   0.3849002   1.2739001  )
        15           Pt  tau(  15) = (   1.0000000   0.3849002   1.2739001  )
        16           Pt  tau(  16) = (   0.5000000   0.6735753   1.2739001  )
        17           Pt  tau(  17) = (   0.8333333   0.6735753   1.2739001  )
        18           Pt  tau(  18) = (   1.1666667   0.6735753   1.2739001  )
        19           Pt  tau(  19) = (  -0.0001007   0.1921185   1.5414561  )
        20           Pt  tau(  20) = (   0.3352585   0.1932969   1.5463374  )
        21           Pt  tau(  21) = (   0.6644481   0.1933417   1.5471290  )
        22           Pt  tau(  22) = (   0.1667950   0.4805365   1.5423401  )
        23           Pt  tau(  23) = (   0.4997245   0.4780669   1.5468753  )
        24           Pt  tau(  24) = (   0.8332563   0.4805581   1.5421966  )
        25           Pt  tau(  25) = (   0.3330821   0.7691503   1.5417004  )
        26           Pt  tau(  26) = (   0.6665236   0.7691799   1.5410709  )
        27           Pt  tau(  27) = (   1.0000641   0.7696080   1.5422563  )
        28           Pt  tau(  28) = (  -0.0003746  -0.0007914   1.8156535  )
        29           Pt  tau(  29) = (   0.3327993  -0.0012191   1.8147902  )
        30           Pt  tau(  30) = (   0.6671701  -0.0014065   1.8160464  )
        31           Pt  tau(  31) = (   0.1662295   0.2874244   1.8157849  )
        32           Pt  tau(  32) = (   0.5001111   0.2875014   1.8469618  )
        33           Pt  tau(  33) = (   0.8335564   0.2871333   1.8160520  )
        34           Pt  tau(  34) = (   0.3331312   0.5764429   1.8163499  )
        35           Pt  tau(  35) = (   0.6665310   0.5770100   1.8143000  )
        36           Pt  tau(  36) = (   1.0001896   0.5762090   1.8159602  )
        37           C   tau(  37) = (   0.4864694   0.2664071   2.0945080  )
        38           C   tau(  38) = (   0.6200738   0.3359963   2.1918239  )
        39           C   tau(  39) = (   0.6164033   0.5146651   2.2143222  )
        40           H   tau(  40) = (   0.4790002   0.1389833   2.1108557  )
        41           H   tau(  41) = (   0.3729234   0.3194675   2.1243332  )
        42           H   tau(  42) = (   0.7346880   0.2984631   2.1455585  )
        43           H   tau(  43) = (   0.6100541   0.2800376   2.3085938  )
        44           H   tau(  44) = (   0.7103846   0.5529565   2.2935788  )
        45           H   tau(  45) = (   0.5035608   0.5532941   2.2633208  )
        46           H   tau(  46) = (   0.6330225   0.5770625   2.1033246  )

     number of k points=    13  Marzari-Vanderbilt smearing, width (Ry)=  0.0200
                       cart. coord. in units 2pi/alat
        k(    1) = (   0.0000000   0.0000000   0.0000000), wk =   0.0800000
        k(    2) = (   0.0000000   0.2309401   0.0000000), wk =   0.1600000
        k(    3) = (   0.0000000   0.4618802   0.0000000), wk =   0.1600000
        k(    4) = (   0.2000000  -0.1154701   0.0000000), wk =   0.1600000
        k(    5) = (   0.2000000   0.1154701   0.0000000), wk =   0.1600000
        k(    6) = (   0.2000000   0.3464102   0.0000000), wk =   0.1600000
        k(    7) = (   0.2000000  -0.5773503   0.0000000), wk =   0.1600000
        k(    8) = (   0.2000000  -0.3464102   0.0000000), wk =   0.1600000
        k(    9) = (   0.4000000  -0.2309401   0.0000000), wk =   0.1600000
        k(   10) = (   0.4000000  -0.0000000   0.0000000), wk =   0.1600000
        k(   11) = (   0.4000000   0.2309401   0.0000000), wk =   0.1600000
        k(   12) = (   0.4000000  -0.6928203   0.0000000), wk =   0.1600000
        k(   13) = (   0.4000000  -0.4618802   0.0000000), wk =   0.1600000

     Dense  grid:   742491 G-vectors     FFT dimensions: (  80,  80, 270)

     Estimated max dynamical RAM per process >       9.06 GB

     Check: negative core charge=   -0.000002

     Initial potential from superposition of free atoms

     starting charge  378.99370, renormalised to  379.00000

     negative rho (up, down):  1.088E-02 0.000E+00


     %%%%%%%%%%%%%%%%%%%%%%%%%%%%%%%%%%%%%%%%%%%%%%%%%%%%%%%%%%%%%%%%%%%%%%%%
     %                                                                      %
     % You are using vdW-DF, which was implemented by the Thonhauser group. %
     % Please cite the following two papers that made this development      %
     % possible and the two reviews that describe the various versions:     %
     %                                                                      %
     %   T. Thonhauser et al., PRL 115, 136402 (2015).                      %
     %   T. Thonhauser et al., PRB 76, 125112 (2007).                       %
     %   K. Berland et al., Rep. Prog. Phys. 78, 066501 (2015).             %
     %   D.C. Langreth et al., J. Phys.: Condens. Matter 21, 084203 (2009). %
     %                                                                      %
     %                                                                      %
     % If you are calculating the stress with vdW-DF, please also cite:     %
     %                                                                      %
     %   R. Sabatini et al., J. Phys.: Condens. Matter 24, 424209 (2012).   %
     %                                                                      %
     %%%%%%%%%%%%%%%%%%%%%%%%%%%%%%%%%%%%%%%%%%%%%%%%%%%%%%%%%%%%%%%%%%%%%%%%


     Starting wfcs are  343 randomized atomic wfcs
     Checking if some PAW data can be deallocated... 

     total cpu time spent up to now is      390.2 secs

     Self-consistent Calculation

     iteration #  1     ecut=    60.00 Ry     beta= 0.70
     Davidson diagonalization with overlap
     ethr =  1.00E-02,  avg # of iterations =  2.8

     Threshold (ethr) on eigenvalues was too large:
     Diagonalizing with lowered threshold

     Davidson diagonalization with overlap
     ethr =  8.36E-04,  avg # of iterations =  2.6

     negative rho (up, down):  1.060E-02 0.000E+00

     total cpu time spent up to now is     1874.7 secs

     total energy              =  -27819.70572322 Ry
     estimated scf accuracy    <       3.41440427 Ry

     iteration #  2     ecut=    60.00 Ry     beta= 0.70
     Davidson diagonalization with overlap
     ethr =  9.01E-04,  avg # of iterations =  3.3

     negative rho (up, down):  8.515E-03 0.000E+00

     total cpu time spent up to now is     2564.2 secs

     total energy              =  -27819.77927205 Ry
     estimated scf accuracy    <       1.36509056 Ry

     iteration #  3     ecut=    60.00 Ry     beta= 0.70
     Davidson diagonalization with overlap
     ethr =  3.60E-04,  avg # of iterations =  5.9

     negative rho (up, down):  4.759E-03 0.000E+00

     total cpu time spent up to now is     3279.7 secs

     total energy              =  -27819.78598943 Ry
     estimated scf accuracy    <       0.57352270 Ry

     iteration #  4     ecut=    60.00 Ry     beta= 0.70
     Davidson diagonalization with overlap
     c_bands:  1 eigenvalues not converged
     c_bands:  1 eigenvalues not converged
     ethr =  1.51E-04,  avg # of iterations = 12.1

     negative rho (up, down):  3.766E-03 0.000E+00

     total cpu time spent up to now is     4131.7 secs

     total energy              =  -27819.85598579 Ry
     estimated scf accuracy    <       0.32129494 Ry

     iteration #  5     ecut=    60.00 Ry     beta= 0.70
     Davidson diagonalization with overlap
     ethr =  8.48E-05,  avg # of iterations =  3.7

     negative rho (up, down):  2.053E-03 0.000E+00

     total cpu time spent up to now is     4819.7 secs

     total energy              =  -27819.85443031 Ry
     estimated scf accuracy    <       0.06153484 Ry

     iteration #  6     ecut=    60.00 Ry     beta= 0.70
     Davidson diagonalization with overlap
     c_bands:  1 eigenvalues not converged
     c_bands:  1 eigenvalues not converged
     ethr =  1.62E-05,  avg # of iterations = 13.2

     negative rho (up, down):  1.776E-03 0.000E+00

     total cpu time spent up to now is     5900.2 secs

     total energy              =  -27819.86645837 Ry
     estimated scf accuracy    <       0.06835521 Ry

     iteration #  7     ecut=    60.00 Ry     beta= 0.70
     Davidson diagonalization with overlap
     ethr =  1.62E-05,  avg # of iterations =  6.0

     negative rho (up, down):  2.489E-03 0.000E+00

     total cpu time spent up to now is     6595.6 secs

     total energy              =  -27819.86575190 Ry
     estimated scf accuracy    <       0.04701028 Ry

     iteration #  8     ecut=    60.00 Ry     beta= 0.70
     Davidson diagonalization with overlap
     c_bands:  2 eigenvalues not converged
     c_bands:  2 eigenvalues not converged
     c_bands:  2 eigenvalues not converged
     ethr =  1.24E-05,  avg # of iterations = 13.1

     negative rho (up, down):  8.482E-03 0.000E+00

     total cpu time spent up to now is     7390.6 secs

     total energy              =  -27819.86642718 Ry
     estimated scf accuracy    <       0.02606806 Ry

     iteration #  9     ecut=    60.00 Ry     beta= 0.70
     Davidson diagonalization with overlap
     ethr =  6.88E-06,  avg # of iterations = 10.5

     negative rho (up, down):  1.371E-02 0.000E+00

     total cpu time spent up to now is     8131.8 secs

     total energy              =  -27819.86690826 Ry
     estimated scf accuracy    <       0.00527055 Ry

     iteration # 10     ecut=    60.00 Ry     beta= 0.70
     Davidson diagonalization with overlap
     c_bands:  1 eigenvalues not converged
     c_bands:  1 eigenvalues not converged
     c_bands:  1 eigenvalues not converged
     c_bands:  1 eigenvalues not converged
     ethr =  1.39E-06,  avg # of iterations = 12.7

     negative rho (up, down):  1.438E-02 0.000E+00

     total cpu time spent up to now is     8941.5 secs

     total energy              =  -27819.86721260 Ry
     estimated scf accuracy    <       0.00150456 Ry

     iteration # 11     ecut=    60.00 Ry     beta= 0.70
     Davidson diagonalization with overlap
     ethr =  3.97E-07,  avg # of iterations =  4.0

     negative rho (up, down):  1.269E-02 0.000E+00

     total cpu time spent up to now is     9672.5 secs

     total energy              =  -27819.86736880 Ry
     estimated scf accuracy    <       0.00100658 Ry

     iteration # 12     ecut=    60.00 Ry     beta= 0.70
     Davidson diagonalization with overlap
     ethr =  2.66E-07,  avg # of iterations =  3.0

     negative rho (up, down):  1.098E-02 0.000E+00

     total cpu time spent up to now is    10359.0 secs

     total energy              =  -27819.86742647 Ry
     estimated scf accuracy    <       0.00055062 Ry

     iteration # 13     ecut=    60.00 Ry     beta= 0.70
     Davidson diagonalization with overlap
     ethr =  1.45E-07,  avg # of iterations =  4.3

     negative rho (up, down):  1.133E-02 0.000E+00

     total cpu time spent up to now is    11061.3 secs

     total energy              =  -27819.86746469 Ry
     estimated scf accuracy    <       0.00026750 Ry

     iteration # 14     ecut=    60.00 Ry     beta= 0.70
     Davidson diagonalization with overlap
     ethr =  7.06E-08,  avg # of iterations =  2.0

     negative rho (up, down):  1.038E-02 0.000E+00

     total cpu time spent up to now is    11770.9 secs

     total energy              =  -27819.86749008 Ry
     estimated scf accuracy    <       0.00007543 Ry

     iteration # 15     ecut=    60.00 Ry     beta= 0.70
     Davidson diagonalization with overlap
     ethr =  1.99E-08,  avg # of iterations =  4.0

     negative rho (up, down):  1.048E-02 0.000E+00

     total cpu time spent up to now is    12606.7 secs

     total energy              =  -27819.86750804 Ry
     estimated scf accuracy    <       0.00003057 Ry

     iteration # 16     ecut=    60.00 Ry     beta= 0.70
     Davidson diagonalization with overlap
     ethr =  8.07E-09,  avg # of iterations =  2.0

     negative rho (up, down):  1.082E-02 0.000E+00

     total cpu time spent up to now is    13306.5 secs

     total energy              =  -27819.86750785 Ry
     estimated scf accuracy    <       0.00001623 Ry

     iteration # 17     ecut=    60.00 Ry     beta= 0.70
     Davidson diagonalization with overlap
     ethr =  4.28E-09,  avg # of iterations =  2.2

     negative rho (up, down):  1.104E-02 0.000E+00

     total cpu time spent up to now is    14012.5 secs

     total energy              =  -27819.86750872 Ry
     estimated scf accuracy    <       0.00000957 Ry

     iteration # 18     ecut=    60.00 Ry     beta= 0.70
     Davidson diagonalization with overlap
     ethr =  2.52E-09,  avg # of iterations =  2.0

     negative rho (up, down):  1.146E-02 0.000E+00

     total cpu time spent up to now is    14700.8 secs

     total energy              =  -27819.86750745 Ry
     estimated scf accuracy    <       0.00001019 Ry

     iteration # 19     ecut=    60.00 Ry     beta= 0.70
     Davidson diagonalization with overlap
     ethr =  2.52E-09,  avg # of iterations =  1.0

     negative rho (up, down):  1.187E-02 0.000E+00

     total cpu time spent up to now is    15317.2 secs

     total energy              =  -27819.86750645 Ry
     estimated scf accuracy    <       0.00000458 Ry

     iteration # 20     ecut=    60.00 Ry     beta= 0.70
     Davidson diagonalization with overlap
     ethr =  1.21E-09,  avg # of iterations =  2.0

     negative rho (up, down):  1.223E-02 0.000E+00

     total cpu time spent up to now is    16012.0 secs

     total energy              =  -27819.86750565 Ry
     estimated scf accuracy    <       0.00000189 Ry

     iteration # 21     ecut=    60.00 Ry     beta= 0.70
     Davidson diagonalization with overlap
     ethr =  4.99E-10,  avg # of iterations =  2.2

     negative rho (up, down):  1.243E-02 0.000E+00

     total cpu time spent up to now is    16758.4 secs

     End of self-consistent calculation

          k = 0.0000 0.0000 0.0000 ( 92807 PWs)   bands (ev):

   -12.9342 -10.3284  -7.8836  -7.0705  -5.7865  -4.7886  -4.6770  -4.6756
    -4.6691  -4.6598  -4.6467  -4.6315  -4.6259  -4.5113  -4.4248  -4.1129
    -4.1089  -4.1059  -4.0895  -4.0874  -4.0827  -3.6481  -3.6424  -3.6362
    -3.6303  -3.6199  -3.6057  -3.5168  -3.4278  -3.4210  -3.4124  -3.4079
    -3.3995  -3.3620  -3.1944  -3.1891  -3.1862  -3.1784  -3.1778  -3.1744
    -3.1696  -3.1684  -3.1464  -3.1279  -3.1206  -3.1188  -2.6554  -2.5719
    -2.5710  -2.5438  -2.5400  -2.5225  -2.4871  -2.4848  -2.4781  -2.4737
    -2.4156  -2.3441  -2.3179  -2.2647  -2.1278  -2.0660  -1.8935  -1.8436
    -1.7528  -1.7480  -1.7337  -1.6924  -1.6863  -1.6791  -1.5846  -1.5806
    -1.5753  -1.5693  -1.5620  -1.5397  -1.5325  -1.5205  -1.5183  -1.5105
    -1.4946  -1.4921  -1.4788  -1.4594  -1.4541  -1.3876  -1.3398  -1.3350
    -1.3289  -1.3222  -1.3009  -1.1786  -1.1744  -1.1688  -1.1390  -1.1219
    -1.1173  -1.0756  -1.0686  -1.0297  -1.0132  -0.9693  -0.9689  -0.9107
    -0.9074  -0.9072  -0.8682  -0.8680  -0.8124  -0.8031  -0.7271  -0.7139
    -0.6985  -0.6749  -0.6530  -0.6150  -0.2955  -0.2644  -0.2509  -0.2272
    -0.2139  -0.2123  -0.2051  -0.1825  -0.1452  -0.1433  -0.1232  -0.0536
    -0.0469  -0.0428  -0.0396   0.0697   0.0923   0.0946   0.1553   0.1662
     0.2249   0.2623   0.2700   0.2737   0.2808   0.2834   0.2901   0.5125
     0.5145   0.5179   0.5322   0.5377   0.5516   0.5920   0.5962   0.7741
     0.7790   0.7838   0.7959   0.7985   0.8560   0.9407   0.9451   0.9527
     0.9626   0.9654   0.9792   0.9861   0.9947   0.9996   1.0019   1.0203
     1.0794   1.1191   1.1209   1.1232   1.1373   1.1460   1.1463   1.1754
     1.2241   1.2268   1.2301   1.2331   1.2538   1.2619   1.2730   1.2748
     1.3416   1.3426   1.3620   1.3677   1.3700   1.3711   1.3883   1.4643
     1.4658   1.4673   1.4734   1.4945   1.4953   1.6708   1.6764   1.7663
     1.7689   1.8034   1.8073   1.8090   1.8194   2.1483   2.6271   2.6791
     2.6849   2.6916   2.6947   2.7368   3.9836   4.9486   4.9689   4.9935
     5.0171   5.0261   5.6732   5.9251   6.4714   6.5587   6.5831   6.6009
     6.6040   6.6236   6.6290   6.8754

          k = 0.0000 0.2309 0.0000 ( 92762 PWs)   bands (ev):

   -12.9341 -10.3288  -7.8820  -6.9245  -5.6438  -5.1705  -4.7869  -4.7658
    -4.6864  -4.5329  -4.4960  -4.4676  -4.4243  -4.4103  -4.3894  -4.2117
    -4.1869  -4.0423  -4.0374  -4.0178  -4.0054  -3.7341  -3.6193  -3.6053
    -3.6017  -3.5832  -3.5162  -3.5038  -3.4859  -3.4525  -3.4435  -3.4298
    -3.4053  -3.3526  -3.3227  -3.3048  -3.2164  -3.2067  -3.1992  -3.1648
    -3.1562  -2.9946  -2.9780  -2.9748  -2.9445  -2.9324  -2.7326  -2.6959
    -2.6753  -2.6217  -2.6095  -2.5907  -2.5677  -2.4731  -2.4030  -2.3712
    -2.3234  -2.3104  -2.2790  -2.2555  -2.1691  -2.0799  -2.0171  -1.9549
    -1.9306  -1.8967  -1.8644  -1.8315  -1.8197  -1.7734  -1.7511  -1.7293
    -1.7145  -1.6939  -1.6768  -1.6420  -1.5883  -1.5580  -1.5465  -1.5345
    -1.4762  -1.4684  -1.4566  -1.4140  -1.3900  -1.3735  -1.3451  -1.2818
    -1.2718  -1.2695  -1.2641  -1.1990  -1.1797  -1.1664  -1.1620  -1.1449
    -1.1074  -1.0953  -1.0465  -1.0262  -1.0008  -0.9884  -0.9821  -0.9474
    -0.9442  -0.9131  -0.8934  -0.8584  -0.8321  -0.7495  -0.7312  -0.7255
    -0.7112  -0.7017  -0.6847  -0.6454  -0.6329  -0.6149  -0.6092  -0.5429
    -0.4922  -0.3994  -0.2918  -0.2779  -0.2409  -0.2100  -0.1788  -0.1651
    -0.1539  -0.1487  -0.0806  -0.0023   0.0185   0.0732   0.1339   0.1496
     0.1958   0.2049   0.2324   0.2585   0.2983   0.3190   0.3359   0.3773
     0.4060   0.4135   0.4260   0.4402   0.5962   0.6039   0.6352   0.6494
     0.6739   0.6905   0.7115   0.7634   0.7891   0.8162   0.8179   0.8527
     0.8912   0.9032   0.9134   0.9364   1.0153   1.0198   1.0464   1.1070
     1.1384   1.1535   1.1773   1.2027   1.2118   1.2310   1.2484   1.3016
     1.3340   1.3405   1.3865   1.4034   1.4050   1.4438   1.4487   1.4521
     1.4589   1.4626   1.5145   1.5252   1.6527   1.6590   1.6983   1.7144
     1.7172   1.7310   1.7627   1.7939   1.7946   1.8137   1.8972   1.9121
     1.9370   1.9627   2.0976   2.1005   2.1197   2.1560   2.4219   2.5562
     2.9746   3.2789   3.2946   3.4184   3.9609   4.4197   4.6947   5.0862
     5.4277   5.4311   5.5421   5.7184   5.8570   6.0559   6.3800   6.4057
     6.5757   6.6201   6.7922   6.8008

          k = 0.0000 0.4619 0.0000 ( 92788 PWs)   bands (ev):

   -12.9339 -10.3296  -7.8797  -6.5035  -5.8695  -5.2458  -4.8181  -4.7991
    -4.7297  -4.5778  -4.4606  -4.4011  -4.2762  -4.1562  -4.1167  -4.0740
    -4.0715  -3.9157  -3.8927  -3.8647  -3.8481  -3.8444  -3.7382  -3.6933
    -3.6881  -3.6454  -3.6389  -3.6055  -3.5790  -3.5228  -3.5027  -3.4993
    -3.4092  -3.2447  -3.2376  -3.2292  -3.2281  -3.2080  -3.1990  -2.9927
    -2.9877  -2.9533  -2.9498  -2.9423  -2.9121  -2.7664  -2.6828  -2.6551
    -2.6377  -2.6280  -2.5933  -2.5755  -2.5353  -2.5028  -2.4925  -2.4625
    -2.4339  -2.3704  -2.2906  -2.2758  -2.2568  -2.2343  -2.1458  -2.1214
    -2.0994  -2.0659  -2.0395  -2.0033  -1.9193  -1.8674  -1.8439  -1.8334
    -1.8113  -1.7943  -1.7576  -1.7201  -1.6846  -1.6595  -1.6015  -1.5871
    -1.5720  -1.5139  -1.4653  -1.4566  -1.4441  -1.4410  -1.4054  -1.3649
    -1.3536  -1.3419  -1.3388  -1.3197  -1.3003  -1.2861  -1.2805  -1.2041
    -1.1931  -1.1847  -1.1586  -1.1418  -1.1238  -1.0830  -1.0075  -0.9931
    -0.9639  -0.9291  -0.9064  -0.8924  -0.8655  -0.8422  -0.8296  -0.7349
    -0.7182  -0.6996  -0.6589  -0.6172  -0.5886  -0.5091  -0.4606  -0.4541
    -0.4029  -0.3742  -0.3175  -0.3065  -0.2785  -0.2447  -0.2333  -0.2242
    -0.1594  -0.1562  -0.1499  -0.1232  -0.1138  -0.1096  -0.0901  -0.0361
    -0.0211   0.0060   0.0742   0.0867   0.1461   0.1661   0.2018   0.2844
     0.2960   0.3153   0.4061   0.4229   0.5117   0.5490   0.5837   0.6037
     0.6254   0.6362   0.6726   0.6864   0.7379   0.7493   0.7850   0.8180
     0.8344   0.9050   0.9254   0.9415   0.9576   0.9771   0.9952   1.0760
     1.1518   1.1678   1.2125   1.2389   1.2447   1.2610   1.3368   1.3639
     1.3718   1.4388   1.4524   1.4592   1.5226   1.5288   1.5437   1.5680
     1.6468   1.6615   1.6908   1.7043   1.7236   1.7340   1.7377   1.7453
     1.9158   1.9237   1.9409   1.9663   1.9692   2.1306   2.1764   2.3633
     2.5628   2.6221   2.7640   2.9956   3.0044   3.3113   3.3892   3.4277
     3.7389   3.8272   4.2116   4.2181   4.2543   4.3979   4.4844   4.5399
     4.5936   4.8660   4.8738   5.1361   5.5082   5.6466   6.0271   6.0759
     6.2057   6.4972   6.5752   6.7211

          k = 0.2000-0.1155 0.0000 ( 92762 PWs)   bands (ev):

   -12.9341 -10.3284  -7.8831  -6.9243  -5.6437  -5.1699  -4.7789  -4.7685
    -4.6984  -4.5329  -4.4850  -4.4568  -4.4325  -4.4138  -4.3936  -4.2036
    -4.1886  -4.0442  -4.0341  -4.0202  -4.0119  -3.7360  -3.6080  -3.6059
    -3.5849  -3.5734  -3.5481  -3.5084  -3.4925  -3.4508  -3.4342  -3.4237
    -3.4080  -3.3651  -3.3257  -3.2992  -3.2195  -3.2078  -3.2027  -3.1641
    -3.1525  -2.9925  -2.9781  -2.9756  -2.9445  -2.9305  -2.7255  -2.6978
    -2.6626  -2.6295  -2.6129  -2.5891  -2.5699  -2.4938  -2.3900  -2.3782
    -2.3157  -2.3022  -2.2766  -2.2545  -2.1675  -2.0780  -2.0399  -1.9421
    -1.9269  -1.8999  -1.8741  -1.8432  -1.8068  -1.7873  -1.7453  -1.7233
    -1.7107  -1.6930  -1.6670  -1.6415  -1.5871  -1.5583  -1.5471  -1.5372
    -1.4729  -1.4675  -1.4500  -1.4116  -1.3882  -1.3756  -1.3492  -1.2892
    -1.2748  -1.2663  -1.2656  -1.2078  -1.1760  -1.1656  -1.1613  -1.1360
    -1.1100  -1.0940  -1.0497  -1.0233  -1.0192  -0.9913  -0.9823  -0.9467
    -0.9413  -0.9139  -0.8927  -0.8578  -0.8250  -0.7610  -0.7256  -0.7174
    -0.7100  -0.6896  -0.6850  -0.6449  -0.6359  -0.6121  -0.6068  -0.5621
    -0.4804  -0.4132  -0.2922  -0.2701  -0.2353  -0.2077  -0.1788  -0.1692
    -0.1530  -0.1451  -0.0894  -0.0012   0.0130   0.0765   0.1393   0.1559
     0.1903   0.2103   0.2361   0.2626   0.2914   0.3192   0.3360   0.3756
     0.4047   0.4128   0.4256   0.4400   0.5935   0.6054   0.6342   0.6451
     0.6721   0.6969   0.7200   0.7661   0.7896   0.8108   0.8183   0.8427
     0.8906   0.9047   0.9150   0.9336   1.0132   1.0245   1.0448   1.1064
     1.1352   1.1527   1.1751   1.2050   1.2137   1.2344   1.2509   1.3051
     1.3342   1.3428   1.3875   1.4020   1.4050   1.4438   1.4480   1.4537
     1.4583   1.4648   1.5155   1.5277   1.6554   1.6589   1.6989   1.7139
     1.7159   1.7288   1.7614   1.7901   1.7947   1.8131   1.8943   1.9137
     1.9367   1.9608   2.0926   2.1024   2.1165   2.1399   2.4419   2.5645
     2.9603   3.2829   3.3080   3.4036   3.9394   4.4542   4.7050   5.0565
     5.4280   5.4310   5.5521   5.7083   5.8395   6.0610   6.3786   6.4093
     6.5734   6.6361   6.7908   6.8059

          k = 0.2000 0.1155 0.0000 ( 92762 PWs)   bands (ev):

   -12.9341 -10.3288  -7.8822  -6.9244  -5.6437  -5.1687  -4.7847  -4.7684
    -4.6910  -4.5326  -4.4804  -4.4678  -4.4364  -4.4046  -4.3934  -4.2112
    -4.1893  -4.0419  -4.0373  -4.0179  -4.0050  -3.7351  -3.6096  -3.6050
    -3.5898  -3.5752  -3.5479  -3.5124  -3.4904  -3.4485  -3.4353  -3.4215
    -3.4025  -3.3622  -3.3249  -3.3051  -3.2175  -3.2100  -3.1952  -3.1635
    -3.1549  -2.9940  -2.9783  -2.9734  -2.9454  -2.9311  -2.7343  -2.6965
    -2.6763  -2.6184  -2.6128  -2.5924  -2.5656  -2.4728  -2.4081  -2.3647
    -2.3220  -2.3059  -2.2797  -2.2531  -2.1770  -2.0871  -2.0187  -1.9565
    -1.9248  -1.9134  -1.8656  -1.8391  -1.8165  -1.7766  -1.7501  -1.7172
    -1.7115  -1.6844  -1.6684  -1.6423  -1.5967  -1.5584  -1.5451  -1.5389
    -1.4759  -1.4671  -1.4509  -1.4171  -1.3892  -1.3752  -1.3498  -1.2860
    -1.2739  -1.2682  -1.2648  -1.2030  -1.1789  -1.1653  -1.1611  -1.1377
    -1.1029  -1.0922  -1.0550  -1.0205  -1.0046  -0.9956  -0.9814  -0.9481
    -0.9405  -0.9118  -0.8910  -0.8568  -0.8225  -0.7543  -0.7285  -0.7179
    -0.7116  -0.6910  -0.6826  -0.6453  -0.6412  -0.6106  -0.6069  -0.5554
    -0.4682  -0.4370  -0.2897  -0.2734  -0.2351  -0.2116  -0.1798  -0.1638
    -0.1607  -0.1465  -0.0910  -0.0007   0.0148   0.0789   0.1329   0.1627
     0.1895   0.2108   0.2380   0.2640   0.2852   0.3296   0.3383   0.3778
     0.4041   0.4139   0.4258   0.4400   0.5960   0.6037   0.6375   0.6483
     0.6713   0.6998   0.7093   0.7719   0.7922   0.8039   0.8182   0.8292
     0.8914   0.9032   0.9165   0.9338   1.0145   1.0268   1.0458   1.1054
     1.1351   1.1553   1.1755   1.2067   1.2145   1.2338   1.2489   1.3060
     1.3393   1.3418   1.3870   1.3997   1.4054   1.4433   1.4492   1.4535
     1.4577   1.4639   1.5157   1.5276   1.6557   1.6574   1.6985   1.7129
     1.7150   1.7307   1.7599   1.7882   1.7940   1.8138   1.8914   1.9131
     1.9367   1.9597   2.0931   2.1021   2.1158   2.1523   2.4250   2.5721
     2.9600   3.2835   3.2956   3.4154   3.9485   4.4347   4.7109   5.0582
     5.4284   5.4306   5.5619   5.7104   5.8392   6.0594   6.3721   6.4127
     6.5744   6.6587   6.7908   6.8021

          k = 0.2000 0.3464 0.0000 ( 92746 PWs)   bands (ev):

   -12.9339 -10.3296  -7.8800  -6.6401  -5.4251  -5.4101  -5.3690  -4.6639
    -4.4660  -4.3436  -4.3359  -4.3224  -4.2888  -4.2781  -4.2653  -4.2500
    -4.2060  -4.1486  -4.1385  -3.7787  -3.7673  -3.7525  -3.7505  -3.6910
    -3.6596  -3.5492  -3.5212  -3.5080  -3.5049  -3.4862  -3.4466  -3.4025
    -3.3609  -3.3406  -3.3283  -3.3142  -3.2682  -3.2343  -3.2232  -3.1899
    -3.1729  -3.1000  -2.8434  -2.7774  -2.7536  -2.7428  -2.7283  -2.7056
    -2.6962  -2.6811  -2.6393  -2.6221  -2.4785  -2.4675  -2.4441  -2.4221
    -2.3536  -2.3367  -2.2899  -2.2727  -2.2531  -2.1897  -2.1643  -2.1004
    -2.0306  -2.0016  -1.9805  -1.9183  -1.9003  -1.8827  -1.8713  -1.8530
    -1.8126  -1.7971  -1.7785  -1.6738  -1.6422  -1.6187  -1.6138  -1.5786
    -1.5488  -1.5261  -1.5025  -1.4721  -1.4539  -1.4154  -1.3472  -1.3248
    -1.3178  -1.3002  -1.2951  -1.2675  -1.2592  -1.2324  -1.2196  -1.1724
    -1.1586  -1.1211  -1.0707  -1.0604  -1.0405  -1.0037  -0.9789  -0.9563
    -0.9379  -0.9299  -0.9018  -0.8922  -0.8728  -0.8661  -0.8552  -0.8260
    -0.7881  -0.7746  -0.7495  -0.6797  -0.6438  -0.6265  -0.6018  -0.5594
    -0.5178  -0.5036  -0.4212  -0.3569  -0.3021  -0.2268  -0.2086  -0.1754
    -0.1653  -0.1507  -0.1355  -0.0996  -0.0773  -0.0645  -0.0497   0.0118
     0.0374   0.0835   0.1511   0.2175   0.2441   0.2635   0.2881   0.3162
     0.3485   0.3577   0.4477   0.4709   0.4786   0.5273   0.5396   0.5927
     0.6568   0.6730   0.6947   0.7070   0.7541   0.7727   0.7809   0.7855
     0.7974   0.8101   0.8191   0.8412   0.9176   1.0092   1.0324   1.0637
     1.1439   1.1635   1.2489   1.3252   1.3393   1.3449   1.3778   1.4462
     1.4648   1.4799   1.4928   1.5161   1.5394   1.5449   1.5507   1.5657
     1.5978   1.6182   1.6322   1.6934   1.7246   1.7313   1.7677   1.7766
     1.8183   1.9112   1.9717   2.0105   2.0349   2.0678   2.0895   2.0927
     2.2277   2.2339   2.5225   2.7508   2.7686   3.0828   3.2955   3.3060
     3.3348   3.6167   3.9915   4.0207   4.2278   4.2425   4.2748   4.7553
     4.9550   5.4152   5.4450   5.6561   5.6734   6.0271   6.0938   6.1339
     6.2227   6.2403   6.2607   6.5694

          k = 0.2000-0.5774 0.0000 ( 92764 PWs)   bands (ev):

   -12.9339 -10.3296  -7.8797  -6.1201  -6.0926  -5.4986  -4.9167  -4.8777
    -4.6053  -4.4357  -4.3365  -4.3079  -4.1960  -4.1632  -4.0591  -4.0498
    -3.9527  -3.9416  -3.8436  -3.8341  -3.8148  -3.7943  -3.7722  -3.7639
    -3.7473  -3.6396  -3.6172  -3.6084  -3.5828  -3.5686  -3.5156  -3.4662
    -3.3659  -3.3569  -3.3019  -3.2166  -3.2085  -3.2033  -3.1795  -3.1619
    -3.0794  -3.0678  -2.9836  -2.9636  -2.7978  -2.7731  -2.7492  -2.6613
    -2.6358  -2.5967  -2.5710  -2.4890  -2.4620  -2.4101  -2.3874  -2.3561
    -2.3380  -2.3009  -2.2768  -2.2568  -2.1916  -2.1710  -2.1498  -2.1336
    -2.1319  -2.1229  -2.1049  -2.0670  -2.0322  -2.0108  -1.9088  -1.8979
    -1.8637  -1.8447  -1.7903  -1.7389  -1.7215  -1.7008  -1.6777  -1.6457
    -1.6346  -1.6052  -1.5872  -1.5029  -1.5011  -1.4888  -1.4545  -1.4427
    -1.4238  -1.3568  -1.3134  -1.3058  -1.2682  -1.2524  -1.2258  -1.1721
    -1.1166  -1.0819  -1.0660  -1.0550  -1.0447  -1.0225  -1.0075  -0.9727
    -0.9685  -0.9362  -0.9314  -0.9120  -0.8834  -0.8704  -0.8528  -0.8433
    -0.8342  -0.8191  -0.7920  -0.7604  -0.7463  -0.6853  -0.5817  -0.5208
    -0.4535  -0.4287  -0.4218  -0.3355  -0.3160  -0.2785  -0.2544  -0.2280
    -0.2223  -0.2038  -0.1704  -0.1543  -0.1001  -0.0735  -0.0492  -0.0106
     0.0331   0.0400   0.0690   0.1116   0.2118   0.2555   0.2910   0.3387
     0.3548   0.3774   0.4287   0.4425   0.4659   0.4763   0.4902   0.5272
     0.5420   0.5771   0.6336   0.6466   0.6899   0.7136   0.7324   0.7382
     0.7635   0.7770   0.8629   0.9092   0.9809   1.0178   1.0863   1.1404
     1.1702   1.1820   1.2596   1.3000   1.3062   1.3430   1.4073   1.4555
     1.4821   1.5016   1.5243   1.5298   1.5500   1.5840   1.6062   1.6832
     1.6863   1.6973   1.7187   1.7415   1.7505   1.7565   1.8131   1.9202
     1.9339   1.9555   1.9644   1.9742   2.0267   2.0657   2.1480   2.2744
     2.8787   3.1081   3.1114   3.3000   3.3768   3.4854   3.4985   3.5162
     3.7296   4.1127   4.1227   4.2636   4.5763   4.5951   4.7039   4.7230
     4.7498   4.9412   5.0243   5.0799   5.2626   5.5152   5.5533   5.6854
     6.1373   6.2001   6.2197   6.4147

          k = 0.2000-0.3464 0.0000 ( 92746 PWs)   bands (ev):

   -12.9340 -10.3288  -7.8815  -6.6399  -5.4275  -5.4061  -5.3716  -4.6659
    -4.4628  -4.3428  -4.3379  -4.3229  -4.2905  -4.2822  -4.2649  -4.2417
    -4.2029  -4.1515  -4.1385  -3.7780  -3.7670  -3.7571  -3.7493  -3.6852
    -3.6679  -3.5537  -3.5229  -3.5082  -3.5032  -3.4791  -3.4497  -3.3971
    -3.3682  -3.3373  -3.3270  -3.3092  -3.2707  -3.2377  -3.2171  -3.1936
    -3.1857  -3.0985  -2.8467  -2.7828  -2.7502  -2.7311  -2.7241  -2.7038
    -2.6943  -2.6805  -2.6322  -2.6210  -2.5000  -2.4667  -2.4565  -2.3931
    -2.3593  -2.3309  -2.2877  -2.2745  -2.2506  -2.1891  -2.1690  -2.0990
    -2.0327  -1.9963  -1.9751  -1.9282  -1.8965  -1.8892  -1.8706  -1.8431
    -1.8246  -1.7942  -1.7597  -1.6680  -1.6463  -1.6235  -1.6139  -1.5763
    -1.5525  -1.5286  -1.5014  -1.4783  -1.4514  -1.4125  -1.3508  -1.3233
    -1.3192  -1.2995  -1.2950  -1.2710  -1.2588  -1.2353  -1.2195  -1.1740
    -1.1600  -1.1235  -1.0716  -1.0568  -1.0382  -1.0055  -0.9759  -0.9656
    -0.9416  -0.9293  -0.9075  -0.8922  -0.8770  -0.8633  -0.8528  -0.8264
    -0.7847  -0.7763  -0.7495  -0.6806  -0.6487  -0.6323  -0.5878  -0.5630
    -0.5157  -0.4949  -0.4209  -0.3586  -0.2969  -0.2300  -0.2091  -0.1741
    -0.1625  -0.1515  -0.1352  -0.1035  -0.0760  -0.0669  -0.0429   0.0170
     0.0391   0.0692   0.1514   0.2146   0.2473   0.2634   0.2842   0.3123
     0.3477   0.3541   0.4493   0.4737   0.4773   0.5291   0.5387   0.5926
     0.6662   0.6726   0.6957   0.7084   0.7457   0.7742   0.7766   0.7849
     0.7968   0.8145   0.8269   0.8432   0.9185   0.9951   1.0336   1.0760
     1.1407   1.1589   1.2475   1.3220   1.3393   1.3431   1.3808   1.4523
     1.4660   1.4788   1.4924   1.5133   1.5418   1.5444   1.5512   1.5651
     1.5967   1.6226   1.6306   1.6937   1.7245   1.7317   1.7675   1.7764
     1.8175   1.9091   1.9723   2.0124   2.0293   2.0724   2.0897   2.0983
     2.2270   2.2293   2.5166   2.7483   2.7688   3.0940   3.2992   3.3069
     3.3365   3.6100   3.9959   4.0171   4.2254   4.2428   4.2753   4.7706
     4.9528   5.4151   5.4448   5.6403   5.6684   6.0263   6.1036   6.1378
     6.2141   6.2353   6.2582   6.5561

          k = 0.4000-0.2309 0.0000 ( 92788 PWs)   bands (ev):

   -12.9341 -10.3283  -7.8825  -6.5028  -5.8688  -5.2464  -4.8124  -4.8016
    -4.7443  -4.5622  -4.4328  -4.4224  -4.2790  -4.1556  -4.1129  -4.0777
    -4.0731  -3.9151  -3.9034  -3.8671  -3.8515  -3.8412  -3.7353  -3.6932
    -3.6872  -3.6475  -3.6330  -3.5943  -3.5682  -3.5074  -3.5019  -3.4945
    -3.4617  -3.2448  -3.2366  -3.2340  -3.2285  -3.2086  -3.1983  -3.0043
    -2.9897  -2.9539  -2.9485  -2.9412  -2.9151  -2.7498  -2.6832  -2.6561
    -2.6394  -2.6248  -2.5944  -2.5794  -2.5331  -2.5087  -2.4932  -2.4541
    -2.4381  -2.3445  -2.2897  -2.2832  -2.2435  -2.2343  -2.1442  -2.1184
    -2.1045  -2.0713  -2.0512  -1.9907  -1.9287  -1.8980  -1.8418  -1.8311
    -1.8081  -1.7858  -1.7517  -1.7220  -1.6967  -1.6704  -1.5983  -1.5753
    -1.5620  -1.5135  -1.4655  -1.4566  -1.4417  -1.4353  -1.4079  -1.3714
    -1.3549  -1.3407  -1.3365  -1.3207  -1.3036  -1.2858  -1.2766  -1.2104
    -1.1932  -1.1802  -1.1591  -1.1428  -1.1250  -1.0892  -1.0069  -0.9929
    -0.9556  -0.9213  -0.9071  -0.8900  -0.8725  -0.8418  -0.8168  -0.7499
    -0.7172  -0.7013  -0.6578  -0.6131  -0.5874  -0.4783  -0.4603  -0.4462
    -0.4028  -0.3744  -0.3226  -0.3072  -0.2765  -0.2415  -0.2349  -0.2286
    -0.1657  -0.1572  -0.1510  -0.1365  -0.1131  -0.1062  -0.0838  -0.0432
    -0.0164   0.0015   0.0761   0.0892   0.1437   0.1590   0.2053   0.2851
     0.2995   0.3093   0.4097   0.4210   0.5056   0.5470   0.5827   0.6048
     0.6287   0.6388   0.6709   0.6850   0.7408   0.7437   0.7838   0.8139
     0.8356   0.9063   0.9204   0.9423   0.9579   0.9777   0.9985   1.0869
     1.1573   1.1665   1.2115   1.2382   1.2477   1.2636   1.3367   1.3614
     1.3736   1.4395   1.4525   1.4622   1.5188   1.5267   1.5447   1.5701
     1.6432   1.6614   1.6908   1.7032   1.7226   1.7284   1.7355   1.7426
     1.9155   1.9210   1.9402   1.9634   1.9682   2.1314   2.1766   2.3719
     2.5686   2.6334   2.7548   2.9943   3.0052   3.3010   3.3916   3.4143
     3.7361   3.8393   4.2111   4.2186   4.2518   4.4115   4.4931   4.5302
     4.6001   4.8639   4.8715   5.0966   5.5042   5.6650   6.0218   6.0751
     6.1947   6.4997   6.5732   6.7092

          k = 0.4000-0.0000 0.0000 ( 92746 PWs)   bands (ev):

   -12.9340 -10.3288  -7.8818  -6.6396  -5.4281  -5.4063  -5.3693  -4.6668
    -4.4562  -4.3423  -4.3379  -4.3122  -4.3043  -4.2813  -4.2651  -4.2443
    -4.2029  -4.1516  -4.1396  -3.7813  -3.7645  -3.7581  -3.7493  -3.6810
    -3.6666  -3.5391  -3.5171  -3.5057  -3.4982  -3.4839  -3.4716  -3.4006
    -3.3662  -3.3392  -3.3268  -3.3205  -3.2700  -3.2408  -3.2192  -3.2014
    -3.1690  -3.0963  -2.8467  -2.7750  -2.7522  -2.7425  -2.7194  -2.7052
    -2.6926  -2.6756  -2.6366  -2.6204  -2.5142  -2.4663  -2.4577  -2.3752
    -2.3592  -2.3310  -2.2887  -2.2673  -2.2520  -2.2083  -2.1682  -2.0952
    -2.0406  -2.0007  -1.9686  -1.9343  -1.9035  -1.8844  -1.8654  -1.8501
    -1.8193  -1.7901  -1.7780  -1.6631  -1.6445  -1.6215  -1.6142  -1.5746
    -1.5499  -1.5360  -1.5017  -1.4670  -1.4497  -1.4135  -1.3509  -1.3236
    -1.3190  -1.2989  -1.2949  -1.2737  -1.2562  -1.2343  -1.2182  -1.1663
    -1.1567  -1.1252  -1.0709  -1.0598  -1.0362  -0.9962  -0.9778  -0.9663
    -0.9401  -0.9326  -0.9046  -0.8893  -0.8769  -0.8609  -0.8516  -0.8273
    -0.7835  -0.7723  -0.7508  -0.6838  -0.6496  -0.6377  -0.5931  -0.5610
    -0.5151  -0.4992  -0.4112  -0.3577  -0.3012  -0.2258  -0.2090  -0.1751
    -0.1619  -0.1528  -0.1348  -0.1002  -0.0784  -0.0599  -0.0505   0.0062
     0.0312   0.0862   0.1542   0.2202   0.2428   0.2620   0.2897   0.3151
     0.3460   0.3591   0.4487   0.4743   0.4826   0.5251   0.5407   0.5906
     0.6640   0.6695   0.6844   0.7093   0.7516   0.7725   0.7787   0.7898
     0.7937   0.8105   0.8169   0.8420   0.9129   1.0088   1.0348   1.0657
     1.1460   1.1694   1.2461   1.3254   1.3427   1.3476   1.3778   1.4438
     1.4664   1.4801   1.4922   1.5144   1.5393   1.5460   1.5506   1.5664
     1.5953   1.6221   1.6261   1.6950   1.7289   1.7317   1.7679   1.7752
     1.8183   1.9001   1.9678   2.0093   2.0264   2.0737   2.0904   2.0970
     2.2303   2.2335   2.5107   2.7543   2.7690   3.1098   3.2957   3.3056
     3.3415   3.5891   3.9910   4.0152   4.2262   4.2386   4.2723   4.7761
     4.9610   5.4149   5.4446   5.6309   5.6588   6.0111   6.1161   6.1400
     6.2088   6.2380   6.2547   6.5660

          k = 0.4000 0.2309 0.0000 ( 92788 PWs)   bands (ev):

   -12.9339 -10.3295  -7.8802  -6.5031  -5.8687  -5.2451  -4.8170  -4.8004
    -4.7336  -4.5656  -4.4466  -4.4161  -4.2793  -4.1555  -4.1169  -4.0766
    -4.0721  -3.9167  -3.8930  -3.8658  -3.8505  -3.8403  -3.7336  -3.6935
    -3.6894  -3.6489  -3.6329  -3.5962  -3.5657  -3.5176  -3.5022  -3.4922
    -3.4578  -3.2445  -3.2376  -3.2313  -3.2293  -3.2044  -3.1991  -2.9999
    -2.9846  -2.9536  -2.9482  -2.9451  -2.9119  -2.7678  -2.6783  -2.6563
    -2.6373  -2.6302  -2.5919  -2.5754  -2.5246  -2.5083  -2.4960  -2.4569
    -2.4310  -2.3589  -2.2972  -2.2830  -2.2548  -2.2365  -2.1448  -2.1194
    -2.1109  -2.0711  -2.0498  -1.9989  -1.9237  -1.8814  -1.8481  -1.8369
    -1.8121  -1.7991  -1.7402  -1.7293  -1.6955  -1.6620  -1.5933  -1.5770
    -1.5593  -1.5092  -1.4699  -1.4613  -1.4433  -1.4356  -1.4029  -1.3727
    -1.3598  -1.3419  -1.3372  -1.3173  -1.3060  -1.2848  -1.2696  -1.2023
    -1.1919  -1.1822  -1.1590  -1.1457  -1.1253  -1.0819  -1.0028  -0.9924
    -0.9573  -0.9233  -0.9067  -0.8882  -0.8667  -0.8414  -0.8147  -0.7373
    -0.7155  -0.7010  -0.6539  -0.6109  -0.5863  -0.4847  -0.4580  -0.4530
    -0.4092  -0.3721  -0.3278  -0.3051  -0.2757  -0.2418  -0.2350  -0.2254
    -0.1739  -0.1575  -0.1518  -0.1451  -0.1118  -0.1063  -0.0809  -0.0501
    -0.0115  -0.0018   0.0802   0.0916   0.1441   0.1567   0.2094   0.2909
     0.3015   0.3122   0.4130   0.4147   0.4971   0.5419   0.5837   0.6063
     0.6243   0.6352   0.6717   0.6849   0.7373   0.7484   0.7844   0.8142
     0.8345   0.9080   0.9199   0.9439   0.9604   0.9774   1.0028   1.0873
     1.1613   1.1728   1.2117   1.2377   1.2454   1.2631   1.3350   1.3678
     1.3702   1.4442   1.4494   1.4586   1.5115   1.5274   1.5459   1.5698
     1.6468   1.6604   1.6918   1.7036   1.7215   1.7258   1.7349   1.7423
     1.9158   1.9194   1.9417   1.9636   1.9660   2.1310   2.1764   2.3754
     2.5774   2.6344   2.7450   2.9923   3.0051   3.3019   3.3907   3.4161
     3.7322   3.8332   4.2083   4.2185   4.2526   4.3984   4.4869   4.5367
     4.6081   4.8642   4.8694   5.1030   5.5047   5.6548   6.0271   6.0872
     6.2202   6.5146   6.6199   6.7294

          k = 0.4000-0.6928 0.0000 ( 92764 PWs)   bands (ev):

   -12.9339 -10.3295  -7.8800  -6.1200  -6.0918  -5.4992  -4.9239  -4.8686
    -4.5974  -4.4434  -4.3330  -4.3094  -4.1991  -4.1634  -4.0589  -4.0518
    -3.9516  -3.9382  -3.8437  -3.8339  -3.8149  -3.7960  -3.7761  -3.7542
    -3.7457  -3.6408  -3.6173  -3.6104  -3.5814  -3.5676  -3.4954  -3.4714
    -3.3953  -3.3582  -3.3034  -3.2171  -3.2093  -3.2013  -3.1833  -3.1578
    -3.0756  -3.0659  -2.9816  -2.9696  -2.7992  -2.7747  -2.7497  -2.6595
    -2.6317  -2.5929  -2.5762  -2.4948  -2.4497  -2.4091  -2.3772  -2.3641
    -2.3274  -2.3022  -2.2845  -2.2630  -2.2042  -2.1704  -2.1521  -2.1341
    -2.1302  -2.1173  -2.0918  -2.0745  -2.0332  -2.0088  -1.9214  -1.9010
    -1.8626  -1.8484  -1.8199  -1.7397  -1.7245  -1.6954  -1.6694  -1.6462
    -1.6303  -1.6009  -1.5883  -1.5033  -1.4994  -1.4868  -1.4493  -1.4335
    -1.4148  -1.3566  -1.3117  -1.3007  -1.2724  -1.2616  -1.2316  -1.1627
    -1.1109  -1.0817  -1.0660  -1.0572  -1.0483  -1.0199  -1.0063  -0.9712
    -0.9641  -0.9371  -0.9227  -0.9192  -0.8871  -0.8669  -0.8500  -0.8379
    -0.8324  -0.8213  -0.7905  -0.7658  -0.7468  -0.6931  -0.5731  -0.5141
    -0.4424  -0.4258  -0.4217  -0.3360  -0.3136  -0.2793  -0.2542  -0.2260
    -0.2194  -0.2092  -0.1743  -0.1493  -0.1037  -0.0721  -0.0496  -0.0193
     0.0103   0.0424   0.0704   0.1096   0.2206   0.2679   0.2908   0.3353
     0.3543   0.3785   0.4286   0.4366   0.4631   0.4745   0.4857   0.5151
     0.5432   0.5853   0.6328   0.6504   0.6909   0.7171   0.7259   0.7357
     0.7607   0.7738   0.8726   0.9048   0.9917   1.0214   1.0837   1.1367
     1.1710   1.1873   1.2592   1.3058   1.3087   1.3432   1.4078   1.4572
     1.4811   1.5029   1.5238   1.5295   1.5535   1.5773   1.5987   1.6832
     1.6865   1.6979   1.7205   1.7398   1.7432   1.7572   1.8132   1.9208
     1.9310   1.9553   1.9616   1.9715   2.0266   2.0715   2.1478   2.2794
     2.8754   3.1081   3.1115   3.2947   3.3753   3.4845   3.4980   3.5271
     3.7453   4.1012   4.1218   4.2506   4.5780   4.5949   4.7078   4.7116
     4.7446   4.9296   5.0210   5.0788   5.2757   5.5066   5.5535   5.7019
     6.1134   6.2002   6.2147   6.4313

          k = 0.4000-0.4619 0.0000 ( 92764 PWs)   bands (ev):

   -12.9340 -10.3288  -7.8814  -6.1169  -6.0948  -5.4990  -4.9303  -4.8675
    -4.5857  -4.4510  -4.3344  -4.3049  -4.1991  -4.1643  -4.0627  -4.0511
    -3.9509  -3.9388  -3.8437  -3.8309  -3.8168  -3.7938  -3.7745  -3.7631
    -3.7414  -3.6461  -3.6170  -3.6115  -3.5745  -3.5666  -3.4969  -3.4738
    -3.3909  -3.3578  -3.3046  -3.2165  -3.2086  -3.2045  -3.1797  -3.1676
    -3.0765  -3.0675  -2.9767  -2.9667  -2.8090  -2.7752  -2.7294  -2.6703
    -2.6383  -2.5944  -2.5754  -2.4975  -2.4446  -2.4028  -2.3789  -2.3650
    -2.3194  -2.3026  -2.2820  -2.2646  -2.1936  -2.1694  -2.1473  -2.1391
    -2.1261  -2.1171  -2.0999  -2.0659  -2.0302  -2.0006  -1.9430  -1.8952
    -1.8641  -1.8469  -1.7941  -1.7416  -1.7310  -1.6939  -1.6904  -1.6525
    -1.6323  -1.6024  -1.5845  -1.5008  -1.4993  -1.4864  -1.4476  -1.4382
    -1.4108  -1.3606  -1.3114  -1.3020  -1.2716  -1.2632  -1.2362  -1.1642
    -1.1097  -1.0818  -1.0682  -1.0565  -1.0410  -1.0171  -1.0057  -0.9708
    -0.9652  -0.9363  -0.9245  -0.9166  -0.8878  -0.8681  -0.8533  -0.8423
    -0.8362  -0.8201  -0.7930  -0.7749  -0.7436  -0.6951  -0.5622  -0.5136
    -0.4426  -0.4252  -0.4201  -0.3356  -0.3135  -0.2793  -0.2572  -0.2310
    -0.2191  -0.2036  -0.1764  -0.1512  -0.1004  -0.0695  -0.0569  -0.0189
     0.0210   0.0408   0.0689   0.1135   0.2179   0.2597   0.2928   0.3350
     0.3533   0.3775   0.4302   0.4395   0.4671   0.4784   0.4881   0.5234
     0.5379   0.5807   0.6339   0.6462   0.6876   0.7121   0.7270   0.7386
     0.7622   0.7757   0.8688   0.9073   0.9907   1.0208   1.0803   1.1460
     1.1700   1.1843   1.2594   1.3008   1.3063   1.3434   1.4064   1.4590
     1.4828   1.5040   1.5250   1.5291   1.5538   1.5794   1.6004   1.6822
     1.6865   1.6952   1.7199   1.7406   1.7425   1.7585   1.8123   1.9197
     1.9328   1.9553   1.9621   1.9729   2.0268   2.0720   2.1479   2.2766
     2.8766   3.1085   3.1112   3.2785   3.3831   3.4865   3.5011   3.5239
     3.7567   4.1079   4.1223   4.2447   4.5785   4.5926   4.7079   4.7203
     4.7505   4.9341   5.0217   5.0515   5.2979   5.5020   5.5573   5.6993
     6.1046   6.2005   6.2117   6.4027

     the Fermi energy is     1.7289 ev

!    total energy              =  -27819.86750469 Ry

     total all-electron energy =  -1326879.925187 Ry
     estimated scf accuracy    <       0.00000097 Ry
     smearing contrib. (-TS)   =       0.00247344 Ry
     internal energy E=F+TS    =  -27819.86997814 Ry

     The total energy is F=E-TS. E is the sum of the following terms:
     one-electron contribution =  -29190.89444326 Ry
     hartree contribution      =   14899.06156587 Ry
     xc contribution           =    -909.81666011 Ry
     ewald contribution        =   12875.36710029 Ry
     one-center paw contrib.   =  -25493.58754092 Ry

     convergence has been achieved in  21 iterations

     negative rho (up, down):  1.243E-02 0.000E+00

     Forces acting on atoms (cartesian axes, Ry/au):

     atom    1 type  1   force =     0.00016392    0.00021787   -0.00702766
     atom    2 type  1   force =    -0.00064371    0.00012284   -0.00370503
     atom    3 type  1   force =     0.00054155    0.00021430   -0.00351932
     atom    4 type  1   force =    -0.00036685   -0.00036126   -0.00394209
     atom    5 type  1   force =    -0.00008362    0.00003822   -0.00352183
     atom    6 type  1   force =     0.00038926   -0.00037732   -0.00359809
     atom    7 type  1   force =     0.00045019    0.00046196   -0.00356748
     atom    8 type  1   force =    -0.00038206    0.00058868   -0.00376228
     atom    9 type  1   force =    -0.00004762   -0.00004778   -0.00346505
     atom   10 type  1   force =    -0.00012634    0.00002017   -0.00080120
     atom   11 type  1   force =     0.00034575    0.00189795    0.00954701
     atom   12 type  1   force =    -0.00048081   -0.00022624   -0.00042272
     atom   13 type  1   force =     0.00178497   -0.00113911    0.00961498
     atom   14 type  1   force =    -0.00200912   -0.00139101    0.00974791
     atom   15 type  1   force =    -0.00005837   -0.00030765    0.00198582
     atom   16 type  1   force =    -0.00028052   -0.00030113   -0.00092708
     atom   17 type  1   force =    -0.00000730   -0.00022355    0.00135192
     atom   18 type  1   force =     0.00007852   -0.00001866    0.00212031
     atom   19 type  1   force =     0.00006380   -0.00001782    0.00023871
     atom   20 type  1   force =    -0.00003159   -0.00010659    0.00002160
     atom   21 type  1   force =    -0.00003935   -0.00006472   -0.00008090
     atom   22 type  1   force =    -0.00004192    0.00005711    0.00018550
     atom   23 type  1   force =    -0.00002360   -0.00004756   -0.00003764
     atom   24 type  1   force =     0.00009289    0.00003668    0.00014712
     atom   25 type  1   force =    -0.00005817   -0.00001909    0.00021539
     atom   26 type  1   force =     0.00004377    0.00005416    0.00017620
     atom   27 type  1   force =     0.00001870    0.00000557    0.00017077
     atom   28 type  1   force =     0.00003017    0.00008682    0.00029793
     atom   29 type  1   force =     0.00003142    0.00008384    0.00008444
     atom   30 type  1   force =    -0.00006573    0.00000970    0.00014438
     atom   31 type  1   force =     0.00003182    0.00005073    0.00016885
     atom   32 type  1   force =    -0.00004911    0.00008446    0.00033838
     atom   33 type  1   force =    -0.00003254    0.00002644   -0.00001079
     atom   34 type  1   force =     0.00005080   -0.00006228    0.00010950
     atom   35 type  1   force =    -0.00000851   -0.00001031   -0.00011314
     atom   36 type  1   force =     0.00005875    0.00016778    0.00025797
     atom   37 type  2   force =     0.00024782    0.00051298    0.00188822
     atom   38 type  2   force =    -0.00063419    0.00094199   -0.00003074
     atom   39 type  2   force =    -0.00016550   -0.00457749    0.00870267
     atom   40 type  3   force =     0.00007421    0.00024808   -0.00016421
     atom   41 type  3   force =     0.00022930    0.00015240   -0.00008211
     atom   42 type  3   force =    -0.00046077    0.00011707    0.00016135
     atom   43 type  3   force =     0.00013843   -0.00006176   -0.00033097
     atom   44 type  3   force =    -0.00039899   -0.00030681    0.00052384
     atom   45 type  3   force =     0.00041973   -0.00035186   -0.00001580
     atom   46 type  3   force =     0.00121048    0.00382218   -0.00907465

     Total force =     0.014227     Total SCF correction =     0.003932
     SCF correction compared to forces is large: reduce conv_thr to get better values

     negative rho (up, down):  1.243E-02 0.000E+00

     negative rho (up, down):  1.243E-02 0.000E+00

     negative rho (up, down):  1.243E-02 0.000E+00

     negative rho (up, down):  1.243E-02 0.000E+00

     negative rho (up, down):  1.243E-02 0.000E+00

     negative rho (up, down):  1.243E-02 0.000E+00

     negative rho (up, down):  1.243E-02 0.000E+00

     negative rho (up, down):  1.243E-02 0.000E+00

     negative rho (up, down):  1.243E-02 0.000E+00

     negative rho (up, down):  1.243E-02 0.000E+00

     negative rho (up, down):  1.243E-02 0.000E+00

     negative rho (up, down):  1.243E-02 0.000E+00

     negative rho (up, down):  1.243E-02 0.000E+00

     negative rho (up, down):  1.243E-02 0.000E+00

     negative rho (up, down):  1.243E-02 0.000E+00

     negative rho (up, down):  1.243E-02 0.000E+00

     negative rho (up, down):  1.243E-02 0.000E+00

     negative rho (up, down):  1.243E-02 0.000E+00

     negative rho (up, down):  1.243E-02 0.000E+00

     negative rho (up, down):  1.243E-02 0.000E+00

     negative rho (up, down):  1.243E-02 0.000E+00

     negative rho (up, down):  1.243E-02 0.000E+00

     negative rho (up, down):  1.243E-02 0.000E+00

     negative rho (up, down):  1.243E-02 0.000E+00

     negative rho (up, down):  1.243E-02 0.000E+00

     negative rho (up, down):  1.243E-02 0.000E+00

     negative rho (up, down):  1.243E-02 0.000E+00

     negative rho (up, down):  1.243E-02 0.000E+00

     negative rho (up, down):  1.243E-02 0.000E+00

     negative rho (up, down):  1.243E-02 0.000E+00

     negative rho (up, down):  1.243E-02 0.000E+00

     negative rho (up, down):  1.243E-02 0.000E+00

     negative rho (up, down):  1.243E-02 0.000E+00

     negative rho (up, down):  1.243E-02 0.000E+00
 BEEFens 2000 ensemble energies
             -0.609463027410137E+02
             -0.361820287998248E+01
             -0.158702058367109E+02
              0.431271499484665E+02
             -0.222071004938748E+02
             -0.205760804395310E+02
             -0.354435477124784E+02
             -0.868936729678763E+02
             -0.465876017414905E+02
             -0.473703274053844E+02
             -0.370811062890789E+02
              0.232863678064572E+01
              0.408347992319889E+01
              0.757007736648282E+01
              0.266945510090889E+01
              0.476839212414518E+02
             -0.209346738076840E+02
             -0.229943834130106E+02
              0.194065205370849E+02
             -0.112818506732019E+03
              0.538574304077393E+02
             -0.290418510566784E+02
             -0.337365894408411E+01
             -0.114399466841986E+02
             -0.877920783064872E+01
             -0.460686128319401E+01
              0.886114653988714E+02
             -0.188729217889654E+02
             -0.900630518440323E+01
             -0.520688766676194E+02
              0.817460015542904E+02
             -0.186793072732035E+02
             -0.376502798919588E+02
              0.249512917582862E+02
             -0.285975745806456E+01
              0.165679529231768E+02
             -0.482921868962688E+01
              0.107768245429920E+02
              0.290535022398262E+02
             -0.103612079058116E+03
              0.560750104501975E+02
              0.142950568628884E+02
             -0.181887254123785E+01
             -0.362303304062436E+02
              0.123751117241711E+02
             -0.147980748589501E+02
              0.400573578884296E+02
              0.366012502720268E+02
             -0.308418708021157E+02
             -0.276253220378779E+02
             -0.329792659728685E+02
             -0.353809441115735E+02
              0.137861668972403E+02
             -0.492756795909340E+02
              0.116427061721774E+02
              0.625517594269705E+02
              0.638746621863176E+02
              0.357143441716234E+02
              0.154460292184786E+02
              0.272220141653361E+02
              0.895319141403018E+02
              0.212679635765786E+02
             -0.550652840596453E+02
             -0.157202940370627E+02
             -0.237255493189270E+02
              0.632047230179033E+02
             -0.775719502137393E+02
             -0.674154232794883E+02
             -0.261430788765658E+02
             -0.663006780187345E+01
             -0.471620634147028E+02
              0.271825523596393E+02
              0.806502208044185E+01
              0.874228955507425E+01
             -0.399018025337804E+02
             -0.348268567143284E+02
             -0.544464958563877E+02
              0.391170668096718E+02
             -0.297605365405006E+02
              0.267041104207074E+02
             -0.722290479801143E+01
             -0.318887899665112E+02
             -0.577603408065280E+02
             -0.177032584967534E+02
             -0.911088931183485E+01
             -0.124882719689049E+02
              0.413897372551396E+02
              0.686518062567169E+02
             -0.387471837969165E+02
             -0.797519861003860E+02
             -0.220243984648908E+02
              0.111900791611314E+03
             -0.595013182748162E+02
              0.357275950294677E+02
             -0.962489045895632E+01
             -0.665073324906781E+02
              0.255300139377715E+02
              0.398722073565364E+02
             -0.199590356682183E+02
              0.401205549083024E+02
             -0.296644622721597E+02
             -0.481099232941707E+02
              0.870282007627642E+02
              0.455508522125238E+02
              0.336981523763579E+02
              0.146771941627090E+02
              0.206955055157329E+02
              0.859491563617146E+02
             -0.257795025761835E+02
              0.789853780819570E+01
             -0.142899019938185E+03
              0.181478816357281E+02
             -0.718606492265432E+02
              0.151584804333402E+02
              0.205541635678299E+02
             -0.334531002089834E+02
             -0.559006052311134E+02
              0.651368604406684E+01
             -0.305572719407776E+02
              0.309856544028834E+02
             -0.531653859728745E+02
              0.165600384356424E+01
             -0.358363640994635E+02
             -0.424037117451786E+01
             -0.986803711770705E+00
              0.182762474842357E+02
              0.142741836521020E+01
             -0.652008652024347E+01
              0.593477672646866E+02
              0.911977430446310E+02
              0.486242671838946E+02
              0.832187252147264E+02
             -0.115544207414881E+02
              0.143118640870101E+02
              0.543022988519226E+02
             -0.110082661455279E+02
             -0.739024861792976E+02
             -0.386410799843802E+02
             -0.523871877695294E+02
             -0.277867046339549E+02
              0.328347240240324E+02
             -0.117251712962356E+03
             -0.187773770390341E+02
              0.415966068490180E+02
             -0.387716679077750E+02
             -0.366381386219646E+02
              0.546954475147943E+02
              0.402447859624052E+02
             -0.355241644139701E+02
              0.139743306958483E+02
             -0.274507167626376E+02
              0.344631872397054E+02
              0.444516766033848E+01
              0.211062503518802E+02
             -0.887885315094473E+02
             -0.481828897853145E+02
             -0.100077230242288E+02
              0.316210216691971E+01
             -0.368534850195958E+02
              0.106474011689155E+03
             -0.231143667429710E+02
             -0.399784384336713E+02
              0.390014630526396E+02
             -0.495655583786221E+02
             -0.365052702078183E+02
              0.326145316530417E+02
              0.125118666411355E+02
              0.165233923367203E+02
              0.117574018933783E+02
             -0.133245035685588E+02
              0.225267777140390E+02
              0.592073593933473E+02
             -0.312342254216217E+02
              0.163215349785198E+02
              0.937974146418342E+02
              0.342144084989609E+02
             -0.729241305470987E+01
             -0.189698291336661E+02
              0.153958724910672E+03
             -0.165393997751572E+02
              0.365046026177630E+02
              0.195947079613945E+02
              0.362097004735623E+02
              0.895331323474237E+02
              0.544550935999616E+02
             -0.239599870251446E+01
              0.228977651100843E+02
              0.487112219763158E+02
              0.364908569807422E+02
             -0.528125725917102E+02
              0.939736875930306E+02
             -0.829166674438903E+02
             -0.198110206619057E+02
              0.584710024742829E+02
              0.689552627006098E+01
              0.790636920586815E+01
              0.341458810078479E+02
              0.299707173659359E+02
              0.354831693793014E+02
             -0.639821590838496E+02
              0.286243761798164E+01
             -0.298507271556929E+02
             -0.868589543630191E+01
             -0.148166011739102E+01
             -0.731895652826487E+01
             -0.418420079092385E+01
              0.862609863899748E+02
             -0.101138155812283E+02
             -0.277367492274610E+02
             -0.496055849324400E+01
              0.140564589682282E+02
             -0.566510253855348E+02
             -0.410124654122877E+02
             -0.383189387918995E+02
             -0.632852203870805E+02
             -0.170405855493934E+02
             -0.449003273321194E+02
              0.163882399265294E+02
             -0.236464307635316E+01
             -0.105038743269307E+02
             -0.936755188138514E+01
              0.808726680693530E+01
             -0.242585375090802E+02
              0.692088556319566E+02
             -0.811009912266805E+02
             -0.141636747623814E+02
             -0.174284891783584E+02
              0.182408834683309E+02
              0.215897169726135E+02
             -0.465701402752838E+02
             -0.202065229459453E+02
              0.442724080177972E+02
             -0.276752416199339E+02
              0.187797174908063E+02
              0.383890287701173E+02
             -0.323191206625700E+01
              0.114563715914421E+03
             -0.229783737971218E+02
             -0.342102670048223E+02
              0.576247739540850E+01
             -0.229581014001645E+02
              0.529704503436215E+02
             -0.339612963478428E+02
              0.107195401752454E+02
              0.641880494625505E+02
             -0.126701645663053E+02
              0.120706544618815E+03
              0.126375351773000E+03
             -0.652676814996007E+02
              0.592965236047775E+02
              0.167758272726518E+02
             -0.520119085867392E+02
              0.216449213353606E+02
              0.356265223127119E+02
              0.364875323623538E+02
              0.134470195139463E+01
              0.160863278462880E+02
              0.699190657170454E+02
             -0.247884479342691E+02
              0.181729246767122E+02
              0.741168385987074E+02
             -0.373714854100839E+02
             -0.131201065515745E+02
              0.511319621427390E+02
              0.298704114554275E+02
              0.782835229133701E+02
              0.224420922510575E+02
              0.634830584030766E+01
              0.281218553013866E+02
              0.385126314178917E+02
             -0.474676082787895E+02
              0.338455625448478E+01
              0.131719852627214E+02
              0.114382859020060E+02
              0.221709534896774E+02
             -0.577663794346656E+02
              0.367030376201218E+02
             -0.445403194047570E+02
             -0.348896576284814E+02
              0.179327937633347E+02
             -0.181420225138162E+02
              0.557793548415748E+02
             -0.255900296429570E+02
              0.268050470115015E+02
              0.369197733525450E+02
              0.832096306917978E+02
              0.576685072989161E+02
              0.463947509187794E+02
             -0.104793863901477E+02
             -0.398308320273821E+01
             -0.333407961923592E+02
              0.754202008575563E+02
              0.800305195795088E+02
              0.363616170283810E+02
             -0.193359636798924E+02
              0.513650601548766E+02
             -0.162316591543854E+02
              0.214976147059071E+02
              0.617423789861341E+02
              0.212251531629244E+01
             -0.104760627318709E+02
             -0.283282738203310E+02
             -0.514858250220146E+02
              0.949316050007357E+02
              0.442469117315542E+02
             -0.561996593236109E+02
             -0.973831479475382E+01
              0.250540830293069E+02
             -0.998764751271196E+01
              0.594790700387451E+02
              0.152563303276300E+02
              0.802266742664425E+02
              0.281274470623007E+02
             -0.264253576987753E+02
              0.249172502887320E+02
             -0.504052603894320E+01
             -0.324094122131667E+02
              0.133632652665632E+02
              0.205844854882326E+02
              0.936957299426904E+02
              0.800300037367093E+02
              0.553503487334242E+02
              0.732873247870593E+02
              0.805590199445490E+01
             -0.274764523366327E+02
              0.163684056661505E+02
             -0.369022170877250E+02
             -0.478983221642006E+02
             -0.565566096110933E+02
             -0.267913963432899E+02
             -0.110116971879117E+03
             -0.293265255462635E+02
             -0.841009126590282E+02
              0.211207477817475E+02
             -0.478780776411095E+02
              0.399179431454188E+02
             -0.945798517761186E+02
             -0.331323644805274E+02
              0.549264077269805E+02
              0.208429912461143E+02
             -0.834605182126049E+02
              0.632579749507977E+02
             -0.258125996888951E+02
              0.514588010688848E+02
             -0.243038220289992E+02
             -0.754525968065553E+02
              0.112372928270016E+02
             -0.613922308169145E+02
             -0.167711206470105E+02
             -0.152401409554179E+01
              0.419522658934486E+02
              0.127515801981385E+03
             -0.463183975928538E+02
             -0.363912064117077E+02
             -0.101429542204534E+01
             -0.130453670673389E+02
             -0.825737176434196E+02
             -0.598820580980050E+02
              0.518918302764861E+02
             -0.289344037409209E+02
              0.170581783702880E+02
             -0.491158668675070E+02
             -0.132697807952213E+02
             -0.438726172755999E+02
              0.567441325909251E+02
              0.150875254862447E+02
             -0.232717029016277E+02
             -0.128036280249068E+02
              0.674677881949279E+01
             -0.620947320582945E+01
              0.442966920603731E+02
             -0.252892495852061E+02
              0.288775550685796E+01
              0.341071642425357E+02
              0.171308775014422E+02
             -0.161246247412997E+02
              0.156865295609963E+03
              0.540951175831196E+02
              0.122044142120878E+01
              0.161511174855826E+02
             -0.617419664307015E+02
              0.316412491176474E+02
             -0.725015628646503E+02
             -0.253574930901391E+02
             -0.525201327695554E+02
             -0.220940291905570E+02
              0.571878818979282E+02
             -0.539413304288715E+02
              0.162393917834873E+02
             -0.413601418365386E+01
              0.385681025576511E+01
             -0.434871989360511E+02
             -0.479872436155648E+02
             -0.408624600591065E+01
             -0.425508035152028E+02
             -0.217743124935837E+02
             -0.440193866665093E+02
             -0.119348313675924E+02
             -0.360227740499842E+02
             -0.518376910942721E+02
              0.213298746654287E+02
             -0.209264573882118E+02
              0.189005648419393E+02
              0.977251475206019E+01
             -0.741247785498796E+02
             -0.549871816505828E+02
             -0.400825552866259E+02
              0.355114013006739E+02
              0.265339753100864E+01
             -0.628742486977813E+02
              0.588329979361861E+02
             -0.402904139460513E+02
              0.547663056229559E+02
             -0.291129879469143E+02
             -0.447756159445328E+02
              0.298896861021040E+02
             -0.660530043827265E+02
             -0.381108454593295E+02
              0.674775363272678E+02
              0.205024295104885E+02
             -0.362592834242707E+02
              0.491979430726745E+02
             -0.174818747241621E+02
             -0.324662147750246E+02
             -0.302885798082728E+02
             -0.502792847950633E+02
              0.250862574502897E+02
             -0.936686744172121E+02
             -0.843009942254997E+02
             -0.739319415761349E+01
             -0.307997265050643E+02
             -0.578284981807833E+02
              0.724873785260354E+02
              0.132098826749107E+03
             -0.361404186907875E+02
             -0.258654336003508E+01
             -0.639354101449616E+02
              0.653265506569142E+02
              0.171717551982650E+02
             -0.183027979853084E+02
             -0.411379450265585E+02
              0.149106175302112E+02
             -0.588282860343977E+02
             -0.198397243798631E+02
             -0.907769927405654E+02
              0.338513409044410E+02
              0.169073978655952E+02
              0.181545402426082E+01
             -0.715440672444106E+01
             -0.331922421005511E+02
             -0.766958482477366E+01
              0.126125042631199E+03
             -0.199514843932884E+02
             -0.439935760048110E+02
             -0.686899951097510E+02
              0.110058883033883E+02
             -0.344057858141177E+02
              0.598213400738742E+01
              0.262947585253270E+02
              0.102491389366403E+02
              0.279595979806708E+02
              0.120918087845596E+02
              0.631969399657061E+02
              0.317397875109026E+02
             -0.328336547786335E+02
              0.358572062983616E+02
              0.380758540138589E+02
              0.121284412563698E+02
              0.488528487885580E+02
             -0.226560451351490E+02
              0.768469571285343E+02
              0.173679838083936E+02
             -0.273644148308655E+02
             -0.726507825565205E+01
             -0.187236510266681E+02
              0.262218334358042E+02
             -0.235033673412683E+02
             -0.219905427971923E+00
             -0.855369306938439E+01
              0.812903095703640E+02
              0.502501098444627E+02
             -0.688984105123302E+02
             -0.482492588349811E+01
             -0.557047424415753E+02
             -0.159634211152901E+02
             -0.269218794857614E+02
              0.381765986199082E+01
              0.605948361837749E+00
             -0.258998217823505E+02
              0.823969349034218E+01
             -0.606686475228682E+01
             -0.128548145525997E+02
              0.862427570577686E+02
              0.182195733203944E+02
             -0.810884457426316E+02
             -0.459803958718638E+02
              0.949305036555270E+02
              0.278914961440308E+02
             -0.107151223062475E+02
              0.105021043858737E+03
             -0.194914930288683E+02
             -0.123246641930147E+02
             -0.546558596902901E+01
              0.108187750762227E+02
              0.274264227156732E+02
              0.781001509879601E+01
              0.306451797839015E+02
             -0.188126991665955E+02
             -0.305995507664840E+02
             -0.419794361568109E+02
             -0.478773332284333E+02
              0.465537733565743E+02
              0.127305841873096E+02
              0.389244444854499E+02
              0.134210413956682E+02
              0.859468821448369E+02
              0.157324717378141E+02
             -0.849322686855039E+02
             -0.335804477688651E+02
              0.133473369531309E+02
             -0.303827748221202E+02
              0.629294628394638E+02
             -0.893082296397392E+01
              0.149261025684639E+02
              0.499604085365476E+02
             -0.710743441142388E+02
              0.150325122932837E+03
              0.209574891517378E+02
              0.272259530969525E+02
              0.349356482246959E+02
              0.103746334654667E+02
             -0.154889834892754E+01
              0.359447132394068E+02
             -0.358907615324492E+02
              0.777224070221962E+02
              0.688332644272928E+02
             -0.407797949414500E+02
              0.150263392817271E+02
              0.673185178695367E+02
             -0.224580695462436E+02
              0.155441621024564E+02
              0.436013658606532E+02
              0.423615553093314E+02
             -0.787883181571324E+02
             -0.152816413750106E+02
             -0.356814173617660E+02
             -0.151264491945113E+01
             -0.770997277408110E+01
             -0.534887726650334E+01
             -0.180732817507822E+02
             -0.295542192480914E+02
              0.645781891113197E+01
              0.111797306366661E+02
              0.537873538166491E+02
             -0.392497970052600E+02
              0.376990399288798E+02
              0.440779022458579E+02
             -0.186336797287736E+02
              0.875006244456673E+02
             -0.700684252761535E+02
             -0.103614224681571E+03
             -0.665878946536976E+01
             -0.272815654775889E+01
              0.383381904584235E+01
              0.793087163548046E+02
             -0.106875063272675E+02
              0.418625681243321E+02
              0.446522056630670E+02
              0.386800325082195E+02
             -0.999895008086037E+01
              0.629445783907585E+02
             -0.134356555354721E+02
             -0.309271499704904E+02
             -0.480398800947793E+02
              0.594389781194121E+01
              0.370432844595469E+02
             -0.601971069250735E+01
              0.393932443343824E+02
             -0.175088107345283E+01
              0.657208715062426E+02
              0.187599467692042E+02
              0.100245552339937E+02
             -0.121499282659165E+02
              0.333241746874631E+02
              0.364220976610252E+02
              0.232999372995765E+02
             -0.520107770360738E+00
             -0.552918688255369E+02
              0.262112939998139E+02
              0.176089879795420E+02
              0.403611093218422E+02
              0.273377510701985E+02
              0.374012979503045E+02
             -0.606770966673434E+01
              0.252997436148007E+02
             -0.299962910253569E+02
             -0.198703050162112E+01
             -0.571243059379482E+02
             -0.309159686654612E+02
              0.380486037785045E+02
             -0.939245366169838E+02
              0.295190881052775E+02
              0.184595247625891E+02
              0.844105413102463E+02
             -0.300238472166696E+02
              0.331119194679691E+02
             -0.138096473464217E+02
             -0.466106087774959E+02
             -0.763744007151093E+02
             -0.536968292703726E+01
             -0.863956692499581E+02
              0.199666461659226E+02
             -0.248344385765324E+02
              0.307325579177394E+02
              0.238398127349043E+02
             -0.242721413140620E+02
             -0.267119770334767E+02
              0.392613776026727E+02
             -0.591088032410114E+02
             -0.117574496721049E+02
             -0.196783785224613E+02
              0.214123094627987E+02
             -0.882212058449659E+01
              0.363456800211424E+01
             -0.201071794156706E+02
              0.561015430907617E+02
             -0.442882620629256E+02
              0.789991703708370E+01
              0.588261862706279E+02
             -0.325180544477061E+02
              0.363996290486628E+01
             -0.877154556476842E+01
             -0.671809738760731E+02
             -0.483453843129103E+02
             -0.859023323649121E+01
              0.242291175902652E+02
              0.304030227156079E+02
              0.862659717588929E+01
             -0.421210167700190E+01
              0.152356914108161E+02
             -0.441178608038464E+02
              0.328045587118430E+01
             -0.533361788204751E+02
             -0.326037680979822E+02
              0.477010044071895E+02
             -0.296413159157655E+02
              0.625797405657773E+02
             -0.216087108462959E+02
              0.354716313264126E+02
              0.242890104240890E+02
             -0.646639937372828E+02
             -0.281124339370417E+02
              0.937618372925937E+01
             -0.374016327707217E+02
             -0.341225287991230E+02
             -0.833947028826778E+02
             -0.541486781978861E+02
             -0.512546954663751E+02
             -0.417493396016112E+02
             -0.990603202093013E+00
              0.100879211973784E+02
              0.114616156551025E+01
              0.154809473090207E+02
             -0.551805928402449E+02
              0.142705301444793E+02
              0.258668019113574E+02
             -0.669561914332573E+02
             -0.704186590247529E+02
             -0.433218903806979E+02
             -0.173924334356121E+02
              0.178882775002584E+02
              0.452920055740333E+01
             -0.427188252023223E+02
              0.366989993307072E+02
             -0.217332182544983E+02
              0.519546069641910E+02
             -0.891035412969418E+02
              0.600938158004339E+02
             -0.223226615000979E+01
             -0.370482996312046E+02
             -0.217247278420388E+02
              0.470898161560221E+01
              0.376788253712921E+02
             -0.759243897467604E+02
             -0.121160373942951E+02
             -0.217489967015072E+02
              0.512573415232597E+02
              0.868311704784651E+02
             -0.969846312933431E+02
              0.947685635056338E+02
              0.468791356721714E+02
             -0.728601122550850E+02
             -0.367653019266057E+02
[...]
              0.284240605102291E+02
              0.142310569265119E+03
              0.243923213138060E+02
              0.123308358567741E+02
             -0.465932833376608E+02
             -0.639676955751813E+02
             -0.189566036940933E+02
              0.331127506231762E+02
             -0.430375722473434E+01
              0.191649957832861E+02
              0.337766416224972E+02
             -0.588302319747348E+02
              0.223647171416787E+02
              0.582479788179098E+02
              0.554648369072156E+02
             -0.423120010970661E+01
             -0.131606880168476E+01
             -0.995837503235285E+01
             -0.483874319175709E+02
             -0.677871094490868E+02
              0.788157605085291E+02
             -0.527350719376241E+01
             -0.589762848211078E+02
              0.177978336709882E+01
             -0.206639978468654E+02
              0.941747163631369E+02
             -0.217648186718060E+02
             -0.355217324325558E+02
              0.337089776380268E+02
             -0.146626732531290E+02
              0.391485693555679E+02
             -0.228726389171374E+01
              0.101406460790797E+03
              0.492080994114146E+02
             -0.499539808917098E+01
             -0.323671633929666E+02
              0.233602126736065E+02
             -0.530661145680348E+02
             -0.127926606845450E+02
              0.588257265373158E+02
             -0.288809851249566E+02
             -0.439835392947840E+02
             -0.224261380332247E+02
              0.520456247364768E+02
              0.124931619198262E+02
             -0.851729193567391E+02
              0.305273260246494E+02
              0.152047176985585E+02
              0.584208436738896E+01
             -0.515386034698217E+02
             -0.372910183470196E+01
              0.324322900006972E+02
              0.514118281721392E+02
              0.635671060834180E+02
              0.230619796340412E+02
              0.769879366719181E+00
             -0.500519781111992E+02
             -0.511706202319215E+02
             -0.749772612276085E+02
             -0.626990692917866E+01
              0.310458202788330E+02
             -0.377119168794692E+01
              0.548784498730540E+02
             -0.319393221980097E+02
              0.166952399372178E+02
             -0.104086620214615E+02
             -0.290792043900595E+02
              0.588107442271193E+02
              0.793301900574363E+01
              0.607129065191585E+02
              0.511690225278289E+01
              0.265534694113493E+02
             -0.193286228437552E+02
              0.588327732577567E+02
             -0.112661215202008E+02
             -0.951590780378968E-01
             -0.793178995727143E+02
             -0.128442835674844E+02
              0.721549470727248E+02
              0.675208487045870E+02
              0.253211026135843E+02
             -0.131039353132952E+02
              0.350395380718697E+01
             -0.174775583881176E+02
             -0.220134937669667E+01
              0.911612824290538E+02
              0.130091179776980E+01
             -0.191883806476058E+02
             -0.111133690185061E+03
             -0.553557543932414E+02
             -0.376632636668340E+02
             -0.660618813067155E+02
             -0.558093650205040E+02
             -0.685086393221974E+02
             -0.449017631371871E+02
             -0.411614755571532E+02
             -0.453867397596553E+02
              0.485249587649351E+02
             -0.294303914298388E+02
             -0.997333948997746E+02
              0.420492520391773E+02
             -0.261599386798431E+02
             -0.793808296247231E+02
              0.947606367421540E+02
             -0.220897158755830E+02
              0.228337942920654E+02
              0.456219191800967E+02
             -0.122210085953060E+01
              0.255695490137973E+02
              0.470231889360093E+01
              0.418323595572108E+00
             -0.151445844790488E+02
             -0.719007277502934E+02
              0.133606865089152E+02
             -0.129801146609541E+03
              0.627619007759061E+02
             -0.442299909787079E+02
             -0.163902108222325E+02
             -0.159019972808557E+02
              0.727644335547609E+01
             -0.228100329149920E+02
              0.297825154902623E+02
             -0.522923157774703E+02
              0.368331400982304E+02
              0.373054770403368E+02
              0.168156130238019E+02
              0.101200463100918E+02
              0.198717055552444E+02
              0.628875648919200E+01
              0.311117848476885E+02
             -0.799302501853566E+01
             -0.596090595412043E+02
              0.760993929399012E+01
             -0.154158141413034E+02
             -0.196308814223158E+01
              0.509031944162449E+02
             -0.829765694467738E+02
             -0.144511824427127E+01
              0.603773256075328E+00
              0.999833989249788E+01
              0.319505773229667E+02
             -0.124033587612714E+02
              0.838780073524393E+02
              0.488339666488024E+02
             -0.183475591718540E+02
             -0.954215296155394E+01
              0.110057852568275E+01
              0.772296398274251E+02
             -0.587779116829141E+02
             -0.106132129597223E+03
              0.310439547590604E+02
             -0.163805376337313E+02
             -0.140438115292026E+02
              0.131362198400680E+02
              0.771212886940990E+02
              0.465647165856269E+02
             -0.153982669850295E+02
             -0.505330771534829E+02
             -0.556643833980208E+01
              0.307419452843021E+02
             -0.112464523483508E+02
             -0.758766598654952E+02
             -0.279248423770707E+01
             -0.894055901608588E+02
             -0.477732505698105E+02
              0.772436553516537E+02
             -0.485770080880787E+02
             -0.639570974016933E+02
             -0.516346161217303E+02
             -0.351504587473912E+02
              0.342586327464568E+02
              0.825012220682981E+02
             -0.365966188826445E+01
              0.277570984519020E+02
             -0.184840556623182E+02
             -0.696738025760791E+02
              0.467142771831675E+02
             -0.447178389195030E+02
              0.322280401664326E+02
              0.376969719766274E+02
             -0.664009950347776E+01
              0.391315078595251E+02
              0.439489357680612E+02
              0.101207554062188E+03
             -0.155954886912917E+02
             -0.459059165224285E+02
             -0.615294356412098E+02
             -0.124865038687406E+02
             -0.235174690262154E+02
              0.103330524960824E+03
             -0.450923571557215E+02
              0.105549992329075E+02
              0.968811076726433E+01
             -0.265168328190130E+02
             -0.802776895650409E+02
             -0.702214713859667E+01
              0.983853035515838E+02
              0.950848521434546E+01
              0.809700193775194E+01
             -0.529859575368736E+02
             -0.607477601384664E+02
             -0.573776849712850E+01
              0.502105950971700E+02
             -0.223063372683156E+02
              0.108337983454472E+03
             -0.438109878309163E+02
              0.147141752552650E+02
             -0.224036842312260E+02
             -0.720878583602950E+02
              0.171848306215520E+01
             -0.503945713266810E+02
             -0.763425221554155E+02
              0.624209459232122E+01
              0.236479668278656E+01
              0.516100186452198E+02
              0.188469679835040E+02
             -0.325165307920591E+02
              0.230683426530711E+02
             -0.815076341025059E+02
             -0.523217379198621E+02
              0.905284354462049E+02
              0.141959284683228E+02
             -0.187717250891071E+02
             -0.353046370950669E+02
             -0.271737601635402E+01
             -0.593461867572751E+01
              0.834515695625954E+02
              0.419563616343747E+02
             -0.165891231380028E+02
             -0.121271000285391E+02
             -0.428793014356347E+02
             -0.200689540764729E+02
             -0.672017588922290E+02
              0.461921999419717E+02
              0.550130771062473E+01
              0.144943292659472E+02
              0.157190613959739E+02
             -0.644472850899657E+00
             -0.169484748387029E+02
             -0.296809784770615E+01
             -0.100896307691082E+03
             -0.230256493708386E+02
             -0.772827163449466E+01
             -0.949998977750212E+01
              0.547631229782711E+02
              0.626716542771670E+02
              0.165566618621008E+02
             -0.974120944568725E+02
              0.649811417755303E+02
             -0.215805781458450E+02
             -0.378457503003891E+02
             -0.867611986988834E+02
             -0.387477960343493E+02
              0.567589793052745E+02
              0.246046156341030E+02
              0.521586177458761E+01
              0.293813854446922E+02
             -0.567024843301082E+02
             -0.424462969343168E+02
              0.517947763675711E+02
              0.388732602514713E+02
              0.520435745727467E+02
             -0.109816419399780E+01
              0.692535960311528E+01
              0.571437507550656E+02
              0.966468986616566E+02
             -0.300483334723065E+02
              0.324838600426910E+02
             -0.120832041369039E+02
             -0.413841733779110E+02
             -0.315992127734977E+02
             -0.301969280486030E+02
             -0.131936702875750E+02
             -0.525025660830142E+02
             -0.217550697344697E+02
             -0.141654496451613E+03
              0.370150065292363E+02
              0.207908209342920E+02
             -0.396876946994483E+01
             -0.381417706992519E+02
             -0.204604601502337E+02
             -0.529288654292658E+02
              0.151304644834794E+02
              0.822999419653031E+02
             -0.252764799310536E+02
             -0.163870432369866E+02
              0.239047355967757E+02
             -0.491680991669053E+02
              0.883515830309403E+02
              0.154766975364841E+02
              0.226031614878925E+02
              0.491993515249244E+02
              0.312360572371983E+01
              0.544262122501120E+02
              0.144019832065325E+02
             -0.106215149705229E+02
              0.735914472779865E+01
              0.686793668378471E+00
              0.729209143481409E+02
              0.101559400385499E+02
              0.121748983051601E+02
             -0.130593854442765E+02
              0.132780761658354E+02
             -0.914671605456809E+02
             -0.327041311384677E+02
             -0.459407241833987E+02
              0.486721337168065E+02
             -0.292571221921828E+02
             -0.660156458715890E+02
              0.540963073210717E+02
             -0.122280995507784E+02
              0.441519031845975E+02
             -0.901941395168325E+02
              0.232323682793631E+02
              0.856076495790617E+01
              0.588440443954073E+01
             -0.839257203192324E+01
             -0.907741297511268E+01
              0.481319610734483E+02
              0.199353125971004E+01
             -0.477512152181499E+02
             -0.177172334165801E+02
              0.276919028919064E+02
             -0.118367253596326E+03
             -0.932771117401080E+02
              0.394675239789711E+01
              0.118539664909839E+02
             -0.415672169279642E+02
             -0.386706632286297E+01
              0.112459276424174E+03
              0.307113954507778E+02
             -0.573541831787595E+02
              0.927739014349294E+01
             -0.968062863589614E+01
              0.106405690457283E+02
             -0.339434440013693E+02
              0.196671432023071E+02
              0.285487210034250E+02
             -0.301764480881923E+01
              0.108618997867865E+03
             -0.140142410781183E+02
             -0.316996161149260E+02
              0.144463129515514E+02
              0.468085351595901E+02
             -0.356844487734169E+02
             -0.317674463468560E+01
              0.968740510714758E+02
             -0.462024301507358E+01
              0.623714437921437E+02
              0.136102904194397E+02
             -0.900928768765833E+01
             -0.305734575699278E+02
              0.568017648643448E+02
             -0.516514465744252E+02
             -0.219507309040256E+01
             -0.170866825526535E+02
             -0.406584954042760E+02
              0.185538395935385E+02
              0.240689806399336E+02
              0.115825972063705E+02
              0.713045780830726E+00
             -0.386356673670635E+02
              0.215550964567944E+02
             -0.673745721454256E+01
             -0.247015172857712E+02
             -0.211168938851356E+02
              0.203334263869539E+02
             -0.598086958055114E+01
             -0.350736303468844E+02
             -0.107072440689768E+03
              0.103442774160304E+02
              0.248860699629651E+02
             -0.389467165135440E+02
             -0.212074212223687E+02
              0.810403174591378E+02
              0.660420218648750E+01
              0.312953150275138E+02
              0.398126645740254E+01
              0.323590557486222E+02
              0.647600228142687E+01
             -0.374462041855907E+02
             -0.244311660051196E+01
              0.877540684104827E+01
              0.275308050299612E+02
              0.784223608984742E+02
              0.509204217229113E+02
              0.208978616133720E+00
              0.170016200227349E+02
              0.615638478825056E+02
              0.237111530215964E+02
             -0.755091295954374E+02
             -0.274728445382923E+02
              0.151201254232338E+02
              0.566025971763588E+01
              0.255954692552235E+02
             -0.549495398462723E+02
              0.897799571467003E+01
              0.387992145684933E+02
              0.499730783759022E+02
             -0.436429270819508E+02
             -0.684841014412962E+01
             -0.210011555034140E+01
             -0.134572481299978E+02
             -0.366076436653275E+02
             -0.215528905779857E+02
             -0.214029537710596E+01
              0.798649452733468E+01
              0.423038903372554E+02
             -0.309489368479897E+02
              0.829281124014343E+02
              0.328731203768550E+02
              0.221133675276405E+02
              0.334806502296525E+02
              0.323675900891797E+02
              0.348079794698856E+02
              0.539228793578749E+02
             -0.435708336138927E+02
              0.622050833339263E+02
             -0.112738133552846E+03
              0.308432066694911E+02
             -0.106915920259112E+03
              0.857616029681145E+02
              0.693806969981131E+02
             -0.110132234623218E+02
             -0.494757998982753E+02
             -0.431332499787229E+02
             -0.625290082341253E+02
             -0.631433091798746E+02
              0.554146078468058E+02
              0.407080664291130E+02
              0.237675139051142E+02
              0.374274996676106E+02
              0.405343269579492E+02
             -0.383712349736555E+02
             -0.198303493756808E+02
              0.588658051732618E+02
             -0.116744307775448E+02
              0.553894239712851E+02
              0.702658842682706E+02
             -0.558988744152443E+01
             -0.709327071280698E+02
             -0.812510074945294E+00
             -0.247845037358003E+01
             -0.886754661417649E+01
             -0.181164292287258E+01
             -0.655248223472506E+02
             -0.210378022925244E+02
              0.547240141495620E+01
              0.909552720305885E+01
              0.471048727992444E+02
             -0.399572995222205E+02
              0.658605017586194E+02
             -0.426759718061998E+02
              0.211862146131253E+02
              0.352068630272296E+02
 
 BEEF-vdW xc energy contributions
           1 :   -785.351532392712     
           2 :    721.027830830384     
           3 :   -609.846332942490     
           4 :    479.233419678803     
           5 :   -356.869446869647     
           6 :    262.579307489271     
           7 :   -203.915869426360     
           8 :    176.208977489384     
           9 :   -166.645178130798     
          10 :    160.476544329698     
          11 :   -146.834281662409     
          12 :    121.957785899100     
          13 :   -89.0083603506723     
          14 :    55.1096612955238     
          15 :   -27.3180954402127     
          16 :    9.35062993127644     
          17 :  -0.330733883723042     
          18 :   -4.21060738379435     
          19 :    9.80868253182507     
          20 :   -20.3424942782649     
          21 :    36.3672259176475     
          22 :   -55.1559450641606     
          23 :    72.2559436633595     
          24 :   -83.7103264122971     
          25 :    87.8553171530672     
          26 :   -85.9041355489687     
          27 :    81.1543724421334     
          28 :   -77.2990357208554     
          29 :    76.6796207083762     
          30 :   -79.3062977642035     
          31 :   -86.2871674513912     
          32 :   -66.0408178094270     

     Writing output data file ./pwscf.save/
 
     init_run     :    385.40s CPU    390.05s WALL (       1 calls)
     electrons    :  16217.63s CPU  16368.19s WALL (       1 calls)
     forces       :    113.52s CPU    114.90s WALL (       1 calls)

     Called by init_run:
     wfcinit      :    335.21s CPU    338.79s WALL (       1 calls)
     potinit      :     47.05s CPU     47.43s WALL (       1 calls)
     hinit0       :      1.22s CPU      1.27s WALL (       1 calls)

     Called by electrons:
     c_bands      :  13543.23s CPU  13661.00s WALL (      22 calls)
     sum_band     :   1973.91s CPU   1988.80s WALL (      22 calls)
     v_of_rho     :    121.52s CPU    126.36s WALL (      22 calls)
     newd         :     34.32s CPU     47.27s WALL (      22 calls)
     PAW_pot      :    156.57s CPU    156.63s WALL (      22 calls)
     mix_rho      :    435.85s CPU    436.82s WALL (      22 calls)
     vdW_kernel   :     35.64s CPU     35.64s WALL (       1 calls)

     Called by c_bands:
     init_us_2    :     87.21s CPU     87.52s WALL (     598 calls)
     cegterg      :  12636.50s CPU  12753.61s WALL (     286 calls)

     Called by *egterg:
     cdiaghg      :    118.46s CPU    118.54s WALL (    1761 calls)
     h_psi        :   8240.25s CPU   8282.91s WALL (    1787 calls)
     s_psi        :   1328.24s CPU   1328.82s WALL (    1787 calls)
     g_psi        :     17.54s CPU     17.56s WALL (    1488 calls)

     Called by h_psi:
     h_psi:calbec :   1246.73s CPU   1247.41s WALL (    1787 calls)
     vloc_psi     :   5637.56s CPU   5642.12s WALL (    1787 calls)
     add_vuspsi   :   1328.47s CPU   1329.15s WALL (    1787 calls)

     General routines
     calbec       :   1837.04s CPU   1838.06s WALL (    2125 calls)
     fft          :     56.62s CPU     56.69s WALL (    3342 calls)
     ffts         :    151.55s CPU    151.64s WALL (    9280 calls)
     fftw         :   5830.63s CPU   5834.56s WALL (  364322 calls)
 
     Parallel routines
 
     PWSCF        :      4h40m CPU      4h43m WALL

 
   This run was terminated on:  19:37:15  20May2022            

=------------------------------------------------------------------------------=
   JOB DONE.
=------------------------------------------------------------------------------=
