
     Program PWSCF v.6.7MaX starts on 20May2022 at 14:55: 8 

     This program is part of the open-source Quantum ESPRESSO suite
     for quantum simulation of materials; please cite
         "P. Giannozzi et al., J. Phys.:Condens. Matter 21 395502 (2009);
         "P. Giannozzi et al., J. Phys.:Condens. Matter 29 465901 (2017);
          URL http://www.quantum-espresso.org", 
     in publications or presentations arising from this work. More details at
     http://www.quantum-espresso.org/quote

     Parallel version (MPI), running on     1 processors

     MPI processes distributed on     1 nodes
     Reading input from c3h8-ensemble.in
Warning: card &CELL ignored
Warning: card / ignored

     Current dimensions of program PWSCF are:
     Max number of different atomic species (ntypx) = 10
     Max number of k-points (npk) =  40000
     Max angular momentum in pseudopotentials (lmaxx) =  3
     file Pt.pbe-n-kjpaw_psl.1.0.0.UPF: wavefunction(s)  6S 5D renormalized
     file C.pbe-n-kjpaw_psl.1.0.0.UPF: wavefunction(s)  2S 2P renormalized
     file H.pbe-kjpaw_psl.1.0.0.UPF: wavefunction(s)  1S renormalized

     **************************************************************************
     Initializing libbeef V0.1.2 with the BEEF-vdW functional.
     Citation: Wellendorff et al., PRB 85, 235149 (2012).
     **************************************************************************


     IMPORTANT: XC functional enforced from input :
     Exchange-correlation= BEEF-VDW
                           (   1   4  43  14   2   0   0)
     Any further DFT definition will be discarded
     Please, verify this is what you really want


     Subspace diagonalization in iterative solution of the eigenvalue problem:
     a serial algorithm will be used

 
     G-vector sticks info
     --------------------
     sticks:   dense  smooth     PW     G-vecs:    dense   smooth      PW
     Sum        4267    4267   1159               758709   758709  106933
 


     bravais-lattice index     =            0
     lattice parameter (alat)  =      16.0349  a.u.
     unit-cell volume          =   12075.3171 (a.u.)^3
     number of atoms/cell      =           47
     number of atomic types    =            3
     number of electrons       =       380.00
     number of Kohn-Sham states=          228
     kinetic-energy cutoff     =      60.0000  Ry
     charge density cutoff     =     240.0000  Ry
     scf convergence threshold =      1.0E-06
     mixing beta               =       0.7000
     number of iterations used =            8  local-TF  mixing
     Exchange-correlation= BEEF-VDW
                           (   1   4  43  14   2   0   0)

     celldm(1)=  16.034858  celldm(2)=   0.000000  celldm(3)=   0.000000
     celldm(4)=   0.000000  celldm(5)=   0.000000  celldm(6)=   0.000000

     crystal axes: (cart. coord. in units of alat)
               a(1) = (   1.000000   0.000000   0.000000 )  
               a(2) = (   0.500000   0.866025   0.000000 )  
               a(3) = (   0.000000   0.000000   3.381992 )  

     reciprocal axes: (cart. coord. in units 2 pi/alat)
               b(1) = (  1.000000 -0.577350  0.000000 )  
               b(2) = (  0.000000  1.154701  0.000000 )  
               b(3) = (  0.000000  0.000000  0.295684 )  


     PseudoPot. # 1 for Pt read from file:
     /users/bkreitz1/quantum-espresso/potentials/Pt.pbe-n-kjpaw_psl.1.0.0.UPF
     MD5 check sum: 04dc8a03c51ece93fc7b5889c2958091
     Pseudo is Projector augmented-wave + core cor, Zval = 10.0
     Generated using 'atomic' code by A. Dal Corso  v.6.7MaX
     Shape of augmentation charge: PSQ
     Using radial grid of 1277 points,  6 beta functions with: 
                l(1) =   0
                l(2) =   0
                l(3) =   1
                l(4) =   1
                l(5) =   2
                l(6) =   2
     Q(r) pseudized with 0 coefficients 


     PseudoPot. # 2 for C  read from file:
     /users/bkreitz1/quantum-espresso/potentials/C.pbe-n-kjpaw_psl.1.0.0.UPF
     MD5 check sum: a169b0ebad56f5ec0d79c4633f80bf22
     Pseudo is Projector augmented-wave + core cor, Zval =  4.0
     Generated using 'atomic' code by A. Dal Corso  v.6.7MaX
     Shape of augmentation charge: PSQ
     Using radial grid of 1073 points,  4 beta functions with: 
                l(1) =   0
                l(2) =   0
                l(3) =   1
                l(4) =   1
     Q(r) pseudized with 0 coefficients 


     PseudoPot. # 3 for H  read from file:
     /users/bkreitz1/quantum-espresso/potentials/H.pbe-kjpaw_psl.1.0.0.UPF
     MD5 check sum: ae98473e6dc62675f0d0baffdab24f65
     Pseudo is Projector augmented-wave, Zval =  1.0
     Generated using 'atomic' code by A. Dal Corso  v.6.7MaX
     Shape of augmentation charge: PSQ
     Using radial grid of  929 points,  2 beta functions with: 
                l(1) =   0
                l(2) =   0
     Q(r) pseudized with 0 coefficients 


     atomic species   valence    mass     pseudopotential
        Pt            10.00   195.08400     Pt( 1.00)
        C              4.00    12.01100     C ( 1.00)
        H              1.00     1.00800     H ( 1.00)

     No symmetry found



   Cartesian axes

     site n.     atom                  positions (alat units)
         1           Pt  tau(   1) = (   0.0000000   0.0000000   1.0017346  )
         2           Pt  tau(   2) = (   0.3333333   0.0000000   1.0017346  )
         3           Pt  tau(   3) = (   0.6666667   0.0000000   1.0017346  )
         4           Pt  tau(   4) = (   0.1666667   0.2886751   1.0017346  )
         5           Pt  tau(   5) = (   0.5000000   0.2886751   1.0017346  )
         6           Pt  tau(   6) = (   0.8333333   0.2886751   1.0017346  )
         7           Pt  tau(   7) = (   0.3333333   0.5773503   1.0017346  )
         8           Pt  tau(   8) = (   0.6666667   0.5773503   1.0017346  )
         9           Pt  tau(   9) = (   1.0000000   0.5773503   1.0017346  )
        10           Pt  tau(  10) = (   0.1666667   0.0962250   1.2739001  )
        11           Pt  tau(  11) = (   0.5000000   0.0962250   1.2739001  )
        12           Pt  tau(  12) = (   0.8333333   0.0962250   1.2739001  )
        13           Pt  tau(  13) = (   0.3333333   0.3849002   1.2739001  )
        14           Pt  tau(  14) = (   0.6666667   0.3849002   1.2739001  )
        15           Pt  tau(  15) = (   1.0000000   0.3849002   1.2739001  )
        16           Pt  tau(  16) = (   0.5000000   0.6735753   1.2739001  )
        17           Pt  tau(  17) = (   0.8333333   0.6735753   1.2739001  )
        18           Pt  tau(  18) = (   1.1666667   0.6735753   1.2739001  )
        19           Pt  tau(  19) = (   0.0002389   0.1923228   1.5425632  )
        20           Pt  tau(  20) = (   0.3334307   0.1924162   1.5426338  )
        21           Pt  tau(  21) = (   0.6667829   0.1922848   1.5425520  )
        22           Pt  tau(  22) = (   0.1668958   0.4809837   1.5425941  )
        23           Pt  tau(  23) = (   0.4999443   0.4809874   1.5423138  )
        24           Pt  tau(  24) = (   0.8335601   0.4809969   1.5421366  )
        25           Pt  tau(  25) = (   0.3334722   0.7697163   1.5427874  )
        26           Pt  tau(  26) = (   0.6667598   0.7699237   1.5422984  )
        27           Pt  tau(  27) = (   1.0002122   0.7697848   1.5425623  )
        28           Pt  tau(  28) = (   0.0002905  -0.0001645   1.8167557  )
        29           Pt  tau(  29) = (   0.3337904  -0.0001014   1.8163700  )
        30           Pt  tau(  30) = (   0.6670626  -0.0002190   1.8169546  )
        31           Pt  tau(  31) = (   0.1670317   0.2884902   1.8168415  )
        32           Pt  tau(  32) = (   0.5003406   0.2884385   1.8163914  )
        33           Pt  tau(  33) = (   0.8338184   0.2882988   1.8159024  )
        34           Pt  tau(  34) = (   0.3336086   0.5771862   1.8167796  )
        35           Pt  tau(  35) = (   0.6667541   0.5773346   1.8149833  )
        36           Pt  tau(  36) = (   1.0005306   0.5771976   1.8159789  )
        37           C   tau(  37) = (   0.6610056   0.3809764   2.2711235  )
        38           C   tau(  38) = (   0.8147949   0.4754031   2.2647376  )
        39           C   tau(  39) = (   0.7882488   0.6539096   2.2675130  )
        40           H   tau(  40) = (   0.6830994   0.2541277   2.2647244  )
        41           H   tau(  41) = (   0.5965824   0.4046537   2.3802573  )
        42           H   tau(  42) = (   0.5834649   0.4121076   2.1727460  )
        43           H   tau(  43) = (   0.8800067   0.4436607   2.1577055  )
        44           H   tau(  44) = (   0.8903011   0.4415257   2.3638462  )
        45           H   tau(  45) = (   0.8995775   0.7184596   2.2595144  )
        46           H   tau(  46) = (   0.7290118   0.6903649   2.3761148  )
        47           H   tau(  47) = (   0.7142660   0.6914247   2.1697732  )

     number of k points=    13  Marzari-Vanderbilt smearing, width (Ry)=  0.0200
                       cart. coord. in units 2pi/alat
        k(    1) = (   0.0000000   0.0000000   0.0000000), wk =   0.0800000
        k(    2) = (   0.0000000   0.2309401   0.0000000), wk =   0.1600000
        k(    3) = (   0.0000000   0.4618802   0.0000000), wk =   0.1600000
        k(    4) = (   0.2000000  -0.1154701   0.0000000), wk =   0.1600000
        k(    5) = (   0.2000000   0.1154701   0.0000000), wk =   0.1600000
        k(    6) = (   0.2000000   0.3464102   0.0000000), wk =   0.1600000
        k(    7) = (   0.2000000  -0.5773503   0.0000000), wk =   0.1600000
        k(    8) = (   0.2000000  -0.3464102   0.0000000), wk =   0.1600000
        k(    9) = (   0.4000000  -0.2309401   0.0000000), wk =   0.1600000
        k(   10) = (   0.4000000  -0.0000000   0.0000000), wk =   0.1600000
        k(   11) = (   0.4000000   0.2309401   0.0000000), wk =   0.1600000
        k(   12) = (   0.4000000  -0.6928203   0.0000000), wk =   0.1600000
        k(   13) = (   0.4000000  -0.4618802   0.0000000), wk =   0.1600000

     Dense  grid:   758709 G-vectors     FFT dimensions: (  80,  80, 270)

     Estimated max dynamical RAM per process >       9.26 GB

     Check: negative core charge=   -0.000002

     Initial potential from superposition of free atoms

     starting charge  379.99369, renormalised to  380.00000

     negative rho (up, down):  1.033E-02 0.000E+00


     %%%%%%%%%%%%%%%%%%%%%%%%%%%%%%%%%%%%%%%%%%%%%%%%%%%%%%%%%%%%%%%%%%%%%%%%
     %                                                                      %
     % You are using vdW-DF, which was implemented by the Thonhauser group. %
     % Please cite the following two papers that made this development      %
     % possible and the two reviews that describe the various versions:     %
     %                                                                      %
     %   T. Thonhauser et al., PRL 115, 136402 (2015).                      %
     %   T. Thonhauser et al., PRB 76, 125112 (2007).                       %
     %   K. Berland et al., Rep. Prog. Phys. 78, 066501 (2015).             %
     %   D.C. Langreth et al., J. Phys.: Condens. Matter 21, 084203 (2009). %
     %                                                                      %
     %                                                                      %
     % If you are calculating the stress with vdW-DF, please also cite:     %
     %                                                                      %
     %   R. Sabatini et al., J. Phys.: Condens. Matter 24, 424209 (2012).   %
     %                                                                      %
     %%%%%%%%%%%%%%%%%%%%%%%%%%%%%%%%%%%%%%%%%%%%%%%%%%%%%%%%%%%%%%%%%%%%%%%%


     Starting wfcs are  344 randomized atomic wfcs
     Checking if some PAW data can be deallocated... 

     total cpu time spent up to now is      376.1 secs

     Self-consistent Calculation

     iteration #  1     ecut=    60.00 Ry     beta= 0.70
     Davidson diagonalization with overlap
     ethr =  1.00E-02,  avg # of iterations =  2.9

     Threshold (ethr) on eigenvalues was too large:
     Diagonalizing with lowered threshold

     Davidson diagonalization with overlap
     ethr =  7.37E-04,  avg # of iterations =  3.1

     negative rho (up, down):  9.747E-03 0.000E+00

     total cpu time spent up to now is     1838.0 secs

     total energy              =  -27821.03474257 Ry
     estimated scf accuracy    <       3.00864385 Ry

     iteration #  2     ecut=    60.00 Ry     beta= 0.70
     Davidson diagonalization with overlap
     ethr =  7.92E-04,  avg # of iterations =  3.3

     negative rho (up, down):  8.001E-03 0.000E+00

     total cpu time spent up to now is     2507.1 secs

     total energy              =  -27821.07668630 Ry
     estimated scf accuracy    <       1.25673732 Ry

     iteration #  3     ecut=    60.00 Ry     beta= 0.70
     Davidson diagonalization with overlap
     ethr =  3.31E-04,  avg # of iterations =  4.6

     negative rho (up, down):  4.074E-03 0.000E+00

     total cpu time spent up to now is     3201.3 secs

     total energy              =  -27821.05872774 Ry
     estimated scf accuracy    <       0.49719153 Ry

     iteration #  4     ecut=    60.00 Ry     beta= 0.70
     Davidson diagonalization with overlap
     c_bands:  2 eigenvalues not converged
     c_bands:  2 eigenvalues not converged
     ethr =  1.31E-04,  avg # of iterations = 13.1

     negative rho (up, down):  2.727E-03 0.000E+00

     total cpu time spent up to now is     4086.4 secs

     total energy              =  -27821.12189594 Ry
     estimated scf accuracy    <       0.14477946 Ry

     iteration #  5     ecut=    60.00 Ry     beta= 0.70
     Davidson diagonalization with overlap
     c_bands:  1 eigenvalues not converged
     ethr =  3.81E-05,  avg # of iterations =  8.0

     negative rho (up, down):  1.544E-03 0.000E+00

     total cpu time spent up to now is     4924.5 secs

     total energy              =  -27821.12455665 Ry
     estimated scf accuracy    <       0.06367174 Ry

     iteration #  6     ecut=    60.00 Ry     beta= 0.70
     Davidson diagonalization with overlap
     c_bands:  1 eigenvalues not converged
     c_bands:  1 eigenvalues not converged
     c_bands:  1 eigenvalues not converged
     ethr =  1.68E-05,  avg # of iterations =  9.9

     negative rho (up, down):  1.389E-03 0.000E+00

     total cpu time spent up to now is     5671.0 secs

     total energy              =  -27821.12414878 Ry
     estimated scf accuracy    <       0.15940143 Ry

     iteration #  7     ecut=    60.00 Ry     beta= 0.70
     Davidson diagonalization with overlap
     c_bands:  1 eigenvalues not converged
     c_bands:  1 eigenvalues not converged
     c_bands:  1 eigenvalues not converged
     ethr =  1.68E-05,  avg # of iterations = 13.1

     negative rho (up, down):  1.767E-02 0.000E+00

     total cpu time spent up to now is     6380.5 secs

     total energy              =  -27821.12021853 Ry
     estimated scf accuracy    <       0.08697139 Ry

     iteration #  8     ecut=    60.00 Ry     beta= 0.70
     Davidson diagonalization with overlap
     c_bands:  1 eigenvalues not converged
     c_bands:  1 eigenvalues not converged
     ethr =  1.68E-05,  avg # of iterations =  9.4

     negative rho (up, down):  4.478E-02 0.000E+00

     total cpu time spent up to now is     7030.7 secs

     total energy              =  -27821.12069786 Ry
     estimated scf accuracy    <       0.06577173 Ry

     iteration #  9     ecut=    60.00 Ry     beta= 0.70
     Davidson diagonalization with overlap
     ethr =  1.68E-05,  avg # of iterations =  6.7

     negative rho (up, down):  5.617E-02 0.000E+00

     total cpu time spent up to now is     7658.1 secs

     total energy              =  -27821.12065244 Ry
     estimated scf accuracy    <       0.02016610 Ry

     iteration # 10     ecut=    60.00 Ry     beta= 0.70
     Davidson diagonalization with overlap
     ethr =  5.31E-06,  avg # of iterations =  7.9

     negative rho (up, down):  6.021E-02 0.000E+00

     total cpu time spent up to now is     8320.3 secs

     total energy              =  -27821.12044567 Ry
     estimated scf accuracy    <       0.00869951 Ry

     iteration # 11     ecut=    60.00 Ry     beta= 0.70
     Davidson diagonalization with overlap
     ethr =  2.29E-06,  avg # of iterations =  8.5

     negative rho (up, down):  4.845E-02 0.000E+00

     total cpu time spent up to now is     8997.3 secs

     total energy              =  -27821.11954333 Ry
     estimated scf accuracy    <       0.00436672 Ry

     iteration # 12     ecut=    60.00 Ry     beta= 0.70
     Davidson diagonalization with overlap
     c_bands:  2 eigenvalues not converged
     ethr =  1.15E-06,  avg # of iterations = 10.8

     negative rho (up, down):  4.428E-02 0.000E+00

     total cpu time spent up to now is     9687.8 secs

     total energy              =  -27821.11925558 Ry
     estimated scf accuracy    <       0.00229365 Ry

     iteration # 13     ecut=    60.00 Ry     beta= 0.70
     Davidson diagonalization with overlap
     c_bands:  1 eigenvalues not converged
     ethr =  6.04E-07,  avg # of iterations = 10.5

     negative rho (up, down):  3.920E-02 0.000E+00

     total cpu time spent up to now is    10337.0 secs

     total energy              =  -27821.11890358 Ry
     estimated scf accuracy    <       0.00128005 Ry

     iteration # 14     ecut=    60.00 Ry     beta= 0.70
     Davidson diagonalization with overlap
     c_bands:  1 eigenvalues not converged
     c_bands:  1 eigenvalues not converged
     c_bands:  1 eigenvalues not converged
     c_bands:  1 eigenvalues not converged
     c_bands:  2 eigenvalues not converged
     c_bands:  1 eigenvalues not converged
     ethr =  3.37E-07,  avg # of iterations = 14.2

     negative rho (up, down):  3.610E-02 0.000E+00

     total cpu time spent up to now is    11044.9 secs

     total energy              =  -27821.11874667 Ry
     estimated scf accuracy    <       0.00069849 Ry

     iteration # 15     ecut=    60.00 Ry     beta= 0.70
     Davidson diagonalization with overlap
     c_bands:  1 eigenvalues not converged
     c_bands:  1 eigenvalues not converged
     c_bands:  1 eigenvalues not converged
     ethr =  1.84E-07,  avg # of iterations = 11.5

     negative rho (up, down):  2.875E-02 0.000E+00

     total cpu time spent up to now is    11713.9 secs

     total energy              =  -27821.11846446 Ry
     estimated scf accuracy    <       0.00049331 Ry

     iteration # 16     ecut=    60.00 Ry     beta= 0.70
     Davidson diagonalization with overlap
     c_bands:  1 eigenvalues not converged
     c_bands:  1 eigenvalues not converged
     ethr =  1.30E-07,  avg # of iterations = 11.8

     negative rho (up, down):  2.550E-02 0.000E+00

     total cpu time spent up to now is    12380.6 secs

     total energy              =  -27821.11835685 Ry
     estimated scf accuracy    <       0.00041281 Ry

     iteration # 17     ecut=    60.00 Ry     beta= 0.70
     Davidson diagonalization with overlap
     ethr =  1.09E-07,  avg # of iterations =  6.8

     negative rho (up, down):  1.953E-02 0.000E+00

     total cpu time spent up to now is    12991.1 secs

     total energy              =  -27821.11820443 Ry
     estimated scf accuracy    <       0.00028701 Ry

     iteration # 18     ecut=    60.00 Ry     beta= 0.70
     Davidson diagonalization with overlap
     c_bands:  1 eigenvalues not converged
     c_bands:  1 eigenvalues not converged
     ethr =  7.55E-08,  avg # of iterations =  8.6

     negative rho (up, down):  1.673E-02 0.000E+00

     total cpu time spent up to now is    13627.9 secs

     total energy              =  -27821.11816669 Ry
     estimated scf accuracy    <       0.00018129 Ry

     iteration # 19     ecut=    60.00 Ry     beta= 0.70
     Davidson diagonalization with overlap
     ethr =  4.77E-08,  avg # of iterations =  4.2

     negative rho (up, down):  1.418E-02 0.000E+00

     total cpu time spent up to now is    14223.9 secs

     total energy              =  -27821.11814539 Ry
     estimated scf accuracy    <       0.00009148 Ry

     iteration # 20     ecut=    60.00 Ry     beta= 0.70
     Davidson diagonalization with overlap
     c_bands:  1 eigenvalues not converged
     c_bands:  1 eigenvalues not converged
     ethr =  2.41E-08,  avg # of iterations =  6.8

     negative rho (up, down):  1.248E-02 0.000E+00

     total cpu time spent up to now is    14845.5 secs

     total energy              =  -27821.11814447 Ry
     estimated scf accuracy    <       0.00004090 Ry

     iteration # 21     ecut=    60.00 Ry     beta= 0.70
     Davidson diagonalization with overlap
     c_bands:  1 eigenvalues not converged
     ethr =  1.08E-08,  avg # of iterations =  3.4

     negative rho (up, down):  1.208E-02 0.000E+00

     total cpu time spent up to now is    15453.2 secs

     total energy              =  -27821.11814572 Ry
     estimated scf accuracy    <       0.00001240 Ry

     iteration # 22     ecut=    60.00 Ry     beta= 0.70
     Davidson diagonalization with overlap
     ethr =  3.26E-09,  avg # of iterations =  4.0

     negative rho (up, down):  1.157E-02 0.000E+00

     total cpu time spent up to now is    16121.3 secs

     total energy              =  -27821.11814697 Ry
     estimated scf accuracy    <       0.00001239 Ry

     iteration # 23     ecut=    60.00 Ry     beta= 0.70
     Davidson diagonalization with overlap
     ethr =  3.26E-09,  avg # of iterations =  1.8

     negative rho (up, down):  1.147E-02 0.000E+00

     total cpu time spent up to now is    16689.8 secs

     total energy              =  -27821.11814732 Ry
     estimated scf accuracy    <       0.00000457 Ry

     iteration # 24     ecut=    60.00 Ry     beta= 0.70
     Davidson diagonalization with overlap
     ethr =  1.20E-09,  avg # of iterations =  2.0

     negative rho (up, down):  1.146E-02 0.000E+00

     total cpu time spent up to now is    17290.8 secs

     total energy              =  -27821.11814758 Ry
     estimated scf accuracy    <       0.00000224 Ry

     iteration # 25     ecut=    60.00 Ry     beta= 0.70
     Davidson diagonalization with overlap
     ethr =  5.88E-10,  avg # of iterations =  2.9

     negative rho (up, down):  1.159E-02 0.000E+00

     total cpu time spent up to now is    17914.8 secs

     End of self-consistent calculation

          k = 0.0000 0.0000 0.0000 ( 94897 PWs)   bands (ev):

   -12.4998  -9.9804  -7.5500  -7.4575  -6.1468  -5.0718  -5.0369  -5.0368
    -5.0362  -5.0338  -5.0333  -5.0323  -5.0239  -4.4792  -4.4773  -4.4768
    -4.4758  -4.4754  -4.4750  -4.3069  -4.0038  -4.0029  -4.0020  -4.0008
    -4.0003  -3.9987  -3.7983  -3.7870  -3.7857  -3.7850  -3.7838  -3.7824
    -3.7561  -3.5598  -3.5596  -3.5543  -3.5536  -3.5385  -3.5378  -3.5376
    -3.5370  -3.5364  -3.5350  -3.5231  -3.5224  -2.9410  -2.9406  -2.9109
    -2.9105  -2.8628  -2.8534  -2.8530  -2.8521  -2.8501  -2.8496  -2.8193
    -2.7143  -2.7139  -2.6134  -2.6123  -2.4138  -2.1056  -2.1046  -2.1018
    -2.1011  -2.1003  -2.0963  -2.0370  -1.9498  -1.9498  -1.9174  -1.9172
    -1.9059  -1.9050  -1.8910  -1.8883  -1.8856  -1.8849  -1.8829  -1.8817
    -1.8781  -1.8483  -1.8480  -1.6933  -1.6902  -1.6875  -1.6870  -1.6857
    -1.6848  -1.5402  -1.5400  -1.5374  -1.5356  -1.5341  -1.5327  -1.4369
    -1.4366  -1.3390  -1.3386  -1.3261  -1.2891  -1.2817  -1.2728  -1.2703
    -1.2610  -1.2466  -1.2269  -1.2268  -1.2096  -1.1242  -1.0639  -1.0616
    -1.0604  -1.0579  -1.0541  -1.0173  -0.9754  -0.5714  -0.5703  -0.5690
    -0.5675  -0.5669  -0.5655  -0.4944  -0.4919  -0.4897  -0.4894  -0.4888
    -0.4854  -0.4201  -0.4196  -0.2489  -0.2469  -0.2440  -0.2416  -0.2411
    -0.2358  -0.1040  -0.1033  -0.1032  -0.0995  -0.0928  -0.0927   0.1613
     0.1614   0.1626   0.1641   0.1654   0.1657   0.2425   0.2436   0.4252
     0.4252   0.4282   0.4285   0.4288   0.4309   0.5950   0.5954   0.5970
     0.5985   0.5990   0.5996   0.6417   0.6431   0.6440   0.6476   0.6492
     0.6527   0.7732   0.7737   0.7933   0.7937   0.7947   0.7953   0.7956
     0.7958   0.8983   0.9003   0.9014   0.9021   0.9022   0.9030   0.9076
     0.9079   1.0017   1.0028   1.0051   1.0054   1.0069   1.0071   1.1074
     1.1078   1.1153   1.1156   1.1170   1.1171   1.2207   1.3324   1.3350
     1.4407   1.4414   1.4422   1.4430   1.4442   1.4445   2.3023   2.3301
     2.3317   2.3330   2.3445   2.3458   2.3581   4.6573   4.6575   4.6637
     4.6751   4.6803   4.6859   5.7957   6.1967   6.1971   6.2529   6.2538
     6.2550   6.2553   6.3074   6.6849

          k = 0.0000 0.2309 0.0000 ( 94738 PWs)   bands (ev):

   -12.4997  -9.9810  -7.5493  -7.3106  -6.0020  -5.5510  -5.1514  -5.1507
    -4.9245  -4.8888  -4.8446  -4.8008  -4.8000  -4.5931  -4.5719  -4.4156
    -4.4154  -4.3994  -4.3952  -4.3003  -4.1182  -3.9836  -3.9830  -3.9531
    -3.9442  -3.8860  -3.8838  -3.8172  -3.8157  -3.8148  -3.8132  -3.7612
    -3.7256  -3.7079  -3.7074  -3.5855  -3.5843  -3.5825  -3.5231  -3.5221
    -3.3677  -3.3666  -3.3314  -3.3301  -3.3031  -3.0659  -3.0655  -3.0239
    -2.9793  -2.9785  -2.9354  -2.9329  -2.8270  -2.7569  -2.7553  -2.6886
    -2.6876  -2.6443  -2.6107  -2.6093  -2.4247  -2.3966  -2.3095  -2.3077
    -2.2233  -2.2173  -2.1785  -2.1434  -2.1064  -2.1042  -2.0867  -2.0639
    -2.0623  -2.0186  -1.9428  -1.9271  -1.9134  -1.9120  -1.8447  -1.8218
    -1.8210  -1.7685  -1.7542  -1.7515  -1.6847  -1.6544  -1.6315  -1.6306
    -1.6279  -1.5400  -1.5380  -1.5284  -1.5272  -1.5136  -1.4427  -1.4384
    -1.4273  -1.4139  -1.3537  -1.3441  -1.3421  -1.3158  -1.3053  -1.2958
    -1.2801  -1.2528  -1.2508  -1.2375  -1.1620  -1.1225  -1.0625  -1.0611
    -1.0590  -1.0503  -1.0338  -1.0215  -1.0154  -0.9915  -0.9605  -0.9447
    -0.9381  -0.9084  -0.7323  -0.6565  -0.5979  -0.5480  -0.5467  -0.5361
    -0.5351  -0.5107  -0.5094  -0.3508  -0.3365  -0.3348  -0.2320  -0.1901
    -0.1874  -0.1807  -0.1707  -0.0689  -0.0683  -0.0553  -0.0537   0.0270
     0.0379   0.0383   0.0684   0.0698   0.2575   0.2799   0.2935   0.2941
     0.2963   0.3213   0.3301   0.4185   0.4210   0.4437   0.4712   0.4917
     0.5372   0.5379   0.5391   0.5402   0.6547   0.6558   0.6836   0.6843
     0.7766   0.8315   0.8322   0.8402   0.8407   0.8625   0.9035   0.9108
     0.9704   0.9712   1.0304   1.0314   1.0371   1.0851   1.0867   1.0874
     1.0917   1.0921   1.0981   1.1669   1.1673   1.3280   1.3285   1.3413
     1.3558   1.3659   1.3668   1.4050   1.4447   1.4454   1.4614   1.5597
     1.5606   1.5850   1.7433   1.7471   1.7481   1.7941   1.8231   2.2084
     2.2101   2.9217   2.9233   2.9783   3.0778   3.9405   4.3983   4.4015
     5.0651   5.0656   5.2255   5.2305   5.4941   5.8960   6.0452   6.0475
     6.2722   6.4166   6.4327   6.4336

          k = 0.0000 0.4619 0.0000 ( 94786 PWs)   bands (ev):

   -12.4995  -9.9821  -7.5482  -6.8874  -6.2522  -5.5956  -5.1852  -5.1849
    -5.0404  -4.8183  -4.6635  -4.5379  -4.5044  -4.4595  -4.4589  -4.3186
    -4.2753  -4.2552  -4.2438  -4.2358  -4.2348  -4.1076  -4.0773  -4.0770
    -4.0254  -4.0247  -3.9598  -3.9304  -3.8871  -3.8867  -3.8500  -3.7552
    -3.6135  -3.6132  -3.5957  -3.5948  -3.5937  -3.5929  -3.3690  -3.3677
    -3.3075  -3.3069  -3.2970  -3.2963  -3.1165  -3.0120  -3.0116  -3.0021
    -3.0013  -2.9374  -2.9350  -2.8868  -2.8721  -2.8715  -2.8273  -2.7909
    -2.7895  -2.6635  -2.6626  -2.6100  -2.6084  -2.5175  -2.4780  -2.4506
    -2.4326  -2.4308  -2.3896  -2.2887  -2.2130  -2.1971  -2.1891  -2.1867
    -2.1001  -2.0971  -2.0746  -1.9650  -1.9634  -1.9427  -1.9406  -1.8213
    -1.8198  -1.8192  -1.8175  -1.8133  -1.7393  -1.7246  -1.7230  -1.7206
    -1.6933  -1.6906  -1.6883  -1.6724  -1.6317  -1.5682  -1.5489  -1.5463
    -1.5395  -1.4990  -1.4962  -1.4708  -1.3952  -1.3328  -1.3159  -1.3011
    -1.2918  -1.2863  -1.2567  -1.2438  -1.2136  -1.2097  -1.2083  -1.0941
    -1.0801  -1.0773  -1.0552  -0.9963  -0.9814  -0.9489  -0.8109  -0.8071
    -0.7741  -0.7292  -0.6420  -0.6381  -0.6277  -0.6076  -0.6053  -0.6019
    -0.5991  -0.5124  -0.5055  -0.4767  -0.4749  -0.4521  -0.4497  -0.4291
    -0.4213  -0.3832  -0.3646  -0.2703  -0.2343  -0.2327  -0.1643  -0.0966
    -0.0728  -0.0725   0.0665   0.0676   0.1327   0.1817   0.2318   0.2334
     0.2619   0.2832   0.3217   0.3229   0.3806   0.3821   0.4295   0.4301
     0.4933   0.5366   0.5377   0.5914   0.5926   0.6043   0.6049   0.6860
     0.7907   0.7933   0.8732   0.8859   0.8871   0.8930   0.9799   0.9943
     0.9950   1.0911   1.0930   1.0985   1.1008   1.1693   1.1923   1.1928
     1.2039   1.3253   1.3264   1.3500   1.3510   1.3591   1.3600   1.3787
     1.3816   1.5517   1.5941   1.5953   1.6020   1.6029   1.7918   1.8274
     2.2167   2.2182   2.2718   2.5266   2.6411   2.6416   3.0430   3.0448
     3.2459   3.3795   3.8534   3.8538   3.8805   4.0449   4.1301   4.1362
     4.2960   4.2991   4.5253   4.5275   5.1573   5.1786   5.6874   5.6927
     6.1666   6.1786   6.2182   6.6561

          k = 0.2000-0.1155 0.0000 ( 94738 PWs)   bands (ev):

   -12.4998  -9.9804  -7.5502  -7.3105  -6.0019  -5.5506  -5.1515  -5.1512
    -4.9245  -4.8887  -4.8437  -4.8010  -4.8007  -4.5937  -4.5720  -4.4154
    -4.4152  -4.3985  -4.3946  -4.3009  -4.1186  -3.9836  -3.9832  -3.9529
    -3.9443  -3.8855  -3.8843  -3.8158  -3.8156  -3.8142  -3.8139  -3.7678
    -3.7243  -3.7083  -3.7079  -3.5853  -3.5840  -3.5820  -3.5233  -3.5225
    -3.3675  -3.3668  -3.3315  -3.3306  -3.3036  -3.0661  -3.0659  -3.0226
    -2.9792  -2.9787  -2.9356  -2.9331  -2.8262  -2.7574  -2.7561  -2.6883
    -2.6882  -2.6435  -2.6099  -2.6096  -2.4186  -2.4063  -2.3091  -2.3062
    -2.2238  -2.2166  -2.1834  -2.1448  -2.1046  -2.0998  -2.0863  -2.0635
    -2.0623  -2.0184  -1.9438  -1.9294  -1.9132  -1.9131  -1.8447  -1.8185
    -1.8179  -1.7686  -1.7553  -1.7511  -1.6846  -1.6530  -1.6332  -1.6318
    -1.6315  -1.5389  -1.5353  -1.5288  -1.5278  -1.5139  -1.4412  -1.4383
    -1.4267  -1.4122  -1.3584  -1.3455  -1.3418  -1.3176  -1.2968  -1.2958
    -1.2736  -1.2513  -1.2507  -1.2377  -1.1679  -1.1169  -1.0634  -1.0590
    -1.0518  -1.0510  -1.0420  -1.0206  -1.0193  -0.9848  -0.9614  -0.9494
    -0.9369  -0.9066  -0.7332  -0.6572  -0.5975  -0.5480  -0.5470  -0.5356
    -0.5349  -0.5104  -0.5101  -0.3503  -0.3356  -0.3333  -0.2297  -0.1895
    -0.1891  -0.1828  -0.1688  -0.0687  -0.0680  -0.0550  -0.0531   0.0270
     0.0383   0.0384   0.0684   0.0685   0.2586   0.2796   0.2931   0.2935
     0.2962   0.3233   0.3308   0.4180   0.4189   0.4435   0.4714   0.4912
     0.5372   0.5373   0.5391   0.5397   0.6545   0.6550   0.6832   0.6838
     0.7776   0.8315   0.8320   0.8403   0.8407   0.8631   0.9033   0.9119
     0.9705   0.9708   1.0303   1.0308   1.0372   1.0852   1.0859   1.0870
     1.0920   1.0923   1.0991   1.1678   1.1680   1.3291   1.3292   1.3394
     1.3555   1.3658   1.3659   1.4041   1.4437   1.4439   1.4614   1.5600
     1.5604   1.5850   1.7421   1.7477   1.7480   1.7934   1.8269   2.2061
     2.2076   2.9214   2.9243   2.9763   3.0805   3.9433   4.3950   4.4001
     5.0654   5.0654   5.2234   5.2300   5.4973   5.8864   6.0459   6.0465
     6.2637   6.4189   6.4326   6.4334

          k = 0.2000 0.1155 0.0000 ( 94738 PWs)   bands (ev):

   -12.4997  -9.9810  -7.5493  -7.3105  -6.0020  -5.5511  -5.1513  -5.1507
    -4.9245  -4.8888  -4.8446  -4.8008  -4.7999  -4.5932  -4.5719  -4.4156
    -4.4153  -4.3993  -4.3951  -4.3005  -4.1182  -3.9836  -3.9830  -3.9531
    -3.9442  -3.8858  -3.8839  -3.8173  -3.8157  -3.8147  -3.8133  -3.7613
    -3.7252  -3.7079  -3.7074  -3.5855  -3.5845  -3.5825  -3.5230  -3.5221
    -3.3677  -3.3667  -3.3314  -3.3303  -3.3030  -3.0661  -3.0655  -3.0244
    -2.9794  -2.9783  -2.9347  -2.9328  -2.8275  -2.7570  -2.7551  -2.6886
    -2.6875  -2.6444  -2.6103  -2.6093  -2.4252  -2.3970  -2.3094  -2.3079
    -2.2231  -2.2172  -2.1788  -2.1433  -2.1060  -2.1041  -2.0868  -2.0640
    -2.0619  -2.0186  -1.9429  -1.9270  -1.9134  -1.9119  -1.8447  -1.8219
    -1.8213  -1.7685  -1.7540  -1.7522  -1.6847  -1.6545  -1.6312  -1.6306
    -1.6278  -1.5400  -1.5382  -1.5286  -1.5271  -1.5136  -1.4426  -1.4382
    -1.4272  -1.4140  -1.3533  -1.3441  -1.3421  -1.3162  -1.3060  -1.2969
    -1.2792  -1.2527  -1.2507  -1.2374  -1.1616  -1.1207  -1.0630  -1.0608
    -1.0583  -1.0494  -1.0350  -1.0214  -1.0158  -0.9898  -0.9606  -0.9449
    -0.9382  -0.9096  -0.7336  -0.6565  -0.5980  -0.5479  -0.5463  -0.5361
    -0.5352  -0.5109  -0.5097  -0.3508  -0.3366  -0.3347  -0.2319  -0.1902
    -0.1877  -0.1806  -0.1709  -0.0690  -0.0683  -0.0558  -0.0536   0.0270
     0.0379   0.0385   0.0685   0.0697   0.2573   0.2798   0.2936   0.2942
     0.2962   0.3215   0.3306   0.4183   0.4211   0.4437   0.4712   0.4919
     0.5374   0.5377   0.5389   0.5402   0.6547   0.6559   0.6838   0.6842
     0.7766   0.8312   0.8323   0.8403   0.8406   0.8625   0.9035   0.9107
     0.9705   0.9711   1.0304   1.0314   1.0371   1.0851   1.0867   1.0875
     1.0918   1.0921   1.0982   1.1669   1.1673   1.3281   1.3283   1.3414
     1.3558   1.3659   1.3669   1.4051   1.4448   1.4455   1.4614   1.5595
     1.5606   1.5850   1.7432   1.7471   1.7482   1.7938   1.8235   2.2078
     2.2105   2.9212   2.9240   2.9778   3.0779   3.9408   4.3981   4.4016
     5.0651   5.0655   5.2264   5.2298   5.4937   5.8945   6.0453   6.0470
     6.2754   6.4171   6.4327   6.4338

          k = 0.2000 0.3464 0.0000 ( 94752 PWs)   bands (ev):

   -12.4995  -9.9821  -7.5482  -7.0248  -5.7997  -5.7976  -5.7247  -4.7222
    -4.7215  -4.6952  -4.6874  -4.6490  -4.6457  -4.6446  -4.6333  -4.5318
    -4.5309  -4.2986  -4.1432  -4.1418  -4.1391  -4.1382  -4.0752  -4.0525
    -3.9106  -3.8827  -3.8801  -3.8526  -3.8520  -3.7890  -3.7570  -3.7328
    -3.7308  -3.6895  -3.6882  -3.6510  -3.6015  -3.6000  -3.5598  -3.5570
    -3.4850  -3.2109  -3.1084  -3.1062  -3.0970  -3.0732  -3.0721  -3.0576
    -3.0551  -3.0013  -2.9834  -2.8321  -2.8221  -2.8194  -2.8107  -2.7362
    -2.7098  -2.6598  -2.6589  -2.6360  -2.5552  -2.5530  -2.4213  -2.3812
    -2.3752  -2.3617  -2.2768  -2.2653  -2.2473  -2.2456  -2.2373  -2.1668
    -2.1661  -2.0148  -1.9914  -1.9897  -1.9845  -1.9222  -1.9199  -1.8548
    -1.8536  -1.8525  -1.8496  -1.7224  -1.6860  -1.6844  -1.6754  -1.6738
    -1.6670  -1.6521  -1.6249  -1.6051  -1.5327  -1.5316  -1.5061  -1.4992
    -1.4407  -1.4363  -1.3721  -1.3533  -1.3320  -1.3209  -1.3092  -1.3070
    -1.2841  -1.2638  -1.2553  -1.2523  -1.2367  -1.2163  -1.2106  -1.2019
    -1.1950  -1.1381  -1.1318  -1.0591  -1.0311  -0.9881  -0.9732  -0.9095
    -0.9089  -0.9069  -0.8944  -0.7275  -0.7249  -0.5814  -0.5629  -0.5253
    -0.5174  -0.5158  -0.4942  -0.4921  -0.4449  -0.4437  -0.4120  -0.4105
    -0.3548  -0.3252  -0.2122  -0.1320  -0.1294  -0.0815  -0.0810  -0.0718
    -0.0258  -0.0119   0.1156   0.1188   0.1203   0.1736   0.1746   0.2566
     0.3112   0.3163   0.3336   0.3355   0.4085   0.4145   0.4169   0.4323
     0.4333   0.4555   0.4591   0.4603   0.4705   0.6001   0.6705   0.6730
     0.8100   0.8116   0.8323   0.9795   0.9798   0.9813   0.9833   1.0862
     1.1208   1.1216   1.1299   1.1309   1.1690   1.1707   1.1955   1.1996
     1.2004   1.2608   1.2645   1.2827   1.3487   1.3761   1.3768   1.4118
     1.4129   1.4566   1.5920   1.6438   1.6453   1.7274   1.7293   1.7333
     1.7436   1.8794   1.8819   2.3366   2.4073   2.4084   2.9469   2.9479
     2.9855   2.9891   3.6768   3.6972   3.7574   3.8647   3.9224   3.9257
     4.5768   5.0535   5.1304   5.1325   5.2960   5.7738   5.8294   5.8811
     5.8942   5.9019   5.9201   6.1376

          k = 0.2000-0.5774 0.0000 ( 94786 PWs)   bands (ev):

   -12.4995  -9.9821  -7.5483  -6.4907  -6.4881  -5.8815  -5.2325  -5.2270
    -4.7180  -4.7158  -4.5828  -4.5493  -4.4398  -4.4387  -4.3390  -4.3314
    -4.3281  -4.2058  -4.2029  -4.1977  -4.1677  -4.1656  -4.1330  -4.1124
    -4.0088  -3.9980  -3.9969  -3.9551  -3.9536  -3.8514  -3.7625  -3.7539
    -3.7398  -3.6718  -3.5823  -3.5813  -3.5639  -3.5625  -3.5473  -3.4341
    -3.4327  -3.3409  -3.3379  -3.1657  -3.1571  -3.0986  -2.9985  -2.9963
    -2.9464  -2.9451  -2.8385  -2.8258  -2.7873  -2.7391  -2.7371  -2.7166
    -2.6729  -2.6708  -2.6415  -2.5419  -2.5354  -2.5108  -2.5052  -2.5000
    -2.4962  -2.4945  -2.4241  -2.4214  -2.3972  -2.2843  -2.2665  -2.2169
    -2.2163  -2.1000  -2.0617  -2.0589  -2.0578  -2.0140  -1.9713  -1.9700
    -1.8825  -1.8577  -1.8550  -1.8503  -1.8191  -1.7880  -1.7382  -1.7341
    -1.6969  -1.6399  -1.6360  -1.6171  -1.6166  -1.5082  -1.4610  -1.4579
    -1.4155  -1.4118  -1.3728  -1.3713  -1.3620  -1.3549  -1.3277  -1.3219
    -1.3106  -1.2947  -1.2732  -1.2664  -1.2370  -1.2285  -1.2227  -1.2198
    -1.2183  -1.2029  -1.1743  -1.1187  -1.1025  -1.0987  -1.0445  -0.8914
    -0.8751  -0.7904  -0.7895  -0.6838  -0.6708  -0.6688  -0.6399  -0.5796
    -0.5786  -0.5736  -0.5539  -0.5487  -0.4665  -0.4368  -0.4341  -0.3665
    -0.3419  -0.3351  -0.2807  -0.2745  -0.2282  -0.0889  -0.0258  -0.0247
    -0.0038  -0.0030   0.0907   0.0954   0.0979   0.1177   0.1351   0.1415
     0.1744   0.1760   0.2929   0.2958   0.3054   0.3619   0.3635   0.3850
     0.3923   0.4098   0.4108   0.5702   0.6190   0.6483   0.7284   0.7313
     0.8112   0.8125   0.8974   0.9409   0.9450   0.9468   1.0514   1.0552
     1.1253   1.1568   1.1655   1.1746   1.1778   1.2225   1.2249   1.2558
     1.3336   1.3345   1.3577   1.3860   1.3870   1.3941   1.4004   1.4507
     1.5919   1.5982   1.5994   1.6001   1.6013   1.6751   1.7465   1.7892
     1.9294   2.7483   2.7487   2.9953   3.0077   3.0306   3.1530   3.1534
     3.1599   3.6115   3.7605   3.7607   4.2209   4.2475   4.2523   4.3650
     4.3670   4.5826   4.6641   4.7655   4.8128   5.1115   5.1994   5.2020
     5.7426   5.8409   5.8437   6.2063

          k = 0.2000-0.3464 0.0000 ( 94752 PWs)   bands (ev):

   -12.4996  -9.9811  -7.5496  -7.0247  -5.7996  -5.7975  -5.7247  -4.7220
    -4.7210  -4.6953  -4.6873  -4.6495  -4.6460  -4.6451  -4.6332  -4.5317
    -4.5309  -4.2984  -4.1421  -4.1413  -4.1393  -4.1384  -4.0744  -4.0528
    -3.9113  -3.8821  -3.8805  -3.8531  -3.8520  -3.7901  -3.7636  -3.7340
    -3.7313  -3.6896  -3.6878  -3.6513  -3.6020  -3.5984  -3.5596  -3.5582
    -3.4838  -3.2112  -3.1084  -3.1069  -3.0969  -3.0737  -3.0723  -3.0562
    -3.0548  -3.0010  -2.9836  -2.8355  -2.8219  -2.8180  -2.8093  -2.7363
    -2.7093  -2.6605  -2.6589  -2.6350  -2.5547  -2.5534  -2.4303  -2.3797
    -2.3653  -2.3613  -2.2780  -2.2727  -2.2474  -2.2432  -2.2387  -2.1668
    -2.1666  -2.0144  -1.9915  -1.9883  -1.9839  -1.9214  -1.9196  -1.8556
    -1.8536  -1.8515  -1.8480  -1.7235  -1.6863  -1.6846  -1.6762  -1.6737
    -1.6677  -1.6521  -1.6242  -1.6053  -1.5320  -1.5300  -1.5042  -1.4991
    -1.4405  -1.4368  -1.3754  -1.3531  -1.3340  -1.3135  -1.3071  -1.2979
    -1.2822  -1.2688  -1.2538  -1.2513  -1.2340  -1.2224  -1.2124  -1.1994
    -1.1853  -1.1394  -1.1323  -1.0683  -1.0309  -0.9842  -0.9676  -0.9106
    -0.9083  -0.9056  -0.8929  -0.7274  -0.7252  -0.5804  -0.5628  -0.5235
    -0.5173  -0.5131  -0.4955  -0.4939  -0.4467  -0.4434  -0.4127  -0.4095
    -0.3531  -0.3267  -0.2110  -0.1335  -0.1292  -0.0815  -0.0809  -0.0716
    -0.0251  -0.0117   0.1158   0.1188   0.1199   0.1730   0.1743   0.2567
     0.3106   0.3159   0.3337   0.3356   0.4082   0.4154   0.4171   0.4302
     0.4340   0.4558   0.4590   0.4603   0.4695   0.6009   0.6700   0.6731
     0.8105   0.8123   0.8311   0.9785   0.9801   0.9811   0.9827   1.0873
     1.1189   1.1217   1.1297   1.1308   1.1692   1.1707   1.1954   1.2011
     1.2015   1.2613   1.2651   1.2806   1.3496   1.3757   1.3775   1.4118
     1.4128   1.4568   1.5906   1.6427   1.6446   1.7275   1.7291   1.7337
     1.7423   1.8804   1.8816   2.3374   2.4078   2.4086   2.9458   2.9473
     2.9830   2.9887   3.6804   3.6913   3.7592   3.8645   3.9234   3.9253
     4.5765   5.0535   5.1222   5.1358   5.2971   5.7718   5.8380   5.8760
     5.8869   5.9032   5.9081   6.1312

          k = 0.4000-0.2309 0.0000 ( 94786 PWs)   bands (ev):

   -12.4997  -9.9805  -7.5505  -6.8873  -6.2520  -5.5956  -5.1855  -5.1851
    -5.0405  -4.8176  -4.6635  -4.5380  -4.5043  -4.4597  -4.4596  -4.3157
    -4.2744  -4.2577  -4.2444  -4.2353  -4.2347  -4.1069  -4.0778  -4.0772
    -4.0248  -4.0247  -3.9601  -3.9300  -3.8873  -3.8870  -3.8504  -3.7658
    -3.6137  -3.6134  -3.5964  -3.5951  -3.5939  -3.5936  -3.3698  -3.3682
    -3.3077  -3.3071  -3.2970  -3.2969  -3.1152  -3.0120  -3.0113  -3.0020
    -3.0014  -2.9369  -2.9351  -2.8878  -2.8734  -2.8705  -2.8253  -2.7905
    -2.7899  -2.6635  -2.6632  -2.6117  -2.6087  -2.5151  -2.4786  -2.4514
    -2.4335  -2.4306  -2.3918  -2.2904  -2.2128  -2.2019  -2.1876  -2.1846
    -2.0992  -2.0970  -2.0772  -1.9627  -1.9613  -1.9422  -1.9375  -1.8211
    -1.8198  -1.8190  -1.8155  -1.8146  -1.7396  -1.7252  -1.7237  -1.7194
    -1.6941  -1.6895  -1.6863  -1.6731  -1.6319  -1.5678  -1.5497  -1.5472
    -1.5396  -1.4998  -1.4969  -1.4702  -1.3938  -1.3310  -1.3093  -1.2926
    -1.2907  -1.2775  -1.2466  -1.2377  -1.2184  -1.2102  -1.2064  -1.1113
    -1.0805  -1.0771  -1.0361  -0.9957  -0.9887  -0.9491  -0.8102  -0.8070
    -0.7756  -0.7291  -0.6408  -0.6360  -0.6274  -0.6088  -0.6084  -0.6023
    -0.6003  -0.5124  -0.5066  -0.4752  -0.4736  -0.4511  -0.4473  -0.4269
    -0.4250  -0.3853  -0.3630  -0.2693  -0.2331  -0.2317  -0.1642  -0.0962
    -0.0720  -0.0719   0.0664   0.0669   0.1334   0.1813   0.2316   0.2318
     0.2632   0.2842   0.3216   0.3219   0.3804   0.3810   0.4292   0.4294
     0.4933   0.5361   0.5367   0.5914   0.5916   0.6044   0.6048   0.6895
     0.7907   0.7919   0.8736   0.8866   0.8869   0.8930   0.9804   0.9943
     0.9946   1.0918   1.0921   1.0990   1.0998   1.1690   1.1936   1.1937
     1.2038   1.3258   1.3259   1.3502   1.3503   1.3574   1.3592   1.3801
     1.3804   1.5517   1.5938   1.5939   1.6011   1.6012   1.7919   1.8276
     2.2142   2.2159   2.2737   2.5269   2.6413   2.6416   3.0439   3.0442
     3.2471   3.3779   3.8536   3.8536   3.8775   4.0459   4.1319   4.1334
     4.2927   4.2972   4.5264   4.5269   5.1561   5.1761   5.6891   5.6901
     6.1402   6.1824   6.2097   6.5959

          k = 0.4000-0.0000 0.0000 ( 94752 PWs)   bands (ev):

   -12.4996  -9.9810  -7.5496  -7.0247  -5.7996  -5.7975  -5.7247  -4.7221
    -4.7210  -4.6954  -4.6872  -4.6493  -4.6462  -4.6450  -4.6332  -4.5317
    -4.5309  -4.2981  -4.1423  -4.1413  -4.1393  -4.1384  -4.0744  -4.0528
    -3.9113  -3.8820  -3.8805  -3.8531  -3.8520  -3.7900  -3.7636  -3.7338
    -3.7314  -3.6896  -3.6875  -3.6512  -3.6021  -3.5984  -3.5600  -3.5579
    -3.4838  -3.2111  -3.1082  -3.1073  -3.0974  -3.0737  -3.0723  -3.0563
    -3.0549  -3.0010  -2.9836  -2.8343  -2.8221  -2.8181  -2.8101  -2.7362
    -2.7094  -2.6606  -2.6586  -2.6348  -2.5547  -2.5537  -2.4301  -2.3801
    -2.3649  -2.3616  -2.2779  -2.2738  -2.2461  -2.2433  -2.2389  -2.1670
    -2.1666  -2.0141  -1.9915  -1.9883  -1.9838  -1.9213  -1.9198  -1.8555
    -1.8535  -1.8510  -1.8478  -1.7237  -1.6862  -1.6844  -1.6763  -1.6736
    -1.6677  -1.6521  -1.6242  -1.6053  -1.5319  -1.5302  -1.5045  -1.4990
    -1.4405  -1.4368  -1.3752  -1.3542  -1.3342  -1.3143  -1.3079  -1.2950
    -1.2831  -1.2698  -1.2529  -1.2525  -1.2323  -1.2249  -1.2113  -1.1969
    -1.1854  -1.1407  -1.1324  -1.0659  -1.0309  -0.9839  -0.9664  -0.9107
    -0.9088  -0.9066  -0.8940  -0.7272  -0.7254  -0.5806  -0.5630  -0.5234
    -0.5175  -0.5131  -0.4957  -0.4940  -0.4465  -0.4436  -0.4128  -0.4091
    -0.3533  -0.3268  -0.2110  -0.1334  -0.1296  -0.0815  -0.0809  -0.0717
    -0.0252  -0.0117   0.1158   0.1188   0.1198   0.1732   0.1742   0.2567
     0.3106   0.3158   0.3337   0.3355   0.4084   0.4154   0.4170   0.4301
     0.4340   0.4559   0.4589   0.4602   0.4696   0.6007   0.6704   0.6731
     0.8105   0.8123   0.8310   0.9787   0.9801   0.9809   0.9823   1.0875
     1.1188   1.1218   1.1297   1.1308   1.1692   1.1706   1.1955   1.2011
     1.2014   1.2615   1.2650   1.2808   1.3497   1.3756   1.3775   1.4119
     1.4127   1.4568   1.5907   1.6427   1.6446   1.7275   1.7291   1.7340
     1.7420   1.8805   1.8815   2.3372   2.4079   2.4086   2.9458   2.9472
     2.9827   2.9888   3.6815   3.6902   3.7590   3.8646   3.9237   3.9250
     4.5765   5.0535   5.1228   5.1350   5.2971   5.7721   5.8442   5.8753
     5.8865   5.9029   5.9068   6.1254

          k = 0.4000 0.2309 0.0000 ( 94786 PWs)   bands (ev):

   -12.4995  -9.9820  -7.5483  -6.8874  -6.2522  -5.5956  -5.1852  -5.1849
    -5.0404  -4.8184  -4.6635  -4.5380  -4.5044  -4.4595  -4.4589  -4.3183
    -4.2753  -4.2557  -4.2435  -4.2358  -4.2349  -4.1075  -4.0773  -4.0770
    -4.0254  -4.0247  -3.9598  -3.9305  -3.8871  -3.8867  -3.8502  -3.7545
    -3.6134  -3.6132  -3.5957  -3.5948  -3.5939  -3.5928  -3.3692  -3.3678
    -3.3074  -3.3070  -3.2969  -3.2965  -3.1170  -3.0120  -3.0116  -3.0021
    -3.0013  -2.9366  -2.9349  -2.8868  -2.8728  -2.8716  -2.8268  -2.7910
    -2.7903  -2.6633  -2.6626  -2.6101  -2.6085  -2.5168  -2.4779  -2.4505
    -2.4326  -2.4307  -2.3904  -2.2891  -2.2131  -2.1977  -2.1886  -2.1864
    -2.1001  -2.0976  -2.0745  -1.9651  -1.9639  -1.9422  -1.9405  -1.8210
    -1.8197  -1.8192  -1.8175  -1.8131  -1.7393  -1.7246  -1.7236  -1.7207
    -1.6929  -1.6906  -1.6883  -1.6724  -1.6316  -1.5682  -1.5492  -1.5460
    -1.5395  -1.4991  -1.4963  -1.4706  -1.3953  -1.3331  -1.3167  -1.3019
    -1.2920  -1.2842  -1.2547  -1.2431  -1.2137  -1.2107  -1.2078  -1.0936
    -1.0800  -1.0773  -1.0531  -0.9965  -0.9836  -0.9489  -0.8110  -0.8064
    -0.7741  -0.7292  -0.6418  -0.6385  -0.6278  -0.6072  -0.6052  -0.6020
    -0.5987  -0.5124  -0.5067  -0.4766  -0.4751  -0.4520  -0.4499  -0.4294
    -0.4226  -0.3832  -0.3645  -0.2703  -0.2344  -0.2328  -0.1643  -0.0968
    -0.0727  -0.0725   0.0665   0.0676   0.1331   0.1818   0.2319   0.2334
     0.2618   0.2831   0.3218   0.3228   0.3808   0.3822   0.4296   0.4301
     0.4933   0.5368   0.5376   0.5915   0.5925   0.6043   0.6048   0.6867
     0.7903   0.7932   0.8732   0.8860   0.8870   0.8930   0.9799   0.9944
     0.9949   1.0912   1.0930   1.0985   1.1010   1.1687   1.1923   1.1926
     1.2039   1.3253   1.3264   1.3501   1.3510   1.3592   1.3600   1.3789
     1.3817   1.5517   1.5942   1.5953   1.6021   1.6030   1.7918   1.8274
     2.2159   2.2188   2.2722   2.5265   2.6411   2.6415   3.0431   3.0447
     3.2459   3.3796   3.8534   3.8537   3.8802   4.0449   4.1310   4.1352
     4.2958   4.2995   4.5256   4.5274   5.1571   5.1794   5.6884   5.6917
     6.1688   6.1804   6.2116   6.6806

          k = 0.4000-0.6928 0.0000 ( 94786 PWs)   bands (ev):

   -12.4995  -9.9821  -7.5484  -6.4907  -6.4882  -5.8815  -5.2325  -5.2271
    -4.7180  -4.7157  -4.5828  -4.5493  -4.4398  -4.4387  -4.3390  -4.3314
    -4.3284  -4.2059  -4.2030  -4.1975  -4.1677  -4.1655  -4.1331  -4.1122
    -4.0089  -3.9980  -3.9968  -3.9551  -3.9536  -3.8514  -3.7642  -3.7512
    -3.7400  -3.6724  -3.5823  -3.5813  -3.5640  -3.5625  -3.5474  -3.4343
    -3.4327  -3.3410  -3.3379  -3.1658  -3.1571  -3.0991  -2.9978  -2.9963
    -2.9459  -2.9453  -2.8397  -2.8254  -2.7873  -2.7390  -2.7371  -2.7166
    -2.6728  -2.6708  -2.6417  -2.5414  -2.5352  -2.5113  -2.5053  -2.4992
    -2.4962  -2.4944  -2.4248  -2.4206  -2.3976  -2.2853  -2.2665  -2.2181
    -2.2162  -2.1000  -2.0612  -2.0584  -2.0580  -2.0138  -1.9714  -1.9702
    -1.8822  -1.8577  -1.8548  -1.8503  -1.8185  -1.7873  -1.7383  -1.7339
    -1.6967  -1.6401  -1.6363  -1.6175  -1.6164  -1.5084  -1.4609  -1.4578
    -1.4151  -1.4116  -1.3733  -1.3714  -1.3617  -1.3556  -1.3264  -1.3217
    -1.3119  -1.2975  -1.2739  -1.2647  -1.2368  -1.2290  -1.2220  -1.2191
    -1.2185  -1.2021  -1.1738  -1.1218  -1.1021  -1.0978  -1.0401  -0.8923
    -0.8764  -0.7905  -0.7894  -0.6837  -0.6710  -0.6688  -0.6396  -0.5798
    -0.5786  -0.5745  -0.5538  -0.5484  -0.4662  -0.4366  -0.4340  -0.3670
    -0.3418  -0.3353  -0.2803  -0.2748  -0.2290  -0.0889  -0.0258  -0.0244
    -0.0035  -0.0030   0.0907   0.0956   0.0981   0.1177   0.1355   0.1414
     0.1741   0.1757   0.2926   0.2957   0.3057   0.3615   0.3637   0.3850
     0.3922   0.4095   0.4108   0.5703   0.6197   0.6481   0.7284   0.7314
     0.8111   0.8125   0.8973   0.9406   0.9451   0.9469   1.0512   1.0556
     1.1253   1.1567   1.1654   1.1746   1.1779   1.2227   1.2248   1.2556
     1.3336   1.3345   1.3577   1.3860   1.3871   1.3942   1.4005   1.4507
     1.5918   1.5983   1.5993   1.6002   1.6014   1.6751   1.7465   1.7892
     1.9294   2.7483   2.7487   2.9946   3.0084   3.0304   3.1528   3.1537
     3.1601   3.6117   3.7604   3.7607   4.2209   4.2478   4.2521   4.3650
     4.3671   4.5825   4.6639   4.7638   4.8145   5.1114   5.1996   5.2018
     5.7445   5.8410   5.8434   6.2072

          k = 0.4000-0.4619 0.0000 ( 94786 PWs)   bands (ev):

   -12.4996  -9.9811  -7.5497  -6.4906  -6.4880  -5.8817  -5.2324  -5.2272
    -4.7174  -4.7153  -4.5828  -4.5493  -4.4400  -4.4391  -4.3401  -4.3316
    -4.3273  -4.2049  -4.2037  -4.1974  -4.1683  -4.1658  -4.1333  -4.1107
    -4.0080  -3.9983  -3.9967  -3.9547  -3.9537  -3.8518  -3.7678  -3.7524
    -3.7413  -3.6750  -3.5820  -3.5814  -3.5641  -3.5625  -3.5483  -3.4342
    -3.4327  -3.3417  -3.3382  -3.1651  -3.1577  -3.0973  -2.9994  -2.9962
    -2.9459  -2.9452  -2.8382  -2.8245  -2.7870  -2.7385  -2.7369  -2.7175
    -2.6738  -2.6722  -2.6428  -2.5381  -2.5359  -2.5119  -2.5060  -2.4973
    -2.4966  -2.4943  -2.4245  -2.4192  -2.3997  -2.2911  -2.2661  -2.2177
    -2.2168  -2.0996  -2.0623  -2.0599  -2.0573  -2.0134  -1.9694  -1.9686
    -1.8806  -1.8584  -1.8547  -1.8505  -1.8162  -1.7845  -1.7398  -1.7337
    -1.6961  -1.6426  -1.6363  -1.6183  -1.6156  -1.5069  -1.4609  -1.4583
    -1.4137  -1.4121  -1.3713  -1.3709  -1.3632  -1.3520  -1.3227  -1.3202
    -1.3050  -1.2908  -1.2789  -1.2663  -1.2400  -1.2248  -1.2214  -1.2209
    -1.2178  -1.1981  -1.1737  -1.1433  -1.1004  -1.0979  -1.0210  -0.8870
    -0.8779  -0.7908  -0.7889  -0.6837  -0.6704  -0.6687  -0.6426  -0.5790
    -0.5781  -0.5763  -0.5549  -0.5503  -0.4682  -0.4354  -0.4335  -0.3684
    -0.3415  -0.3353  -0.2807  -0.2723  -0.2285  -0.0888  -0.0257  -0.0235
    -0.0038  -0.0027   0.0909   0.0949   0.0970   0.1182   0.1350   0.1421
     0.1743   0.1763   0.2935   0.2947   0.3049   0.3615   0.3632   0.3840
     0.3925   0.4104   0.4114   0.5699   0.6216   0.6481   0.7286   0.7319
     0.8108   0.8119   0.8962   0.9399   0.9444   0.9462   1.0527   1.0543
     1.1255   1.1581   1.1652   1.1746   1.1773   1.2222   1.2242   1.2564
     1.3336   1.3340   1.3592   1.3865   1.3868   1.3936   1.4010   1.4512
     1.5923   1.5977   1.5983   1.5991   1.6002   1.6755   1.7446   1.7890
     1.9296   2.7483   2.7487   2.9919   3.0126   3.0288   3.1526   3.1537
     3.1610   3.6097   3.7605   3.7606   4.2196   4.2482   4.2523   4.3657
     4.3673   4.5780   4.6619   4.7526   4.8251   5.1080   5.1995   5.2037
     5.7385   5.8424   5.8447   6.2035

     the Fermi energy is     1.3654 ev

!    total energy              =  -27821.11814718 Ry

     total all-electron energy =  -1326881.175825 Ry
     estimated scf accuracy    <       0.00000053 Ry
     smearing contrib. (-TS)   =       0.00241762 Ry
     internal energy E=F+TS    =  -27821.12056480 Ry

     The total energy is F=E-TS. E is the sum of the following terms:
     one-electron contribution =  -30020.03955049 Ry
     hartree contribution      =   15309.50382303 Ry
     xc contribution           =    -910.60199094 Ry
     ewald contribution        =   13293.59982207 Ry
     one-center paw contrib.   =  -25493.58266846 Ry

     convergence has been achieved in  25 iterations

     negative rho (up, down):  1.159E-02 0.000E+00

     Forces acting on atoms (cartesian axes, Ry/au):

     atom    1 type  1   force =    -0.00004155    0.00001292   -0.00326966
     atom    2 type  1   force =     0.00005087    0.00003388   -0.00327483
     atom    3 type  1   force =     0.00007086    0.00002826   -0.00316634
     atom    4 type  1   force =    -0.00001909    0.00007748   -0.00327123
     atom    5 type  1   force =     0.00004800    0.00001380   -0.00324677
     atom    6 type  1   force =     0.00001804    0.00001863   -0.00319735
     atom    7 type  1   force =     0.00001311    0.00008471   -0.00320926
     atom    8 type  1   force =     0.00001156    0.00001995   -0.00323392
     atom    9 type  1   force =     0.00004025    0.00003383   -0.00321245
     atom   10 type  1   force =    -0.00002247    0.00007559    0.00331962
     atom   11 type  1   force =     0.00023297   -0.00006203    0.00331674
     atom   12 type  1   force =     0.00008257   -0.00022416    0.00325620
     atom   13 type  1   force =    -0.00002280    0.00005029    0.00331635
     atom   14 type  1   force =     0.00005594   -0.00015124    0.00271581
     atom   15 type  1   force =     0.00020413   -0.00005536    0.00297137
     atom   16 type  1   force =    -0.00021161    0.00017222    0.00299149
     atom   17 type  1   force =     0.00019497    0.00007920    0.00273345
     atom   18 type  1   force =     0.00027655    0.00008661    0.00330230
     atom   19 type  1   force =     0.00011971    0.00004606   -0.00016132
     atom   20 type  1   force =     0.00005415   -0.00001118   -0.00020495
     atom   21 type  1   force =     0.00001227    0.00002540   -0.00007714
     atom   22 type  1   force =     0.00000989   -0.00003076   -0.00017055
     atom   23 type  1   force =     0.00007149   -0.00000398   -0.00007950
     atom   24 type  1   force =     0.00004571    0.00004422    0.00006450
     atom   25 type  1   force =     0.00002840    0.00005825   -0.00026136
     atom   26 type  1   force =     0.00009499    0.00007734   -0.00007814
     atom   27 type  1   force =    -0.00000936    0.00005932   -0.00010011
     atom   28 type  1   force =     0.00000952    0.00009930    0.00008466
     atom   29 type  1   force =    -0.00002800    0.00005646    0.00014546
     atom   30 type  1   force =     0.00001199    0.00007815    0.00006265
     atom   31 type  1   force =    -0.00000531    0.00001373    0.00006987
     atom   32 type  1   force =    -0.00002369    0.00001368    0.00002298
     atom   33 type  1   force =     0.00002216    0.00002487   -0.00009786
     atom   34 type  1   force =     0.00002261    0.00008331    0.00010844
     atom   35 type  1   force =    -0.00002257    0.00004437   -0.00022150
     atom   36 type  1   force =     0.00005640    0.00005765    0.00008336
     atom   37 type  2   force =     0.00009946   -0.00023456    0.00110063
     atom   38 type  2   force =    -0.00176042    0.00026400   -0.00113962
     atom   39 type  2   force =     0.00409453   -0.00247959    0.00822670
     atom   40 type  3   force =    -0.00003691    0.00037996    0.00021092
     atom   41 type  3   force =     0.00009671   -0.00011133   -0.00008974
     atom   42 type  3   force =     0.00037271   -0.00011338    0.00050901
     atom   43 type  3   force =    -0.00010192   -0.00005057    0.00021799
     atom   44 type  3   force =    -0.00020794    0.00005922   -0.00010926
     atom   45 type  3   force =    -0.00054937   -0.00020540    0.00002741
     atom   46 type  3   force =     0.00088526   -0.00042936    0.00043778
     atom   47 type  3   force =    -0.00434476    0.00189024   -0.00742283

     Total force =     0.013287     Total SCF correction =     0.001037

     negative rho (up, down):  1.159E-02 0.000E+00

     negative rho (up, down):  1.159E-02 0.000E+00

     negative rho (up, down):  1.159E-02 0.000E+00

     negative rho (up, down):  1.159E-02 0.000E+00

     negative rho (up, down):  1.159E-02 0.000E+00

     negative rho (up, down):  1.159E-02 0.000E+00

     negative rho (up, down):  1.159E-02 0.000E+00

     negative rho (up, down):  1.159E-02 0.000E+00

     negative rho (up, down):  1.159E-02 0.000E+00

     negative rho (up, down):  1.159E-02 0.000E+00

     negative rho (up, down):  1.159E-02 0.000E+00

     negative rho (up, down):  1.159E-02 0.000E+00

     negative rho (up, down):  1.159E-02 0.000E+00

     negative rho (up, down):  1.159E-02 0.000E+00

     negative rho (up, down):  1.159E-02 0.000E+00

     negative rho (up, down):  1.159E-02 0.000E+00

     negative rho (up, down):  1.159E-02 0.000E+00

     negative rho (up, down):  1.159E-02 0.000E+00

     negative rho (up, down):  1.159E-02 0.000E+00

     negative rho (up, down):  1.159E-02 0.000E+00

     negative rho (up, down):  1.159E-02 0.000E+00

     negative rho (up, down):  1.159E-02 0.000E+00

     negative rho (up, down):  1.159E-02 0.000E+00

     negative rho (up, down):  1.159E-02 0.000E+00

     negative rho (up, down):  1.159E-02 0.000E+00

     negative rho (up, down):  1.159E-02 0.000E+00

     negative rho (up, down):  1.159E-02 0.000E+00

     negative rho (up, down):  1.159E-02 0.000E+00

     negative rho (up, down):  1.159E-02 0.000E+00

     negative rho (up, down):  1.159E-02 0.000E+00

     negative rho (up, down):  1.159E-02 0.000E+00

     negative rho (up, down):  1.159E-02 0.000E+00

     negative rho (up, down):  1.159E-02 0.000E+00

     negative rho (up, down):  1.159E-02 0.000E+00
 BEEFens 2000 ensemble energies
             -0.610019391192679E+02
             -0.360750009013233E+01
             -0.158784172099693E+02
              0.431653013763398E+02
             -0.222365805043916E+02
             -0.205941290271065E+02
             -0.355091886675061E+02
             -0.869906454504296E+02
             -0.466421090142619E+02
             -0.474131577816509E+02
             -0.370902872771769E+02
              0.234038394826843E+01
              0.407206301719810E+01
              0.757004576870213E+01
              0.267211670503187E+01
              0.477267946459218E+02
             -0.209679719251401E+02
             -0.230057626215251E+02
              0.193927704650682E+02
             -0.112940388030779E+03
              0.539036884975531E+02
             -0.290472694610191E+02
             -0.337975095005034E+01
             -0.114617271861972E+02
             -0.876476777838366E+01
             -0.462256160790955E+01
              0.887117501614389E+02
             -0.188724462715916E+02
             -0.902578027972334E+01
             -0.521025881171743E+02
              0.818121204283868E+02
             -0.186871916943223E+02
             -0.376795287056665E+02
              0.249756091647723E+02
             -0.286341158097355E+01
              0.165704599425735E+02
             -0.483792787564460E+01
              0.107905478627690E+02
              0.290607402371093E+02
             -0.103723749668966E+03
              0.561408029927672E+02
              0.143061373242443E+02
             -0.182899927386143E+01
             -0.362602798719145E+02
              0.123822819338822E+02
             -0.148204823226689E+02
              0.400934459318822E+02
              0.366418737829135E+02
             -0.308671852770616E+02
             -0.276340061643087E+02
             -0.329728558677803E+02
             -0.354218443762850E+02
              0.138019910190402E+02
             -0.493305140462239E+02
              0.116631760966035E+02
              0.626178032651910E+02
              0.639353127295138E+02
              0.357604785033598E+02
              0.154844468676130E+02
              0.272577335122073E+02
              0.896300700817102E+02
              0.212862815382457E+02
             -0.551273119340331E+02
             -0.157442717714481E+02
             -0.237561331434880E+02
              0.632552210639364E+02
             -0.776742124469649E+02
             -0.674611312282399E+02
             -0.261708465723161E+02
             -0.665949896309326E+01
             -0.472028456452637E+02
              0.272119622165066E+02
              0.807645507465304E+01
              0.875420132714402E+01
             -0.399436240551690E+02
             -0.348553838758651E+02
             -0.544949677664577E+02
              0.391442029641192E+02
             -0.297855002322907E+02
              0.267366604908427E+02
             -0.722902730866356E+01
             -0.319186572420790E+02
             -0.578168843796703E+02
             -0.177003799650950E+02
             -0.911185128281500E+01
             -0.125134791982096E+02
              0.414432055932324E+02
              0.687208474926761E+02
             -0.387919065194110E+02
             -0.798372503099335E+02
             -0.220467374548581E+02
              0.112017544228897E+03
             -0.595566610722522E+02
              0.357423796427681E+02
             -0.962709197922629E+01
             -0.665800607589699E+02
              0.255713543044667E+02
              0.399173420631248E+02
             -0.199494157437936E+02
              0.401368024343668E+02
             -0.296841804899186E+02
             -0.481604822737996E+02
              0.871044729743414E+02
              0.455733613435513E+02
              0.337370626230581E+02
              0.146726497575519E+02
              0.206972879637197E+02
              0.860307261349748E+02
             -0.258258143086503E+02
              0.790369502965119E+01
             -0.143034920247084E+03
              0.181881726405585E+02
             -0.719177292059998E+02
              0.151758611670502E+02
              0.205782867574428E+02
             -0.334855967108807E+02
             -0.559494076837130E+02
              0.650136852665003E+01
             -0.305768490540152E+02
              0.310173302267975E+02
             -0.532009498781283E+02
              0.166048124483154E+01
             -0.358721549450345E+02
             -0.423451861913446E+01
             -0.995419894545392E+00
              0.182799980509610E+02
              0.141095121463729E+01
             -0.653849107069209E+01
              0.594122678002146E+02
              0.912862417512700E+02
              0.486585152894084E+02
              0.832975567598079E+02
             -0.115875289417749E+02
              0.142965645079811E+02
              0.543734862863811E+02
             -0.110134172078245E+02
             -0.739974612783416E+02
             -0.386845886985275E+02
             -0.524314195540286E+02
             -0.278249930576723E+02
              0.328486246144707E+02
             -0.117356138253283E+03
             -0.187781222922857E+02
              0.416246767066097E+02
             -0.388144349645445E+02
             -0.366481160851878E+02
              0.547358414583462E+02
              0.402984150263523E+02
             -0.355559413073047E+02
              0.139949614100202E+02
             -0.274785305183436E+02
              0.345056191886619E+02
              0.446002739366526E+01
              0.211257192236022E+02
             -0.888849001481627E+02
             -0.482413846779547E+02
             -0.100408199221467E+02
              0.314481458833874E+01
             -0.369101280856090E+02
              0.106564152691292E+03
             -0.231383389252596E+02
             -0.400098140085409E+02
              0.390469057547027E+02
             -0.496113663889163E+02
             -0.365259301447641E+02
              0.326294095449681E+02
              0.125092453571779E+02
              0.165413367450202E+02
              0.117532485468867E+02
             -0.133278944777535E+02
              0.225482870960415E+02
              0.592794088896403E+02
             -0.312752998651059E+02
              0.163358824600946E+02
              0.938950359806084E+02
              0.342309246071945E+02
             -0.730739535292321E+01
             -0.189658269580661E+02
              0.154105464226484E+03
             -0.165481354437332E+02
              0.365351994297134E+02
              0.196237876056433E+02
              0.362449742853203E+02
              0.896252089061097E+02
              0.544837574043135E+02
             -0.240270667295152E+01
              0.229033788691852E+02
              0.487356131155865E+02
              0.365291384994622E+02
             -0.528903831296518E+02
              0.940594458973188E+02
             -0.830306644388395E+02
             -0.198216569290858E+02
              0.585255065610219E+02
              0.688725346247084E+01
              0.787430500639118E+01
              0.341927801371363E+02
              0.299769160029900E+02
              0.355274784969760E+02
             -0.640311858294143E+02
              0.286121489662003E+01
             -0.298719877207823E+02
             -0.868280137775915E+01
             -0.146047019510047E+01
             -0.731829893948535E+01
             -0.418907920594262E+01
              0.863607475602078E+02
             -0.101172695130115E+02
             -0.277691890967688E+02
             -0.496689844932686E+01
              0.140583422413224E+02
             -0.566965996937204E+02
             -0.410492320916817E+02
             -0.383452890806851E+02
             -0.633234324719876E+02
             -0.170376577760718E+02
             -0.449324829890529E+02
              0.164174448040906E+02
             -0.236487618425338E+01
             -0.105262975157637E+02
             -0.937897644227880E+01
              0.809597262562670E+01
             -0.242912106543271E+02
              0.692648535323722E+02
             -0.811903544925543E+02
             -0.141717106935598E+02
             -0.174518935826670E+02
              0.182687582804753E+02
              0.215761817157306E+02
             -0.465969913505253E+02
             -0.201995371359326E+02
              0.443266223869889E+02
             -0.277095365573266E+02
              0.187796188164739E+02
              0.384411498633052E+02
             -0.321643636474619E+01
              0.114657996435528E+03
             -0.229819377169782E+02
             -0.342486818586639E+02
              0.577108636382474E+01
             -0.229840376151849E+02
              0.530050643671619E+02
             -0.340011890088003E+02
              0.107197794661971E+02
              0.642387665875556E+02
             -0.127125321911591E+02
              0.120810245653899E+03
              0.126503716430452E+03
             -0.653407225687749E+02
              0.593403477116509E+02
              0.167828662018893E+02
             -0.520671567176225E+02
              0.216665862787403E+02
              0.356616904727599E+02
              0.365329649263222E+02
              0.135032343286474E+01
              0.160868717252038E+02
              0.700041280199954E+02
             -0.248006006167648E+02
              0.181840961144587E+02
              0.742047727585154E+02
             -0.374148118247549E+02
             -0.131394135942479E+02
              0.511834068553942E+02
              0.298973353775751E+02
              0.783419761877634E+02
              0.224799264536296E+02
              0.636345456971713E+01
              0.281488853701197E+02
              0.385570128858363E+02
             -0.475086856612362E+02
              0.338542079487485E+01
              0.131822159988439E+02
              0.114290161518572E+02
              0.221888204300393E+02
             -0.578310390447094E+02
              0.367171154181409E+02
             -0.445728826561135E+02
             -0.349154373030248E+02
              0.179414352271899E+02
             -0.181639732283389E+02
              0.558054408944448E+02
             -0.256127543834227E+02
              0.268278663558832E+02
              0.369201633063863E+02
              0.832778358507323E+02
              0.577246845026923E+02
              0.464685932736141E+02
             -0.105091235468719E+02
             -0.397220929833605E+01
             -0.333888961203942E+02
              0.754896659796766E+02
              0.801028354411065E+02
              0.363927110561030E+02
             -0.193616023790573E+02
              0.514020769903870E+02
             -0.162446717257262E+02
              0.215378968998924E+02
              0.618095171588155E+02
              0.209763589627633E+01
             -0.105009675771964E+02
             -0.283487183469463E+02
             -0.515391618850670E+02
              0.950162177335395E+02
              0.442860882284610E+02
             -0.562493580044285E+02
             -0.975019718224098E+01
              0.250916503251849E+02
             -0.100243352866085E+02
              0.595341365327073E+02
              0.152661315359288E+02
              0.802776101428432E+02
              0.281453393112491E+02
             -0.264402547721687E+02
              0.249238857125357E+02
             -0.504439289772142E+01
             -0.324244981802219E+02
              0.133753529651090E+02
              0.205957118691582E+02
              0.937655305069842E+02
              0.800998695036616E+02
              0.554010642144202E+02
              0.733432175002051E+02
              0.807253407246327E+01
             -0.275006198662314E+02
              0.163628512805307E+02
             -0.369435847941818E+02
             -0.479545962864683E+02
             -0.566263224110585E+02
             -0.268262492509767E+02
             -0.110225586143391E+03
             -0.293486335434795E+02
             -0.841877074495677E+02
              0.211254944362554E+02
             -0.479346974877346E+02
              0.399565155312530E+02
             -0.946647752729095E+02
             -0.331461423438634E+02
              0.549707924624934E+02
              0.208513871219426E+02
             -0.835283819197759E+02
              0.632961728070612E+02
             -0.258503798676896E+02
              0.515167912178314E+02
             -0.243497342192398E+02
             -0.755315344982199E+02
              0.112650211100803E+02
             -0.614608462217221E+02
             -0.167941349224207E+02
             -0.152055391892223E+01
              0.420054855660673E+02
              0.127623876301698E+03
             -0.463601776505632E+02
             -0.364136497519451E+02
             -0.102216975429894E+01
             -0.130802591144141E+02
             -0.826338407944052E+02
             -0.599508277732103E+02
              0.519425635757025E+02
             -0.289622179638833E+02
              0.170491638434286E+02
             -0.491601961005411E+02
             -0.132782174052791E+02
             -0.439078433768402E+02
              0.567742507117700E+02
              0.150961266703432E+02
             -0.232878236467182E+02
             -0.128099036607186E+02
              0.675649836112707E+01
             -0.623807322981793E+01
              0.443361781251867E+02
             -0.253191882604563E+02
              0.290476889552542E+01
              0.341355829969608E+02
              0.171436458946118E+02
             -0.161491984419910E+02
              0.157000825924220E+03
              0.541523621611620E+02
              0.122367537743399E+01
              0.161279735230225E+02
             -0.618174613774459E+02
              0.316604094555238E+02
             -0.725576758967120E+02
             -0.253805476800933E+02
             -0.525750780783209E+02
             -0.220984540519327E+02
              0.572322459256518E+02
             -0.540021433985076E+02
              0.162559690766252E+02
             -0.413383224190761E+01
              0.385550019835091E+01
             -0.435146855236566E+02
             -0.480122588385370E+02
             -0.407914325578349E+01
             -0.426017658542351E+02
             -0.218017085074436E+02
             -0.440477753646924E+02
             -0.119409554487216E+02
             -0.360567338122569E+02
             -0.518908171157352E+02
              0.213832479488913E+02
             -0.209541795721847E+02
              0.189124976824054E+02
              0.980113491331784E+01
             -0.741902325981008E+02
             -0.550441028274868E+02
             -0.401217042462306E+02
              0.355728666717780E+02
              0.265942960045788E+01
             -0.629541819276277E+02
              0.588842677001573E+02
             -0.403375593379763E+02
              0.547970062683512E+02
             -0.291509303504330E+02
             -0.448325807570417E+02
              0.299040856193881E+02
             -0.661159784727013E+02
             -0.381616365268949E+02
              0.675595525005305E+02
              0.205254859732058E+02
             -0.362981478947709E+02
              0.492744321940214E+02
             -0.175110433219930E+02
             -0.325121090105170E+02
             -0.303324036461936E+02
             -0.503265897241190E+02
              0.251049278047625E+02
             -0.937508168155176E+02
             -0.843943936921418E+02
             -0.740109173225994E+01
             -0.308144381897397E+02
             -0.578903609416125E+02
              0.725443933875190E+02
              0.132216062824554E+03
             -0.361804718898388E+02
             -0.257033532581414E+01
             -0.640217002989418E+02
              0.653611010484376E+02
              0.172085539876641E+02
             -0.183362512277681E+02
             -0.411737975890455E+02
              0.149215691852376E+02
             -0.588969483530436E+02
             -0.198609745313760E+02
             -0.908780624671112E+02
              0.338943663625660E+02
              0.169367402373240E+02
              0.181015169125340E+01
             -0.714686082234107E+01
             -0.332385972335885E+02
             -0.767394647399669E+01
              0.126263138794502E+03
             -0.199447053467140E+02
             -0.440504961556791E+02
             -0.687400127371891E+02
              0.110257734014689E+02
             -0.344327001551779E+02
              0.598952162035128E+01
              0.263311783930952E+02
              0.102486392047123E+02
              0.280023148324909E+02
              0.121089089549957E+02
              0.632388244224513E+02
              0.317696025445624E+02
             -0.328619594631612E+02
              0.358908374379260E+02
              0.381129663647662E+02
              0.121417643436193E+02
              0.489087703079953E+02
             -0.226648981327512E+02
              0.769107238769523E+02
              0.173760153899860E+02
             -0.273948277456826E+02
             -0.729145254661858E+01
             -0.187410170579837E+02
              0.262341504836281E+02
             -0.235336562998791E+02
             -0.221230739167538E+00
             -0.858476963135979E+01
              0.813431484373460E+02
              0.503148929451157E+02
             -0.689826819051157E+02
             -0.483357216173312E+01
             -0.557661168375763E+02
             -0.159645884365495E+02
             -0.269592678861599E+02
              0.383467856470827E+01
              0.597348797940198E+00
             -0.259328550429022E+02
              0.824114181290500E+01
             -0.607492535164883E+01
             -0.128827480427268E+02
              0.863087528468702E+02
              0.182408035588750E+02
             -0.811490232941187E+02
             -0.460295470792272E+02
              0.950017855300480E+02
              0.279138381003161E+02
             -0.107145329629598E+02
              0.105144272086746E+03
             -0.195123273716223E+02
             -0.123252943679207E+02
             -0.547602968176466E+01
              0.108522598165304E+02
              0.274427016065321E+02
              0.780997407745676E+01
              0.306738230480782E+02
             -0.188119729138590E+02
             -0.306302512505915E+02
             -0.420109196358782E+02
             -0.479452398818248E+02
              0.465963378710965E+02
              0.127473785503868E+02
              0.389716760945115E+02
              0.134455910096802E+02
              0.860290130694803E+02
              0.157409819513049E+02
             -0.849811783440616E+02
             -0.336174930295578E+02
              0.133609318135477E+02
             -0.304092568473918E+02
              0.629833506762280E+02
             -0.896915464860103E+01
              0.149384581476509E+02
              0.500073764548767E+02
             -0.711468823777518E+02
              0.150470613481986E+03
              0.209797516169355E+02
              0.272338766848092E+02
              0.349739241436558E+02
              0.104111676680463E+02
             -0.154467078047423E+01
              0.359788111989984E+02
             -0.359367519840500E+02
              0.777929625049968E+02
              0.689063464653935E+02
             -0.408255866657918E+02
              0.150792977221547E+02
              0.673929820886250E+02
             -0.224798425829417E+02
              0.155435931641968E+02
              0.436464438093647E+02
              0.424111894345049E+02
             -0.788786911206550E+02
             -0.152982628337547E+02
             -0.357274502303776E+02
             -0.154296472948357E+01
             -0.773003298221520E+01
             -0.534073818839613E+01
             -0.181013971847911E+02
             -0.295945798350976E+02
              0.647322096847250E+01
              0.111941464755698E+02
              0.538513814779708E+02
             -0.392917508526891E+02
              0.377341498243622E+02
              0.441326942999729E+02
             -0.186573995279495E+02
              0.875823361765110E+02
             -0.701208165508417E+02
             -0.103707108463606E+03
             -0.663916376145717E+01
             -0.274928649798346E+01
              0.384614639952031E+01
              0.793698674266003E+02
             -0.106988931674273E+02
              0.418986997973039E+02
              0.447133951691772E+02
              0.387032564408815E+02
             -0.998035753203953E+01
              0.630073498439385E+02
             -0.134546269616129E+02
             -0.309671582927301E+02
             -0.481211329106013E+02
              0.594337545605590E+01
              0.371120583007379E+02
             -0.602070154380553E+01
              0.394285786567127E+02
             -0.172235440992966E+01
              0.657722875667361E+02
              0.187846691536654E+02
              0.100170896078072E+02
             -0.121567609929845E+02
              0.333609292465538E+02
              0.364494159896308E+02
              0.233146702240234E+02
             -0.518296800639405E+00
             -0.553370570178054E+02
              0.262341444444502E+02
              0.176240085966978E+02
              0.404068316062358E+02
              0.273796637759116E+02
              0.374152523774636E+02
             -0.605898141176144E+01
              0.253347980502765E+02
             -0.300072981375479E+02
             -0.200477639263079E+01
             -0.571748605147679E+02
             -0.309330743082819E+02
              0.380939675296502E+02
             -0.940162073197714E+02
              0.295541729001876E+02
              0.184764770511497E+02
              0.844865161375744E+02
             -0.300561384572510E+02
              0.331440932496235E+02
             -0.138112265458462E+02
             -0.466483806101110E+02
             -0.764340779157610E+02
             -0.537866604583976E+01
             -0.865027017833103E+02
              0.199789934253627E+02
             -0.248646336264552E+02
              0.307558535297771E+02
              0.238367318274666E+02
             -0.243052916105353E+02
             -0.267550768396031E+02
              0.393026027119608E+02
             -0.591553134931351E+02
             -0.117707387481121E+02
             -0.196947688913558E+02
              0.214359227924323E+02
             -0.882766245798160E+01
              0.362756539327285E+01
             -0.201347881838230E+02
              0.561423435335740E+02
             -0.443321129737370E+02
              0.793964977478993E+01
[...]
              0.284408070061135E+02
              0.142419539046623E+03
              0.244365273896403E+02
              0.123574437727274E+02
             -0.466411812914735E+02
             -0.640283428571277E+02
             -0.189839835460121E+02
              0.331525713525489E+02
             -0.432268948945409E+01
              0.191947415139049E+02
              0.337995104541845E+02
             -0.588905098297406E+02
              0.224107906673082E+02
              0.582813972570868E+02
              0.555255873069924E+02
             -0.422931291536543E+01
             -0.132262643579270E+01
             -0.996725396060097E+01
             -0.484438740692298E+02
             -0.678549571692147E+02
              0.789024907494150E+02
             -0.527912705369252E+01
             -0.590439133794595E+02
              0.176076688668547E+01
             -0.206956200776893E+02
              0.942626572578782E+02
             -0.217669895304266E+02
             -0.355450220213949E+02
              0.337384787107869E+02
             -0.146779075511643E+02
              0.391979485033153E+02
             -0.229654929494950E+01
              0.101500488841589E+03
              0.492306392801941E+02
             -0.501469160894047E+01
             -0.323979001693017E+02
              0.233986902563402E+02
             -0.531240610551269E+02
             -0.127905564386593E+02
              0.588887495987396E+02
             -0.289060862573164E+02
             -0.440181928237839E+02
             -0.224286188965685E+02
              0.520835844754772E+02
              0.125038282026003E+02
             -0.852642036984546E+02
              0.305835986424326E+02
              0.152448783151007E+02
              0.585984365618654E+01
             -0.515718623019574E+02
             -0.371337525931943E+01
              0.324654558221793E+02
              0.514821114833753E+02
              0.636149093932377E+02
              0.230967115378424E+02
              0.767047161562289E+00
             -0.500925182779021E+02
             -0.512056196883893E+02
             -0.750548970375904E+02
             -0.627556377932774E+01
              0.310866259242339E+02
             -0.380477613314727E+01
              0.549162912314332E+02
             -0.319756961950093E+02
              0.166902098780761E+02
             -0.104297408986026E+02
             -0.291128410438908E+02
              0.588693172883114E+02
              0.793630211852530E+01
              0.607690143119261E+02
              0.514275152985635E+01
              0.265809076209755E+02
             -0.193188559944708E+02
              0.588910838690132E+02
             -0.112843948123990E+02
             -0.981871569185166E-01
             -0.793868217450380E+02
             -0.128553627269301E+02
              0.722273661452302E+02
              0.676017781889640E+02
              0.253199920134070E+02
             -0.130976745253159E+02
              0.348732447169107E+01
             -0.174804760246446E+02
             -0.219256890417057E+01
              0.912291876637128E+02
              0.128622351505692E+01
             -0.192140925814937E+02
             -0.111240773312163E+03
             -0.554169688368488E+02
             -0.376973872674170E+02
             -0.661324105754468E+02
             -0.558770376244598E+02
             -0.685908631004031E+02
             -0.449523993655323E+02
             -0.411863918536382E+02
             -0.454129425493342E+02
              0.485709564315981E+02
             -0.294506595515032E+02
             -0.998550609171499E+02
              0.421168094793583E+02
             -0.261968294606638E+02
             -0.794408053564146E+02
              0.948612368451446E+02
             -0.221146579603471E+02
              0.228481930693779E+02
              0.456774551541470E+02
             -0.121526722200878E+01
              0.255708789644345E+02
              0.470071827746003E+01
              0.411567242970037E+00
             -0.151607857739392E+02
             -0.719821859808147E+02
              0.133866863329471E+02
             -0.129930107123843E+03
              0.628145917304547E+02
             -0.442698172504724E+02
             -0.163753401590651E+02
             -0.158855540002386E+02
              0.730115450670883E+01
             -0.228304232452213E+02
              0.298189509582102E+02
             -0.523312125435706E+02
              0.368894348273109E+02
              0.373588477724945E+02
              0.168374363042324E+02
              0.101386612900916E+02
              0.198936212391841E+02
              0.628782916320233E+01
              0.311499744479033E+02
             -0.802746263758709E+01
             -0.596572581792034E+02
              0.763404421111892E+01
             -0.154555826017718E+02
             -0.197526892107788E+01
              0.509476138053785E+02
             -0.830686713841272E+02
             -0.142992125731655E+01
              0.593400303802241E+00
              0.100015962204936E+02
              0.319790975782092E+02
             -0.124197013401454E+02
              0.839385071332512E+02
              0.488880566236597E+02
             -0.183658101910813E+02
             -0.955541813118816E+01
              0.110787479250260E+01
              0.773048258100197E+02
             -0.588083028968693E+02
             -0.106231495753692E+03
              0.310782896195500E+02
             -0.163812447470647E+02
             -0.140726139320348E+02
              0.131461184405464E+02
              0.772092119775868E+02
              0.466162738964599E+02
             -0.154153851301282E+02
             -0.505747122603906E+02
             -0.556832438689541E+01
              0.307723010244687E+02
             -0.112642354883260E+02
             -0.759283308473175E+02
             -0.279465654729657E+01
             -0.894818637784806E+02
             -0.477966116561908E+02
              0.773140100124841E+02
             -0.486247629490554E+02
             -0.640311431809040E+02
             -0.517071437469772E+02
             -0.351748620021129E+02
              0.343052535086102E+02
              0.825827472709389E+02
             -0.366032697366234E+01
              0.277763598094222E+02
             -0.184918732673076E+02
             -0.697195480790754E+02
              0.467830081845258E+02
             -0.447699284494637E+02
              0.322699492194788E+02
              0.377302046773714E+02
             -0.666204824643137E+01
              0.391940177640236E+02
              0.439949739055623E+02
              0.101305660727037E+03
             -0.156199182746464E+02
             -0.459266950896879E+02
             -0.615834441872142E+02
             -0.124801439279123E+02
             -0.235541113320373E+02
              0.103442808650116E+03
             -0.451542198697798E+02
              0.105465119869381E+02
              0.968980016155734E+01
             -0.265369010670923E+02
             -0.803590067018722E+02
             -0.703769928390079E+01
              0.984769858401193E+02
              0.951543390600082E+01
              0.811288975507171E+01
             -0.530112494806988E+02
             -0.607642135469255E+02
             -0.573596237319973E+01
              0.502364310151175E+02
             -0.223437374153604E+02
              0.108429350344679E+03
             -0.438558816733357E+02
              0.147249708123191E+02
             -0.224226849943901E+02
             -0.721328817417971E+02
              0.172388123491567E+01
             -0.504407421311896E+02
             -0.763965430975662E+02
              0.624488118442400E+01
              0.234894534351110E+01
              0.516490930704632E+02
              0.188687135467863E+02
             -0.325555533701056E+02
              0.231106981215072E+02
             -0.815782018231144E+02
             -0.523614396856295E+02
              0.906240569309743E+02
              0.141976543246484E+02
             -0.187812049553646E+02
             -0.353315642600199E+02
             -0.271904934191298E+01
             -0.592449729243685E+01
              0.835553503409613E+02
              0.420087914101993E+02
             -0.165952996577753E+02
             -0.121394788189317E+02
             -0.429237197416279E+02
             -0.200981473820803E+02
             -0.672546159433828E+02
              0.462587722691266E+02
              0.551228466604374E+01
              0.145013144845516E+02
              0.157168902259248E+02
             -0.649629843603883E+00
             -0.169644552485856E+02
             -0.299442092035414E+01
             -0.100980630245169E+03
             -0.230511505542841E+02
             -0.773309144603951E+01
             -0.950331399299142E+01
              0.548098894730248E+02
              0.627295731455943E+02
              0.165538396083914E+02
             -0.974972010704499E+02
              0.650281857821466E+02
             -0.216068171332788E+02
             -0.378737900890428E+02
             -0.868430757348372E+02
             -0.387984230020850E+02
              0.567991010256997E+02
              0.246596820377686E+02
              0.526619859144307E+01
              0.294126793439761E+02
             -0.567446840610789E+02
             -0.424822917952154E+02
              0.518602557119598E+02
              0.389087874627548E+02
              0.520883630444052E+02
             -0.111450829362227E+01
              0.694368649851486E+01
              0.571840582339203E+02
              0.967555472056486E+02
             -0.300695629628965E+02
              0.325319929530124E+02
             -0.120853052097455E+02
             -0.414390487276939E+02
             -0.316416610231312E+02
             -0.302211048308388E+02
             -0.131918217673935E+02
             -0.525349317810735E+02
             -0.217839247426198E+02
             -0.141784574132124E+03
              0.370570088381875E+02
              0.208059576365872E+02
             -0.396166180285290E+01
             -0.381827436555316E+02
             -0.204874769086073E+02
             -0.529627815914498E+02
              0.151619013159560E+02
              0.823783968557797E+02
             -0.252740910841260E+02
             -0.164073625796478E+02
              0.239048374347124E+02
             -0.492218320165607E+02
              0.884536096715807E+02
              0.155055642613794E+02
              0.226047142556286E+02
              0.492459074444783E+02
              0.311463012997837E+01
              0.544709517702839E+02
              0.144099114748513E+02
             -0.106384062867577E+02
              0.735662578646588E+01
              0.659396251799649E+00
              0.729949437609095E+02
              0.101829161421689E+02
              0.121952693585906E+02
             -0.130736068538193E+02
              0.132952445869624E+02
             -0.915552632637905E+02
             -0.327647109746511E+02
             -0.459701092066018E+02
              0.487372729561712E+02
             -0.292877114295222E+02
             -0.660845375682957E+02
              0.541558140338655E+02
             -0.122512978563013E+02
              0.441995250052299E+02
             -0.902955329856516E+02
              0.232810766705322E+02
              0.856270217363829E+01
              0.586355118761503E+01
             -0.838601511761379E+01
             -0.908181092759514E+01
              0.481924310169830E+02
              0.200069776350000E+01
             -0.477740273331650E+02
             -0.177415943696221E+02
              0.277251338836265E+02
             -0.118501555961916E+03
             -0.933737530719938E+02
              0.394687203244507E+01
              0.118578158043638E+02
             -0.416097325588173E+02
             -0.388543266638590E+01
              0.112559181946236E+03
              0.307558654639861E+02
             -0.574043759663944E+02
              0.928007947083981E+01
             -0.967753619111275E+01
              0.106674850536280E+02
             -0.339687887174404E+02
              0.196822659699785E+02
              0.285648755178286E+02
             -0.301054008572152E+01
              0.108709185241936E+03
             -0.140334807518045E+02
             -0.317435420341895E+02
              0.144710091387440E+02
              0.468536722982465E+02
             -0.357424827728206E+02
             -0.316989689966543E+01
              0.969734686698886E+02
             -0.462399153710714E+01
              0.624046593783727E+02
              0.136358998086044E+02
             -0.901581684452236E+01
             -0.305733496364345E+02
              0.568504015645607E+02
             -0.517099508023951E+02
             -0.221495641199783E+01
             -0.171005135152640E+02
             -0.407119055215469E+02
              0.185625412204878E+02
              0.240881066681099E+02
              0.115959161806469E+02
              0.696920338534710E+00
             -0.386490629683329E+02
              0.215583893602626E+02
             -0.674071203062894E+01
             -0.247146371990396E+02
             -0.211407818504196E+02
              0.203657246614488E+02
             -0.601258679418697E+01
             -0.351104322422576E+02
             -0.107182741022964E+03
              0.103276879812090E+02
              0.249338712061530E+02
             -0.389803486456594E+02
             -0.212182661306977E+02
              0.811220456466583E+02
              0.660656380903504E+01
              0.313284171844650E+02
              0.397233957769623E+01
              0.323832713391612E+02
              0.649164025468968E+01
             -0.374879679289459E+02
             -0.243997148611024E+01
              0.878222956180554E+01
              0.275508570210795E+02
              0.785103298167453E+02
              0.509542928506738E+02
              0.215678111554837E+00
              0.170228372537755E+02
              0.616224297240050E+02
              0.237267230226828E+02
             -0.755847043684557E+02
             -0.275067958723496E+02
              0.151623710458468E+02
              0.565982159932730E+01
              0.256102937088552E+02
             -0.550051610204930E+02
              0.897753208002470E+01
              0.388361119425501E+02
              0.500148430072610E+02
             -0.436763410239614E+02
             -0.685223472894376E+01
             -0.210685931528809E+01
             -0.134761543930732E+02
             -0.366208509558757E+02
             -0.215698134158235E+02
             -0.212855561845006E+01
              0.799740898983254E+01
              0.423441690191830E+02
             -0.309532234612253E+02
              0.830017742706964E+02
              0.329051353509444E+02
              0.221452723264014E+02
              0.335275805616450E+02
              0.324094379521728E+02
              0.348303497111785E+02
              0.539719491869866E+02
             -0.436236614517914E+02
              0.622631764287022E+02
             -0.112849104278862E+03
              0.308758914646358E+02
             -0.107010591390336E+03
              0.858180973227712E+02
              0.694655626167889E+02
             -0.110148204539153E+02
             -0.495299327674060E+02
             -0.431711555497365E+02
             -0.625919238605295E+02
             -0.631999112780780E+02
              0.554672887744113E+02
              0.407440347646650E+02
              0.237813109268180E+02
              0.374609176565380E+02
              0.405439690383561E+02
             -0.384023501269151E+02
             -0.198373397303429E+02
              0.589264421951836E+02
             -0.116947517220140E+02
              0.554313217140409E+02
              0.703238080833187E+02
             -0.558660447509424E+01
             -0.709964898050761E+02
             -0.802563005714660E+00
             -0.246616346996040E+01
             -0.887369062471453E+01
             -0.181644914418928E+01
             -0.655894586931337E+02
             -0.210489676299943E+02
              0.549303075118202E+01
              0.910606922169251E+01
              0.471446453940479E+02
             -0.399774209642266E+02
              0.659362180545792E+02
             -0.427128304546985E+02
              0.212134344832415E+02
              0.352418675781185E+02
 
 BEEF-vdW xc energy contributions
           1 :   -785.942183381487     
           2 :    721.331328315728     
           3 :   -609.883684271182     
           4 :    479.243741932677     
           5 :   -357.034712945057     
           6 :    262.891715891464     
           7 :   -204.244895943945     
           8 :    176.438613868419     
           9 :   -166.752823666045     
          10 :    160.515282818063     
          11 :   -146.875146346859     
          12 :    122.048721248130     
          13 :   -89.1549808817898     
          14 :    55.2728882540694     
          15 :   -27.4352196494847     
          16 :    9.37389903323492     
          17 :  -0.260684276795473     
          18 :   -4.32144495666523     
          19 :    9.88353120637726     
          20 :   -20.3231989496609     
          21 :    36.2469879048808     
          22 :   -54.9820275486311     
          23 :    72.1012884547102     
          24 :   -83.6352489551527     
          25 :    87.8811197970670     
          26 :   -86.0078564686637     
          27 :    81.2837044258255     
          28 :   -77.4011664727502     
          29 :    76.7331579956273     
          30 :   -79.3397766197268     
          31 :   -86.3799759373625     
          32 :   -66.0634562819889     

     Writing output data file ./pwscf.save/
 
     init_run     :    371.10s CPU    375.90s WALL (       1 calls)
     electrons    :  17366.25s CPU  17538.89s WALL (       1 calls)
     forces       :    105.02s CPU    106.33s WALL (       1 calls)

     Called by init_run:
     wfcinit      :    322.79s CPU    326.55s WALL (       1 calls)
     potinit      :     45.03s CPU     45.40s WALL (       1 calls)
     hinit0       :      1.21s CPU      1.25s WALL (       1 calls)

     Called by electrons:
     c_bands      :  14554.47s CPU  14689.33s WALL (      26 calls)
     sum_band     :   2022.56s CPU   2039.16s WALL (      26 calls)
     v_of_rho     :    131.40s CPU    136.92s WALL (      26 calls)
     newd         :     41.19s CPU     56.82s WALL (      26 calls)
     PAW_pot      :    180.17s CPU    180.18s WALL (      26 calls)
     mix_rho      :    482.26s CPU    483.09s WALL (      26 calls)
     vdW_kernel   :     33.63s CPU     33.64s WALL (       1 calls)

     Called by c_bands:
     init_us_2    :    107.64s CPU    107.92s WALL (     702 calls)
     cegterg      :  13480.69s CPU  13615.21s WALL (     338 calls)

     Called by *egterg:
     cdiaghg      :    133.68s CPU    133.72s WALL (    2793 calls)
     h_psi        :   8457.68s CPU   8503.85s WALL (    2819 calls)
     s_psi        :   1521.13s CPU   1521.14s WALL (    2819 calls)
     g_psi        :     21.41s CPU     21.42s WALL (    2468 calls)

     Called by h_psi:
     h_psi:calbec :   1397.10s CPU   1397.21s WALL (    2819 calls)
     vloc_psi     :   5504.09s CPU   5505.64s WALL (    2819 calls)
     add_vuspsi   :   1522.13s CPU   1522.22s WALL (    2819 calls)

     General routines
     calbec       :   2016.56s CPU   2016.69s WALL (    3209 calls)
     fft          :     54.39s CPU     54.41s WALL (    3586 calls)
     ffts         :    152.78s CPU    152.79s WALL (   10712 calls)
     fftw         :   5650.99s CPU   5651.91s WALL (  422266 calls)
 
     Parallel routines
 
     PWSCF        :      4h59m CPU      5h 2m WALL

 
   This run was terminated on:  19:57:30  20May2022            

=------------------------------------------------------------------------------=
   JOB DONE.
=------------------------------------------------------------------------------=
