
     Program PWSCF v.6.7MaX starts on 20Dec2022 at 15:43:16 

     This program is part of the open-source Quantum ESPRESSO suite
     for quantum simulation of materials; please cite
         "P. Giannozzi et al., J. Phys.:Condens. Matter 21 395502 (2009);
         "P. Giannozzi et al., J. Phys.:Condens. Matter 29 465901 (2017);
          URL http://www.quantum-espresso.org", 
     in publications or presentations arising from this work. More details at
     http://www.quantum-espresso.org/quote

     Parallel version (MPI), running on     1 processors

     MPI processes distributed on     1 nodes
     Reading input from cc-ensemble.in
Warning: card &CELL ignored
Warning: card / ignored

     Current dimensions of program PWSCF are:
     Max number of different atomic species (ntypx) = 10
     Max number of k-points (npk) =  40000
     Max angular momentum in pseudopotentials (lmaxx) =  3
     file Pt.pbe-n-kjpaw_psl.1.0.0.UPF: wavefunction(s)  6S 5D renormalized
     file C.pbe-n-kjpaw_psl.1.0.0.UPF: wavefunction(s)  2S 2P renormalized

     **************************************************************************
     Initializing libbeef V0.1.2 with the BEEF-vdW functional.
     Citation: Wellendorff et al., PRB 85, 235149 (2012).
     **************************************************************************


     IMPORTANT: XC functional enforced from input :
     Exchange-correlation= BEEF-VDW
                           (   1   4  43  14   2   0   0)
     Any further DFT definition will be discarded
     Please, verify this is what you really want


     Subspace diagonalization in iterative solution of the eigenvalue problem:
     a serial algorithm will be used

 
     G-vector sticks info
     --------------------
     sticks:   dense  smooth     PW     G-vecs:    dense   smooth      PW
     Sum        4267    4267   1159               664273   664273   93667
 


     bravais-lattice index     =            0
     lattice parameter (alat)  =      16.0349  a.u.
     unit-cell volume          =   10571.7109 (a.u.)^3
     number of atoms/cell      =           38
     number of atomic types    =            2
     number of electrons       =       368.00
     number of Kohn-Sham states=          221
     kinetic-energy cutoff     =      60.0000  Ry
     charge density cutoff     =     240.0000  Ry
     scf convergence threshold =      1.0E-06
     mixing beta               =       0.7000
     number of iterations used =            8  local-TF  mixing
     Exchange-correlation= BEEF-VDW
                           (   1   4  43  14   2   0   0)

     celldm(1)=  16.034858  celldm(2)=   0.000000  celldm(3)=   0.000000
     celldm(4)=   0.000000  celldm(5)=   0.000000  celldm(6)=   0.000000

     crystal axes: (cart. coord. in units of alat)
               a(1) = (   1.000000   0.000000   0.000000 )  
               a(2) = (   0.500000   0.866025   0.000000 )  
               a(3) = (   0.000000   0.000000   2.960870 )  

     reciprocal axes: (cart. coord. in units 2 pi/alat)
               b(1) = (  1.000000 -0.577350  0.000000 )  
               b(2) = (  0.000000  1.154701  0.000000 )  
               b(3) = (  0.000000  0.000000  0.337739 )  


     PseudoPot. # 1 for Pt read from file:
     /users/bkreitz1/quantum-espresso/potentials/Pt.pbe-n-kjpaw_psl.1.0.0.UPF
     MD5 check sum: 04dc8a03c51ece93fc7b5889c2958091
     Pseudo is Projector augmented-wave + core cor, Zval = 10.0
     Generated using 'atomic' code by A. Dal Corso  v.6.7MaX
     Shape of augmentation charge: PSQ
     Using radial grid of 1277 points,  6 beta functions with: 
                l(1) =   0
                l(2) =   0
                l(3) =   1
                l(4) =   1
                l(5) =   2
                l(6) =   2
     Q(r) pseudized with 0 coefficients 


     PseudoPot. # 2 for C  read from file:
     /users/bkreitz1/quantum-espresso/potentials/C.pbe-n-kjpaw_psl.1.0.0.UPF
     MD5 check sum: a169b0ebad56f5ec0d79c4633f80bf22
     Pseudo is Projector augmented-wave + core cor, Zval =  4.0
     Generated using 'atomic' code by A. Dal Corso  v.6.7MaX
     Shape of augmentation charge: PSQ
     Using radial grid of 1073 points,  4 beta functions with: 
                l(1) =   0
                l(2) =   0
                l(3) =   1
                l(4) =   1
     Q(r) pseudized with 0 coefficients 


     atomic species   valence    mass     pseudopotential
        Pt            10.00   195.08400     Pt( 1.00)
        C              4.00    12.01100     C ( 1.00)

     No symmetry found



   Cartesian axes

     site n.     atom                  positions (alat units)
         1           Pt  tau(   1) = (   0.0000000   0.0000000   1.0017346  )
         2           Pt  tau(   2) = (   0.3333333   0.0000000   1.0017346  )
         3           Pt  tau(   3) = (   0.6666667   0.0000000   1.0017346  )
         4           Pt  tau(   4) = (   0.1666667   0.2886751   1.0017346  )
         5           Pt  tau(   5) = (   0.5000000   0.2886751   1.0017346  )
         6           Pt  tau(   6) = (   0.8333333   0.2886751   1.0017346  )
         7           Pt  tau(   7) = (   0.3333333   0.5773503   1.0017346  )
         8           Pt  tau(   8) = (   0.6666667   0.5773503   1.0017346  )
         9           Pt  tau(   9) = (   1.0000000   0.5773503   1.0017346  )
        10           Pt  tau(  10) = (   0.1666667   0.0962250   1.2739001  )
        11           Pt  tau(  11) = (   0.5000000   0.0962250   1.2739001  )
        12           Pt  tau(  12) = (   0.8333333   0.0962250   1.2739001  )
        13           Pt  tau(  13) = (   0.3333333   0.3849002   1.2739001  )
        14           Pt  tau(  14) = (   0.6666667   0.3849002   1.2739001  )
        15           Pt  tau(  15) = (   1.0000000   0.3849002   1.2739001  )
        16           Pt  tau(  16) = (   0.5000000   0.6735753   1.2739001  )
        17           Pt  tau(  17) = (   0.8333333   0.6735753   1.2739001  )
        18           Pt  tau(  18) = (   1.1666667   0.6735753   1.2739001  )
        19           Pt  tau(  19) = (  -0.0020872   0.1909618   1.5459824  )
        20           Pt  tau(  20) = (   0.3329379   0.1922184   1.5458666  )
        21           Pt  tau(  21) = (   0.6615771   0.1930637   1.5476331  )
        22           Pt  tau(  22) = (   0.1666262   0.4821181   1.5407614  )
        23           Pt  tau(  23) = (   0.4979882   0.4764042   1.5476282  )
        24           Pt  tau(  24) = (   0.8312495   0.4799167   1.5414638  )
        25           Pt  tau(  25) = (   0.3382435   0.7726268   1.5477053  )
        26           Pt  tau(  26) = (   0.6643335   0.7687236   1.5459809  )
        27           Pt  tau(  27) = (   1.0008469   0.7692530   1.5407618  )
        28           Pt  tau(  28) = (  -0.0070648  -0.0040922   1.8519507  )
        29           Pt  tau(  29) = (   0.3452325  -0.0188845   1.8137225  )
        30           Pt  tau(  30) = (   0.6711636  -0.0018697   1.8181201  )
        31           Pt  tau(  31) = (   0.1562974   0.3083859   1.8137394  )
        32           Pt  tau(  32) = (   0.4976697   0.2873211   1.8645718  )
        33           Pt  tau(  33) = (   0.8226177   0.2878670   1.8171553  )
        34           Pt  tau(  34) = (   0.3339693   0.5821626   1.8181185  )
        35           Pt  tau(  35) = (   0.6606110   0.5684500   1.8171460  )
        36           Pt  tau(  36) = (   0.9980369   0.5761932   1.8118345  )
        37           C   tau(  37) = (   0.1746205   0.1008074   1.9550979  )
        38           C   tau(  38) = (   0.3135868   0.1809684   1.9664341  )

     number of k points=    13  Marzari-Vanderbilt smearing, width (Ry)=  0.0200
                       cart. coord. in units 2pi/alat
        k(    1) = (   0.0000000   0.0000000   0.0000000), wk =   0.0800000
        k(    2) = (   0.0000000   0.2309401   0.0000000), wk =   0.1600000
        k(    3) = (   0.0000000   0.4618802   0.0000000), wk =   0.1600000
        k(    4) = (   0.2000000  -0.1154701   0.0000000), wk =   0.1600000
        k(    5) = (   0.2000000   0.1154701   0.0000000), wk =   0.1600000
        k(    6) = (   0.2000000   0.3464102   0.0000000), wk =   0.1600000
        k(    7) = (   0.2000000  -0.5773503   0.0000000), wk =   0.1600000
        k(    8) = (   0.2000000  -0.3464102   0.0000000), wk =   0.1600000
        k(    9) = (   0.4000000  -0.2309401   0.0000000), wk =   0.1600000
        k(   10) = (   0.4000000  -0.0000000   0.0000000), wk =   0.1600000
        k(   11) = (   0.4000000   0.2309401   0.0000000), wk =   0.1600000
        k(   12) = (   0.4000000  -0.6928203   0.0000000), wk =   0.1600000
        k(   13) = (   0.4000000  -0.4618802   0.0000000), wk =   0.1600000

     Dense  grid:   664273 G-vectors     FFT dimensions: (  80,  80, 240)

     Estimated max dynamical RAM per process >       7.94 GB

     Check: negative core charge=   -0.000001

     Initial potential from superposition of free atoms

     starting charge  367.99381, renormalised to  368.00000

     negative rho (up, down):  1.137E-02 0.000E+00


     %%%%%%%%%%%%%%%%%%%%%%%%%%%%%%%%%%%%%%%%%%%%%%%%%%%%%%%%%%%%%%%%%%%%%%%%
     %                                                                      %
     % You are using vdW-DF, which was implemented by the Thonhauser group. %
     % Please cite the following two papers that made this development      %
     % possible and the two reviews that describe the various versions:     %
     %                                                                      %
     %   T. Thonhauser et al., PRL 115, 136402 (2015).                      %
     %   T. Thonhauser et al., PRB 76, 125112 (2007).                       %
     %   K. Berland et al., Rep. Prog. Phys. 78, 066501 (2015).             %
     %   D.C. Langreth et al., J. Phys.: Condens. Matter 21, 084203 (2009). %
     %                                                                      %
     %                                                                      %
     % If you are calculating the stress with vdW-DF, please also cite:     %
     %                                                                      %
     %   R. Sabatini et al., J. Phys.: Condens. Matter 24, 424209 (2012).   %
     %                                                                      %
     %%%%%%%%%%%%%%%%%%%%%%%%%%%%%%%%%%%%%%%%%%%%%%%%%%%%%%%%%%%%%%%%%%%%%%%%


     Starting wfcs are  332 randomized atomic wfcs
     Checking if some PAW data can be deallocated... 

     total cpu time spent up to now is      300.3 secs

     Self-consistent Calculation

     iteration #  1     ecut=    60.00 Ry     beta= 0.70
     Davidson diagonalization with overlap
     ethr =  1.00E-02,  avg # of iterations =  2.0

     Threshold (ethr) on eigenvalues was too large:
     Diagonalizing with lowered threshold

     Davidson diagonalization with overlap
     ethr =  6.90E-04,  avg # of iterations =  3.1

     negative rho (up, down):  2.109E-02 0.000E+00

     total cpu time spent up to now is     1466.8 secs

     total energy              =  -27791.68065938 Ry
     estimated scf accuracy    <       2.80291223 Ry

     iteration #  2     ecut=    60.00 Ry     beta= 0.70
     Davidson diagonalization with overlap
     ethr =  7.62E-04,  avg # of iterations =  2.0

     negative rho (up, down):  2.031E-02 0.000E+00

     total cpu time spent up to now is     1985.6 secs

     total energy              =  -27791.93853790 Ry
     estimated scf accuracy    <       0.96639939 Ry

     iteration #  3     ecut=    60.00 Ry     beta= 0.70
     Davidson diagonalization with overlap
     ethr =  2.63E-04,  avg # of iterations =  2.0

     negative rho (up, down):  1.823E-02 0.000E+00

     total cpu time spent up to now is     2523.8 secs

     total energy              =  -27792.01972149 Ry
     estimated scf accuracy    <       0.30996523 Ry

     iteration #  4     ecut=    60.00 Ry     beta= 0.70
     Davidson diagonalization with overlap
     ethr =  8.42E-05,  avg # of iterations = 10.2

     negative rho (up, down):  1.501E-02 0.000E+00

     total cpu time spent up to now is     3198.0 secs

     total energy              =  -27792.05871916 Ry
     estimated scf accuracy    <       0.08151248 Ry

     iteration #  5     ecut=    60.00 Ry     beta= 0.70
     Davidson diagonalization with overlap
     c_bands:  1 eigenvalues not converged
     ethr =  2.22E-05,  avg # of iterations =  7.8

     negative rho (up, down):  1.224E-02 0.000E+00

     total cpu time spent up to now is     3928.4 secs

     total energy              =  -27792.07681668 Ry
     estimated scf accuracy    <       0.06646014 Ry

     iteration #  6     ecut=    60.00 Ry     beta= 0.70
     Davidson diagonalization with overlap
     ethr =  1.81E-05,  avg # of iterations =  1.4

     negative rho (up, down):  1.039E-02 0.000E+00

     total cpu time spent up to now is     4411.1 secs

     total energy              =  -27792.07925022 Ry
     estimated scf accuracy    <       0.00488546 Ry

     iteration #  7     ecut=    60.00 Ry     beta= 0.70
     Davidson diagonalization with overlap
     c_bands:  2 eigenvalues not converged
     c_bands:  2 eigenvalues not converged
     c_bands:  1 eigenvalues not converged
     c_bands:  1 eigenvalues not converged
     ethr =  1.33E-06,  avg # of iterations = 15.7

     negative rho (up, down):  8.925E-03 0.000E+00

     total cpu time spent up to now is     5330.6 secs

     total energy              =  -27792.08101589 Ry
     estimated scf accuracy    <       0.00273072 Ry

     iteration #  8     ecut=    60.00 Ry     beta= 0.70
     Davidson diagonalization with overlap
     ethr =  7.42E-07,  avg # of iterations =  4.1

     negative rho (up, down):  8.592E-03 0.000E+00

     total cpu time spent up to now is     5869.2 secs

     total energy              =  -27792.08127680 Ry
     estimated scf accuracy    <       0.00043777 Ry

     iteration #  9     ecut=    60.00 Ry     beta= 0.70
     Davidson diagonalization with overlap
     ethr =  1.19E-07,  avg # of iterations =  4.0

     negative rho (up, down):  8.606E-03 0.000E+00

     total cpu time spent up to now is     6565.1 secs

     total energy              =  -27792.08139707 Ry
     estimated scf accuracy    <       0.00021624 Ry

     iteration # 10     ecut=    60.00 Ry     beta= 0.70
     Davidson diagonalization with overlap
     ethr =  5.88E-08,  avg # of iterations =  1.8

     negative rho (up, down):  8.726E-03 0.000E+00

     total cpu time spent up to now is     7078.7 secs

     total energy              =  -27792.08140940 Ry
     estimated scf accuracy    <       0.00012977 Ry

     iteration # 11     ecut=    60.00 Ry     beta= 0.70
     Davidson diagonalization with overlap
     ethr =  3.53E-08,  avg # of iterations =  1.7

     negative rho (up, down):  9.118E-03 0.000E+00

     total cpu time spent up to now is     7591.2 secs

     total energy              =  -27792.08141217 Ry
     estimated scf accuracy    <       0.00008201 Ry

     iteration # 12     ecut=    60.00 Ry     beta= 0.70
     Davidson diagonalization with overlap
     ethr =  2.23E-08,  avg # of iterations =  1.9

     negative rho (up, down):  9.399E-03 0.000E+00

     total cpu time spent up to now is     8104.4 secs

     total energy              =  -27792.08141204 Ry
     estimated scf accuracy    <       0.00005022 Ry

     iteration # 13     ecut=    60.00 Ry     beta= 0.70
     Davidson diagonalization with overlap
     ethr =  1.36E-08,  avg # of iterations =  1.5

     negative rho (up, down):  1.045E-02 0.000E+00

     total cpu time spent up to now is     8593.9 secs

     total energy              =  -27792.08140959 Ry
     estimated scf accuracy    <       0.00002011 Ry

     iteration # 14     ecut=    60.00 Ry     beta= 0.70
     Davidson diagonalization with overlap
     ethr =  5.46E-09,  avg # of iterations =  2.5

     negative rho (up, down):  1.063E-02 0.000E+00

     total cpu time spent up to now is     9165.9 secs

     total energy              =  -27792.08141174 Ry
     estimated scf accuracy    <       0.00000675 Ry

     iteration # 15     ecut=    60.00 Ry     beta= 0.70
     Davidson diagonalization with overlap
     ethr =  1.83E-09,  avg # of iterations =  3.9

     negative rho (up, down):  1.142E-02 0.000E+00

     total cpu time spent up to now is     9806.1 secs

     total energy              =  -27792.08141021 Ry
     estimated scf accuracy    <       0.00000517 Ry

     iteration # 16     ecut=    60.00 Ry     beta= 0.70
     Davidson diagonalization with overlap
     ethr =  1.40E-09,  avg # of iterations =  2.2

     negative rho (up, down):  1.189E-02 0.000E+00

     total cpu time spent up to now is    10323.9 secs

     total energy              =  -27792.08140961 Ry
     estimated scf accuracy    <       0.00000255 Ry

     iteration # 17     ecut=    60.00 Ry     beta= 0.70
     Davidson diagonalization with overlap
     ethr =  6.94E-10,  avg # of iterations =  1.9

     negative rho (up, down):  1.208E-02 0.000E+00

     total cpu time spent up to now is    10831.7 secs

     End of self-consistent calculation

          k = 0.0000 0.0000 0.0000 ( 83001 PWs)   bands (ev):

   -13.7249  -7.0011  -6.5262  -5.4131  -4.7814  -4.7287  -4.2357  -4.1391
    -4.1205  -4.0975  -4.0709  -4.0624  -3.9729  -3.8722  -3.6819  -3.6113
    -3.5586  -3.5287  -3.4662  -3.4435  -3.4133  -3.2832  -3.0845  -2.9968
    -2.9857  -2.9769  -2.9425  -2.9231  -2.8859  -2.8369  -2.8306  -2.8266
    -2.7506  -2.7459  -2.7018  -2.6943  -2.6356  -2.6262  -2.5937  -2.5723
    -2.5526  -2.4565  -2.4500  -2.3467  -2.2134  -2.1335  -2.1174  -2.0569
    -2.0271  -2.0058  -2.0048  -1.9629  -1.9558  -1.8775  -1.8563  -1.8032
    -1.7862  -1.7368  -1.6348  -1.6254  -1.3830  -1.3326  -1.3080  -1.2964
    -1.2795  -1.2298  -1.1791  -1.1319  -1.1222  -1.0835  -1.0761  -1.0361
    -1.0327  -1.0185  -1.0032  -0.9899  -0.9680  -0.9456  -0.9404  -0.9321
    -0.9107  -0.8917  -0.8677  -0.8613  -0.8375  -0.8110  -0.8006  -0.7314
    -0.7010  -0.6579  -0.6377  -0.5975  -0.5693  -0.5596  -0.5387  -0.5126
    -0.5120  -0.4656  -0.4530  -0.4429  -0.3969  -0.3819  -0.3518  -0.3440
    -0.3387  -0.2497  -0.2318  -0.1985  -0.1901  -0.1305  -0.1298  -0.1058
    -0.0509   0.0647   0.0885   0.2430   0.2882   0.2962   0.3378   0.3934
     0.4008   0.4249   0.4738   0.4867   0.5016   0.5125   0.5143   0.5275
     0.5291   0.5783   0.5969   0.6601   0.7787   0.7937   0.8082   0.8406
     0.8879   0.9629   0.9822   1.0044   1.0064   1.0225   1.0335   1.0745
     1.0790   1.1155   1.1339   1.2008   1.2239   1.2775   1.3025   1.3105
     1.3482   1.3642   1.4003   1.4528   1.4588   1.4629   1.4736   1.4905
     1.4949   1.5212   1.5357   1.5385   1.5532   1.5717   1.6110   1.6309
     1.6394   1.6733   1.6881   1.7081   1.7301   1.7323   1.7873   1.8136
     1.8270   1.8295   1.8467   1.8577   1.8599   1.8808   1.9389   1.9543
     1.9599   1.9604   2.0171   2.0282   2.0286   2.0921   2.1497   2.2066
     2.2336   2.2478   2.2875   2.2972   2.3339   2.3954   2.5308   2.5621
     2.9126   3.1588   3.1688   3.1764   3.4258   3.7002   3.7576   5.1353
     5.4120   5.4946   5.5372   5.6990   5.8542   6.5588   6.8306   6.9702
     7.1254   7.1373   7.2107   7.2214   7.3606

          k = 0.0000 0.2309 0.0000 ( 82930 PWs)   bands (ev):

   -13.7237  -7.0072  -6.3817  -5.2974  -4.8831  -4.6245  -4.4707  -4.2538
    -4.1523  -3.9989  -3.9625  -3.8983  -3.8490  -3.7688  -3.6900  -3.6026
    -3.5691  -3.4799  -3.4411  -3.3811  -3.3508  -3.2275  -3.1614  -3.0272
    -3.0076  -2.9777  -2.9409  -2.9119  -2.8912  -2.8626  -2.8477  -2.8314
    -2.7839  -2.7659  -2.7392  -2.6839  -2.6320  -2.5871  -2.5619  -2.4944
    -2.4514  -2.4295  -2.3828  -2.3003  -2.2701  -2.1941  -2.1591  -2.1307
    -2.1211  -2.0872  -2.0576  -2.0297  -1.9205  -1.8627  -1.8275  -1.7981
    -1.7506  -1.7051  -1.6655  -1.6097  -1.4833  -1.4409  -1.4124  -1.4003
    -1.3717  -1.3437  -1.3273  -1.2787  -1.2439  -1.2309  -1.1751  -1.1425
    -1.0934  -1.0890  -1.0729  -1.0453  -1.0131  -0.9520  -0.9406  -0.9161
    -0.8822  -0.8612  -0.8421  -0.8314  -0.7999  -0.7849  -0.7554  -0.7232
    -0.6986  -0.6711  -0.6556  -0.6296  -0.6119  -0.5818  -0.5511  -0.5187
    -0.4867  -0.4666  -0.4576  -0.4433  -0.4309  -0.4225  -0.3957  -0.3695
    -0.3261  -0.3052  -0.2747  -0.2267  -0.2055  -0.1669  -0.1529  -0.1115
    -0.1033  -0.1001  -0.0609   0.0070   0.0830   0.0990   0.1988   0.2635
     0.2885   0.3175   0.3452   0.3614   0.4240   0.4493   0.4975   0.5453
     0.5748   0.6130   0.6445   0.6706   0.7021   0.7125   0.7324   0.7431
     0.8263   0.8628   0.8980   0.9245   0.9483   0.9713   0.9971   1.0330
     1.0558   1.0934   1.1072   1.1319   1.1805   1.2232   1.2517   1.2646
     1.3010   1.3399   1.3580   1.4037   1.4399   1.4520   1.4842   1.4969
     1.5126   1.5427   1.5653   1.5989   1.6140   1.6885   1.7141   1.7585
     1.7773   1.8039   1.8159   1.8316   1.8547   1.8893   1.9188   1.9299
     1.9623   1.9804   2.0017   2.0154   2.0463   2.0684   2.1212   2.1407
     2.1808   2.2061   2.2249   2.2440   2.2583   2.2724   2.2966   2.3327
     2.3550   2.4296   2.4378   2.5067   2.5244   2.6084   2.6967   2.8794
     2.9363   3.0366   3.3257   3.7999   3.8564   3.9168   3.9931   4.8980
     5.1099   5.4155   5.8294   5.8849   6.0320   6.1154   6.2408   6.4837
     6.8978   7.0727   7.1055   7.2480   7.3213

          k = 0.0000 0.4619 0.0000 ( 82988 PWs)   bands (ev):

   -13.7219  -7.0158  -5.9737  -5.3775  -5.0069  -4.7337  -4.3721  -4.2683
    -4.1800  -3.9834  -3.8409  -3.7309  -3.7021  -3.6114  -3.5342  -3.5022
    -3.4544  -3.3862  -3.3228  -3.2935  -3.2476  -3.2308  -3.1717  -3.1311
    -3.1219  -3.0849  -3.0752  -3.0338  -2.9826  -2.9428  -2.9088  -2.8064
    -2.7468  -2.7038  -2.6764  -2.6455  -2.6195  -2.5694  -2.5281  -2.4559
    -2.4329  -2.4122  -2.3929  -2.2987  -2.2830  -2.2413  -2.1783  -2.1236
    -2.1081  -2.0700  -2.0130  -1.9976  -1.9786  -1.9410  -1.9225  -1.8461
    -1.8193  -1.7810  -1.7378  -1.7014  -1.6366  -1.6099  -1.5720  -1.5363
    -1.5210  -1.4838  -1.4148  -1.3851  -1.3573  -1.3025  -1.2477  -1.2361
    -1.2086  -1.1892  -1.1451  -1.1130  -1.0732  -1.0252  -1.0066  -0.9858
    -0.9454  -0.9330  -0.9061  -0.8690  -0.8448  -0.8243  -0.8161  -0.7994
    -0.7679  -0.7377  -0.7196  -0.7056  -0.6573  -0.6303  -0.6233  -0.5998
    -0.5744  -0.5142  -0.5044  -0.4559  -0.4383  -0.4180  -0.3987  -0.3537
    -0.3331  -0.3258  -0.2971  -0.2228  -0.1863  -0.1589  -0.1345  -0.1243
    -0.0770  -0.0324  -0.0113   0.0015   0.0840   0.1273   0.1545   0.1982
     0.2258   0.2448   0.2700   0.2785   0.3172   0.3311   0.3650   0.3959
     0.4151   0.4423   0.4722   0.5248   0.5561   0.5700   0.6000   0.6626
     0.7224   0.7837   0.8063   0.8589   0.8945   0.9186   0.9681   0.9967
     1.0570   1.0837   1.1060   1.1452   1.1730   1.1942   1.2214   1.2365
     1.2795   1.2989   1.3287   1.3503   1.3829   1.4154   1.4393   1.4776
     1.5443   1.5722   1.5979   1.6403   1.6913   1.7488   1.7827   1.8206
     1.8330   1.8496   1.8723   1.8939   1.9237   1.9614   1.9902   2.0333
     2.0749   2.1075   2.1300   2.1541   2.1666   2.2091   2.2285   2.2529
     2.2863   2.3486   2.3885   2.4333   2.4513   2.4720   2.5128   2.5406
     2.5808   2.6920   2.8985   3.0328   3.2382   3.4619   3.4998   3.5438
     3.7354   3.9170   4.0494   4.2587   4.4413   4.6586   4.7548   4.8436
     4.9150   4.9886   5.0938   5.2078   5.4271   5.5940   5.8908   6.0894
     6.3154   6.4675   6.8862   7.0273   7.2787

          k = 0.2000-0.1155 0.0000 ( 82930 PWs)   bands (ev):

   -13.7237  -7.0073  -6.3817  -5.2974  -4.8831  -4.6245  -4.4707  -4.2538
    -4.1522  -3.9989  -3.9624  -3.8983  -3.8490  -3.7688  -3.6901  -3.6026
    -3.5690  -3.4799  -3.4411  -3.3811  -3.3507  -3.2275  -3.1614  -3.0272
    -3.0076  -2.9777  -2.9409  -2.9119  -2.8911  -2.8626  -2.8478  -2.8314
    -2.7839  -2.7659  -2.7392  -2.6839  -2.6320  -2.5870  -2.5619  -2.4944
    -2.4514  -2.4295  -2.3829  -2.3002  -2.2701  -2.1941  -2.1590  -2.1307
    -2.1212  -2.0872  -2.0577  -2.0297  -1.9205  -1.8627  -1.8275  -1.7980
    -1.7506  -1.7049  -1.6655  -1.6098  -1.4833  -1.4409  -1.4124  -1.4003
    -1.3717  -1.3437  -1.3273  -1.2787  -1.2439  -1.2309  -1.1751  -1.1425
    -1.0934  -1.0890  -1.0729  -1.0453  -1.0130  -0.9519  -0.9405  -0.9161
    -0.8822  -0.8611  -0.8421  -0.8314  -0.7998  -0.7849  -0.7554  -0.7232
    -0.6986  -0.6711  -0.6556  -0.6296  -0.6119  -0.5818  -0.5511  -0.5187
    -0.4866  -0.4666  -0.4576  -0.4433  -0.4309  -0.4225  -0.3957  -0.3695
    -0.3261  -0.3052  -0.2747  -0.2266  -0.2055  -0.1669  -0.1529  -0.1115
    -0.1033  -0.1001  -0.0609   0.0071   0.0830   0.0989   0.1988   0.2635
     0.2885   0.3175   0.3452   0.3613   0.4240   0.4492   0.4975   0.5453
     0.5748   0.6130   0.6445   0.6706   0.7021   0.7125   0.7324   0.7432
     0.8263   0.8628   0.8980   0.9245   0.9483   0.9714   0.9971   1.0330
     1.0558   1.0934   1.1072   1.1319   1.1804   1.2232   1.2517   1.2646
     1.3010   1.3399   1.3579   1.4036   1.4400   1.4520   1.4841   1.4969
     1.5126   1.5427   1.5652   1.5990   1.6140   1.6886   1.7141   1.7585
     1.7773   1.8040   1.8159   1.8316   1.8547   1.8893   1.9188   1.9300
     1.9623   1.9804   2.0018   2.0154   2.0463   2.0684   2.1213   2.1407
     2.1807   2.2061   2.2248   2.2440   2.2583   2.2723   2.2965   2.3328
     2.3550   2.4296   2.4378   2.5067   2.5244   2.6084   2.6968   2.8794
     2.9363   3.0366   3.3258   3.7998   3.8565   3.9169   3.9931   4.8981
     5.1099   5.4155   5.8295   5.8849   6.0320   6.1154   6.2406   6.4841
     6.8973   7.0730   7.1052   7.2480   7.3212

          k = 0.2000 0.1155 0.0000 ( 82930 PWs)   bands (ev):

   -13.7243  -7.0153  -6.3697  -5.2584  -4.7635  -4.6632  -4.6187  -4.2201
    -4.1192  -4.0133  -3.9948  -3.8824  -3.8436  -3.8264  -3.6680  -3.6418
    -3.5282  -3.5068  -3.4621  -3.3751  -3.3463  -3.1868  -3.1651  -3.0716
    -3.0162  -3.0105  -2.9408  -2.8925  -2.8831  -2.8827  -2.8325  -2.8250
    -2.7826  -2.7347  -2.7187  -2.7186  -2.6099  -2.6006  -2.5497  -2.5422
    -2.5109  -2.4009  -2.3561  -2.2676  -2.1875  -2.1717  -2.1529  -2.1419
    -2.1003  -2.0836  -2.0452  -1.9831  -1.9743  -1.9115  -1.8207  -1.7791
    -1.7587  -1.7438  -1.6607  -1.6028  -1.4968  -1.4295  -1.4163  -1.3863
    -1.3653  -1.3266  -1.2931  -1.2757  -1.2473  -1.2233  -1.1993  -1.1422
    -1.1220  -1.0792  -1.0547  -1.0357  -1.0284  -0.9581  -0.9557  -0.9025
    -0.8765  -0.8712  -0.8334  -0.8285  -0.8017  -0.7978  -0.7659  -0.7240
    -0.7177  -0.6660  -0.6454  -0.6381  -0.6182  -0.5943  -0.5760  -0.5497
    -0.5122  -0.4910  -0.4511  -0.4477  -0.4233  -0.4183  -0.4045  -0.3585
    -0.3461  -0.2900  -0.2525  -0.2474  -0.1841  -0.1568  -0.1565  -0.1264
    -0.1210  -0.0950  -0.0936  -0.0066   0.0318   0.1375   0.1969   0.2562
     0.3068   0.3090   0.3345   0.3760   0.4565   0.4658   0.5334   0.5496
     0.6093   0.6207   0.6308   0.6448   0.7188   0.7298   0.7542   0.7883
     0.8109   0.8258   0.8780   0.9211   0.9304   0.9477   1.0522   1.0529
     1.0752   1.0926   1.1148   1.1314   1.1849   1.2008   1.2551   1.2658
     1.3015   1.3033   1.3806   1.3891   1.4174   1.4597   1.4756   1.5020
     1.5064   1.5365   1.5908   1.6334   1.6483   1.6770   1.7170   1.7673
     1.7804   1.8002   1.8059   1.8149   1.8536   1.8730   1.9181   1.9422
     1.9563   1.9945   2.0022   2.0221   2.0773   2.0876   2.1008   2.1506
     2.1805   2.1972   2.2250   2.2376   2.2554   2.2704   2.3094   2.3731
     2.3819   2.4186   2.4269   2.5301   2.5454   2.6306   2.6351   2.7174
     2.9568   3.0851   3.3743   3.6923   3.8865   3.9554   4.0343   4.8473
     5.1564   5.3676   5.8218   5.9111   5.9769   6.1958   6.2185   6.5176
     6.6915   7.0728   7.1931   7.2395   7.3345

          k = 0.2000 0.3464 0.0000 ( 82958 PWs)   bands (ev):

   -13.7229  -7.0220  -6.0862  -5.0453  -5.0249  -4.8413  -4.5289  -4.4699
    -4.0004  -3.8208  -3.7914  -3.7338  -3.7263  -3.6955  -3.6473  -3.6211
    -3.5768  -3.5090  -3.4068  -3.2674  -3.2082  -3.1859  -3.1578  -3.1393
    -3.0969  -3.0585  -2.9657  -2.9488  -2.8976  -2.8788  -2.8615  -2.8403
    -2.8068  -2.7525  -2.7357  -2.6893  -2.6635  -2.6200  -2.5865  -2.4965
    -2.4333  -2.3707  -2.3197  -2.2819  -2.2287  -2.1978  -2.1585  -2.1263
    -2.0967  -2.0498  -2.0159  -1.9955  -1.9691  -1.9176  -1.8833  -1.8297
    -1.7718  -1.7384  -1.7190  -1.6813  -1.6469  -1.5887  -1.5185  -1.4939
    -1.4670  -1.4448  -1.3999  -1.3788  -1.3507  -1.3103  -1.2659  -1.2473
    -1.1737  -1.1622  -1.1342  -1.1087  -1.0747  -1.0474  -1.0286  -0.9752
    -0.9352  -0.9077  -0.8955  -0.8757  -0.8205  -0.7993  -0.7854  -0.7680
    -0.7300  -0.7144  -0.6909  -0.6796  -0.6592  -0.6190  -0.5866  -0.5606
    -0.5497  -0.5065  -0.4887  -0.4674  -0.4516  -0.4226  -0.4034  -0.3656
    -0.3402  -0.3246  -0.3128  -0.3019  -0.2803  -0.2356  -0.1932  -0.1625
    -0.1273  -0.0741  -0.0333  -0.0065   0.0753   0.0894   0.1211   0.1743
     0.2379   0.2557   0.2924   0.3211   0.3546   0.3908   0.4069   0.4401
     0.4626   0.4827   0.5663   0.5760   0.6371   0.6532   0.6801   0.6990
     0.7584   0.7844   0.8202   0.8679   0.8799   0.9221   0.9434   0.9607
     1.0225   1.0755   1.0881   1.1193   1.1408   1.1856   1.2207   1.2240
     1.2628   1.2931   1.3126   1.3278   1.3530   1.3895   1.4356   1.4938
     1.5463   1.5656   1.6379   1.7079   1.7495   1.7952   1.8103   1.8328
     1.8585   1.9129   1.9337   1.9618   1.9774   2.0098   2.0281   2.0526
     2.0677   2.0876   2.1138   2.1278   2.1563   2.1853   2.2294   2.2436
     2.2612   2.3120   2.3361   2.4170   2.4313   2.4561   2.4966   2.5183
     2.6240   2.6389   2.7113   2.7320   2.9931   3.1595   3.2120   3.3914
     3.6393   3.7081   3.7976   4.0752   4.3160   4.5166   4.6040   4.7267
     4.7971   4.9413   5.3613   5.7043   5.9136   6.0299   6.1574   6.3611
     6.4238   6.5209   6.7644   6.7992   6.9241

          k = 0.2000-0.5774 0.0000 ( 82944 PWs)   bands (ev):

   -13.7215  -7.0192  -5.6454  -5.5434  -4.9957  -4.8129  -4.6955  -4.1764
    -4.0569  -3.8498  -3.7615  -3.6619  -3.6276  -3.5590  -3.5012  -3.4739
    -3.4075  -3.3956  -3.3144  -3.2856  -3.2710  -3.2562  -3.2080  -3.1967
    -3.1107  -3.0735  -3.0419  -3.0186  -3.0056  -2.9502  -2.9204  -2.8433
    -2.8001  -2.7675  -2.6819  -2.6574  -2.6341  -2.6069  -2.5425  -2.4958
    -2.4609  -2.4276  -2.3635  -2.3235  -2.2534  -2.2267  -2.1840  -2.1469
    -2.0768  -2.0628  -1.9772  -1.9394  -1.9183  -1.8624  -1.8173  -1.7847
    -1.7641  -1.7438  -1.7197  -1.6939  -1.6765  -1.6293  -1.6045  -1.5795
    -1.5648  -1.5255  -1.4922  -1.4375  -1.4249  -1.3896  -1.3436  -1.3076
    -1.2826  -1.2352  -1.2009  -1.1857  -1.1666  -1.1238  -1.0748  -1.0498
    -1.0195  -0.9843  -0.9448  -0.9206  -0.8992  -0.8386  -0.7906  -0.7823
    -0.7670  -0.7415  -0.7196  -0.6657  -0.6233  -0.6075  -0.5747  -0.5516
    -0.5226  -0.5029  -0.4714  -0.4609  -0.4497  -0.4227  -0.4051  -0.3669
    -0.3466  -0.3254  -0.3026  -0.2972  -0.2847  -0.2662  -0.2443  -0.2049
    -0.1047  -0.0801  -0.0029   0.0353   0.0737   0.1201   0.1530   0.1642
     0.1896   0.2151   0.2511   0.2789   0.3190   0.3367   0.3587   0.4044
     0.4178   0.4435   0.4894   0.5277   0.5529   0.5957   0.6201   0.6464
     0.6880   0.7635   0.8329   0.8703   0.8937   0.9139   0.9318   0.9611
     0.9789   1.0089   1.0488   1.0810   1.1131   1.1304   1.1433   1.1872
     1.2262   1.2383   1.2685   1.3145   1.4134   1.4356   1.4673   1.5670
     1.6013   1.6225   1.6684   1.7089   1.7301   1.7810   1.7989   1.8656
     1.8755   1.9272   1.9533   1.9640   1.9984   2.0259   2.0614   2.0954
     2.1221   2.1329   2.1658   2.1805   2.2280   2.2342   2.2624   2.3229
     2.3701   2.3931   2.4195   2.4510   2.4724   2.4946   2.5230   2.5363
     2.6773   2.7572   2.8838   3.4089   3.5908   3.6667   3.8233   3.8411
     3.9484   4.0173   4.1583   4.3917   4.5705   4.6800   4.7247   4.9543
     5.0823   5.1501   5.2917   5.3514   5.5173   5.6671   5.7320   5.9087
     5.9457   5.9946   6.6004   6.6382   6.7581

          k = 0.2000-0.3464 0.0000 ( 82958 PWs)   bands (ev):

   -13.7221  -7.0104  -6.1165  -5.1478  -5.0275  -4.8316  -4.5195  -4.4160
    -3.8759  -3.8307  -3.7984  -3.7538  -3.7309  -3.6906  -3.6324  -3.5943
    -3.5759  -3.5117  -3.3804  -3.2691  -3.2108  -3.1931  -3.1564  -3.1444
    -3.1039  -3.0826  -2.9621  -2.9110  -2.8975  -2.8865  -2.8634  -2.8352
    -2.7828  -2.7659  -2.7040  -2.6812  -2.6481  -2.6266  -2.5904  -2.4933
    -2.4699  -2.4078  -2.3877  -2.2538  -2.2411  -2.2198  -2.1774  -2.1544
    -2.1212  -2.0568  -2.0446  -2.0094  -1.9518  -1.9179  -1.8520  -1.8053
    -1.7428  -1.7314  -1.7229  -1.6994  -1.6326  -1.5756  -1.5378  -1.5116
    -1.4645  -1.4548  -1.4002  -1.3952  -1.3337  -1.3212  -1.3127  -1.2048
    -1.1810  -1.1604  -1.1332  -1.1231  -1.1149  -1.0422  -0.9824  -0.9576
    -0.9334  -0.9279  -0.8812  -0.8473  -0.8252  -0.7939  -0.7773  -0.7485
    -0.7455  -0.7200  -0.6841  -0.6730  -0.6566  -0.6047  -0.5801  -0.5609
    -0.5310  -0.5175  -0.4968  -0.4572  -0.4413  -0.4215  -0.3865  -0.3704
    -0.3412  -0.3323  -0.3183  -0.3097  -0.2391  -0.2134  -0.1629  -0.1382
    -0.1155  -0.0973  -0.0640  -0.0317   0.0438   0.1171   0.1529   0.1919
     0.2730   0.2762   0.3192   0.3215   0.3595   0.3811   0.4093   0.4323
     0.4669   0.4737   0.5093   0.5170   0.6374   0.6506   0.6823   0.7012
     0.7751   0.8015   0.8334   0.8600   0.8958   0.9279   0.9511   0.9574
     0.9995   1.0255   1.0589   1.1130   1.1366   1.1887   1.2389   1.2545
     1.2835   1.2869   1.3175   1.3237   1.3397   1.3864   1.3996   1.4759
     1.5409   1.5617   1.6382   1.7129   1.7540   1.7670   1.8083   1.8367
     1.8685   1.8923   1.9457   1.9561   1.9804   2.0175   2.0316   2.0480
     2.0638   2.0729   2.1025   2.1264   2.1439   2.1611   2.1888   2.2294
     2.2871   2.3020   2.3103   2.3930   2.4564   2.4794   2.5034   2.5367
     2.5690   2.6038   2.6709   2.7205   3.0114   3.2336   3.3024   3.3379
     3.6693   3.7591   3.7788   3.9618   4.3057   4.5589   4.6228   4.6547
     4.8039   4.9292   5.5757   5.8059   5.8914   5.9862   6.0255   6.4012
     6.4210   6.6432   6.7596   6.8556   6.9933

          k = 0.4000-0.2309 0.0000 ( 82988 PWs)   bands (ev):

   -13.7219  -7.0159  -5.9737  -5.3775  -5.0069  -4.7337  -4.3721  -4.2683
    -4.1799  -3.9834  -3.8409  -3.7309  -3.7020  -3.6114  -3.5342  -3.5022
    -3.4543  -3.3861  -3.3228  -3.2935  -3.2476  -3.2308  -3.1717  -3.1311
    -3.1218  -3.0849  -3.0751  -3.0338  -2.9826  -2.9428  -2.9087  -2.8064
    -2.7467  -2.7037  -2.6764  -2.6455  -2.6195  -2.5695  -2.5281  -2.4560
    -2.4329  -2.4123  -2.3931  -2.2987  -2.2830  -2.2412  -2.1783  -2.1235
    -2.1081  -2.0701  -2.0130  -1.9976  -1.9785  -1.9410  -1.9226  -1.8461
    -1.8193  -1.7811  -1.7379  -1.7013  -1.6366  -1.6099  -1.5721  -1.5363
    -1.5211  -1.4838  -1.4148  -1.3850  -1.3573  -1.3025  -1.2478  -1.2361
    -1.2086  -1.1893  -1.1452  -1.1129  -1.0732  -1.0252  -1.0066  -0.9858
    -0.9454  -0.9330  -0.9061  -0.8690  -0.8448  -0.8243  -0.8161  -0.7994
    -0.7679  -0.7376  -0.7196  -0.7056  -0.6573  -0.6303  -0.6233  -0.5998
    -0.5745  -0.5142  -0.5044  -0.4558  -0.4383  -0.4180  -0.3986  -0.3537
    -0.3331  -0.3258  -0.2971  -0.2227  -0.1863  -0.1588  -0.1346  -0.1243
    -0.0770  -0.0324  -0.0112   0.0015   0.0841   0.1273   0.1545   0.1982
     0.2258   0.2448   0.2700   0.2785   0.3171   0.3311   0.3650   0.3959
     0.4151   0.4423   0.4722   0.5248   0.5561   0.5700   0.6000   0.6626
     0.7225   0.7837   0.8064   0.8589   0.8946   0.9186   0.9680   0.9967
     1.0570   1.0837   1.1060   1.1452   1.1729   1.1941   1.2214   1.2365
     1.2795   1.2989   1.3286   1.3502   1.3829   1.4153   1.4394   1.4776
     1.5443   1.5722   1.5978   1.6403   1.6913   1.7488   1.7827   1.8206
     1.8330   1.8496   1.8723   1.8939   1.9237   1.9614   1.9902   2.0333
     2.0749   2.1075   2.1300   2.1541   2.1666   2.2091   2.2285   2.2528
     2.2863   2.3487   2.3885   2.4333   2.4513   2.4719   2.5128   2.5407
     2.5808   2.6920   2.8987   3.0327   3.2382   3.4620   3.4997   3.5438
     3.7355   3.9171   4.0493   4.2587   4.4413   4.6587   4.7547   4.8437
     4.9150   4.9886   5.0938   5.2078   5.4269   5.5941   5.8907   6.0895
     6.3158   6.4675   6.8866   7.0272   7.2775

          k = 0.4000-0.0000 0.0000 ( 82958 PWs)   bands (ev):

   -13.7229  -7.0220  -6.0862  -5.0453  -5.0249  -4.8413  -4.5289  -4.4699
    -4.0004  -3.8208  -3.7913  -3.7338  -3.7262  -3.6956  -3.6473  -3.6211
    -3.5768  -3.5090  -3.4067  -3.2673  -3.2082  -3.1859  -3.1578  -3.1393
    -3.0969  -3.0585  -2.9657  -2.9488  -2.8976  -2.8788  -2.8616  -2.8403
    -2.8068  -2.7525  -2.7357  -2.6894  -2.6634  -2.6199  -2.5865  -2.4965
    -2.4334  -2.3707  -2.3197  -2.2820  -2.2287  -2.1978  -2.1585  -2.1264
    -2.0967  -2.0498  -2.0159  -1.9956  -1.9691  -1.9176  -1.8833  -1.8298
    -1.7718  -1.7384  -1.7189  -1.6813  -1.6468  -1.5888  -1.5186  -1.4939
    -1.4670  -1.4449  -1.4000  -1.3788  -1.3507  -1.3103  -1.2660  -1.2473
    -1.1737  -1.1622  -1.1342  -1.1087  -1.0746  -1.0473  -1.0286  -0.9752
    -0.9352  -0.9076  -0.8955  -0.8756  -0.8205  -0.7993  -0.7854  -0.7680
    -0.7300  -0.7144  -0.6909  -0.6796  -0.6592  -0.6189  -0.5866  -0.5605
    -0.5497  -0.5064  -0.4887  -0.4674  -0.4516  -0.4226  -0.4034  -0.3656
    -0.3403  -0.3246  -0.3128  -0.3019  -0.2803  -0.2356  -0.1931  -0.1626
    -0.1273  -0.0741  -0.0332  -0.0065   0.0753   0.0894   0.1211   0.1744
     0.2379   0.2557   0.2925   0.3211   0.3545   0.3908   0.4069   0.4401
     0.4626   0.4827   0.5662   0.5761   0.6371   0.6531   0.6801   0.6990
     0.7584   0.7845   0.8202   0.8679   0.8799   0.9221   0.9434   0.9608
     1.0225   1.0755   1.0881   1.1193   1.1408   1.1856   1.2206   1.2240
     1.2628   1.2931   1.3125   1.3278   1.3530   1.3894   1.4356   1.4938
     1.5463   1.5657   1.6379   1.7079   1.7495   1.7953   1.8103   1.8328
     1.8585   1.9129   1.9336   1.9618   1.9774   2.0098   2.0281   2.0525
     2.0677   2.0876   2.1137   2.1278   2.1563   2.1853   2.2294   2.2436
     2.2612   2.3120   2.3361   2.4170   2.4312   2.4560   2.4965   2.5183
     2.6241   2.6390   2.7114   2.7320   2.9931   3.1594   3.2121   3.3914
     3.6393   3.7081   3.7976   4.0752   4.3161   4.5166   4.6040   4.7268
     4.7971   4.9413   5.3614   5.7042   5.9136   6.0299   6.1572   6.3614
     6.4237   6.5208   6.7643   6.7990   6.9240

          k = 0.4000 0.2309 0.0000 ( 82988 PWs)   bands (ev):

   -13.7232  -7.0287  -5.9417  -5.3120  -4.8848  -4.7335  -4.5165  -4.2732
    -4.1085  -4.0985  -3.8981  -3.8331  -3.6978  -3.6125  -3.5328  -3.5233
    -3.4374  -3.3378  -3.3210  -3.3064  -3.2414  -3.2060  -3.1679  -3.1629
    -3.1325  -3.0643  -3.0608  -3.0313  -3.0158  -2.9598  -2.9257  -2.8782
    -2.7237  -2.6818  -2.6474  -2.6237  -2.5860  -2.5356  -2.4884  -2.4671
    -2.4149  -2.4041  -2.3555  -2.3192  -2.2898  -2.2288  -2.1707  -2.1025
    -2.0982  -2.0387  -2.0043  -1.9893  -1.9681  -1.9679  -1.9235  -1.8971
    -1.8564  -1.7674  -1.7572  -1.6963  -1.6416  -1.6141  -1.5824  -1.5518
    -1.5465  -1.4978  -1.4057  -1.3931  -1.3752  -1.3154  -1.2795  -1.2220
    -1.2202  -1.1397  -1.0889  -1.0865  -1.0449  -1.0267  -1.0045  -0.9827
    -0.9622  -0.9189  -0.8838  -0.8770  -0.8543  -0.8357  -0.8348  -0.7968
    -0.7880  -0.7571  -0.7266  -0.6778  -0.6682  -0.6176  -0.6020  -0.5989
    -0.5803  -0.5547  -0.5418  -0.4786  -0.4579  -0.4071  -0.3726  -0.3333
    -0.3085  -0.2913  -0.2697  -0.2417  -0.2410  -0.1846  -0.1724  -0.1459
    -0.1010  -0.0940  -0.0196   0.0206   0.0599   0.1265   0.1610   0.2005
     0.2459   0.2536   0.3128   0.3184   0.3299   0.3504   0.3719   0.3944
     0.4100   0.4499   0.4790   0.5271   0.5863   0.6015   0.6373   0.6575
     0.6747   0.7507   0.8029   0.8679   0.8817   0.9618   1.0009   1.0180
     1.0525   1.0853   1.1186   1.1333   1.1501   1.1610   1.2039   1.2272
     1.2544   1.2764   1.3228   1.3290   1.3736   1.3873   1.4636   1.5223
     1.5416   1.5694   1.6307   1.6577   1.6785   1.7628   1.7989   1.8194
     1.8234   1.8522   1.8670   1.9052   1.9370   1.9521   2.0040   2.0558
     2.0795   2.0852   2.1205   2.1374   2.1608   2.1978   2.2007   2.2743
     2.3333   2.3666   2.4110   2.4221   2.4507   2.4520   2.5220   2.5534
     2.6471   2.6936   2.9360   3.0953   3.4211   3.4309   3.4943   3.5485
     3.7621   3.7845   3.9881   4.2706   4.5735   4.6353   4.6466   4.8251
     4.8696   4.9716   5.1558   5.1600   5.4069   5.4091   5.8702   6.1539
     6.3303   6.3408   6.8340   7.0309   7.2614

          k = 0.4000-0.6928 0.0000 ( 82944 PWs)   bands (ev):

   -13.7224  -7.0270  -5.5975  -5.5100  -5.0811  -4.7473  -4.5372  -4.2988
    -4.2229  -3.8462  -3.7824  -3.6490  -3.6297  -3.5529  -3.5099  -3.4509
    -3.4068  -3.3689  -3.3152  -3.2901  -3.2648  -3.2391  -3.2065  -3.1960
    -3.1482  -3.0855  -3.0620  -3.0347  -3.0040  -2.9508  -2.9275  -2.8446
    -2.8097  -2.7861  -2.6858  -2.6385  -2.6243  -2.5577  -2.5186  -2.4863
    -2.4569  -2.3811  -2.3740  -2.2865  -2.2605  -2.2222  -2.2159  -2.1222
    -2.1005  -2.0152  -1.9818  -1.9496  -1.9126  -1.8635  -1.8408  -1.7841
    -1.7703  -1.7459  -1.7400  -1.6958  -1.6491  -1.6275  -1.6164  -1.5914
    -1.5729  -1.5420  -1.5381  -1.4496  -1.4237  -1.4017  -1.3504  -1.3191
    -1.2416  -1.2290  -1.2020  -1.1757  -1.1552  -1.1095  -1.0753  -1.0402
    -1.0006  -0.9855  -0.9318  -0.9217  -0.8865  -0.8232  -0.8084  -0.7888
    -0.7639  -0.7493  -0.7078  -0.6579  -0.6451  -0.6031  -0.5772  -0.5592
    -0.5426  -0.5070  -0.4795  -0.4560  -0.4466  -0.4149  -0.3819  -0.3704
    -0.3630  -0.3216  -0.3148  -0.2958  -0.2829  -0.2675  -0.2486  -0.1806
    -0.1518  -0.0852  -0.0545   0.0497   0.0532   0.1187   0.1497   0.1647
     0.2004   0.2179   0.2483   0.2671   0.3109   0.3306   0.3684   0.4067
     0.4373   0.4568   0.4665   0.5384   0.5709   0.5966   0.6477   0.6878
     0.7296   0.7683   0.8148   0.8613   0.8986   0.9152   0.9373   0.9455
     1.0020   1.0129   1.0289   1.0805   1.1174   1.1178   1.1339   1.1689
     1.2015   1.2304   1.2664   1.3163   1.3623   1.4780   1.4964   1.5640
     1.5886   1.6132   1.6586   1.6757   1.7372   1.7529   1.8383   1.8648
     1.8747   1.9439   1.9678   1.9842   2.0280   2.0310   2.0556   2.0859
     2.1005   2.1369   2.1570   2.1871   2.2187   2.2406   2.2742   2.3135
     2.3333   2.4264   2.4374   2.4600   2.4650   2.5098   2.5183   2.5544
     2.7007   2.7679   3.0364   3.5169   3.5563   3.6528   3.7202   3.8442
     3.8883   3.9807   4.2063   4.4848   4.5487   4.6381   4.8697   4.9115
     5.0081   5.1171   5.1767   5.2793   5.5152   5.5761   5.8091   5.8262
     5.9403   6.0511   6.5864   6.6561   6.7116

          k = 0.4000-0.4619 0.0000 ( 82944 PWs)   bands (ev):

   -13.7215  -7.0193  -5.6453  -5.5434  -4.9958  -4.8129  -4.6954  -4.1765
    -4.0569  -3.8498  -3.7615  -3.6619  -3.6276  -3.5589  -3.5012  -3.4739
    -3.4075  -3.3955  -3.3144  -3.2856  -3.2710  -3.2562  -3.2080  -3.1967
    -3.1107  -3.0735  -3.0419  -3.0186  -3.0056  -2.9501  -2.9204  -2.8432
    -2.8001  -2.7675  -2.6818  -2.6574  -2.6343  -2.6069  -2.5425  -2.4958
    -2.4609  -2.4278  -2.3636  -2.3236  -2.2534  -2.2266  -2.1841  -2.1469
    -2.0768  -2.0629  -1.9772  -1.9394  -1.9183  -1.8624  -1.8174  -1.7847
    -1.7641  -1.7439  -1.7197  -1.6939  -1.6765  -1.6293  -1.6045  -1.5795
    -1.5648  -1.5256  -1.4922  -1.4375  -1.4249  -1.3896  -1.3436  -1.3077
    -1.2827  -1.2352  -1.2009  -1.1857  -1.1665  -1.1237  -1.0748  -1.0498
    -1.0195  -0.9843  -0.9448  -0.9206  -0.8993  -0.8386  -0.7907  -0.7823
    -0.7670  -0.7416  -0.7196  -0.6657  -0.6233  -0.6076  -0.5747  -0.5515
    -0.5226  -0.5030  -0.4714  -0.4609  -0.4497  -0.4227  -0.4051  -0.3668
    -0.3466  -0.3254  -0.3027  -0.2972  -0.2847  -0.2662  -0.2443  -0.2049
    -0.1046  -0.0800  -0.0029   0.0353   0.0737   0.1201   0.1529   0.1642
     0.1896   0.2151   0.2510   0.2790   0.3189   0.3367   0.3587   0.4043
     0.4178   0.4435   0.4893   0.5277   0.5529   0.5957   0.6201   0.6465
     0.6880   0.7634   0.8329   0.8703   0.8937   0.9138   0.9318   0.9611
     0.9789   1.0089   1.0488   1.0810   1.1131   1.1303   1.1433   1.1872
     1.2263   1.2383   1.2686   1.3145   1.4134   1.4357   1.4673   1.5669
     1.6013   1.6225   1.6684   1.7090   1.7301   1.7809   1.7989   1.8657
     1.8756   1.9272   1.9533   1.9640   1.9984   2.0260   2.0615   2.0954
     2.1221   2.1329   2.1658   2.1806   2.2280   2.2342   2.2624   2.3229
     2.3701   2.3932   2.4195   2.4510   2.4723   2.4946   2.5230   2.5362
     2.6773   2.7572   2.8838   3.4090   3.5908   3.6667   3.8232   3.8411
     3.9485   4.0173   4.1583   4.3917   4.5705   4.6799   4.7246   4.9545
     5.0823   5.1500   5.2915   5.3514   5.5173   5.6672   5.7320   5.9087
     5.9456   5.9946   6.6005   6.6383   6.7580

     the Fermi energy is     2.2490 ev

!    total energy              =  -27792.08140938 Ry

     total all-electron energy =  -1326794.375025 Ry
     estimated scf accuracy    <       0.00000020 Ry
     smearing contrib. (-TS)   =       0.00415157 Ry
     internal energy E=F+TS    =  -27792.08556095 Ry

     The total energy is F=E-TS. E is the sum of the following terms:
     one-electron contribution =  -23263.11821235 Ry
     hartree contribution      =   11937.32834164 Ry
     xc contribution           =    -899.53334243 Ry
     ewald contribution        =    9920.38168506 Ry
     one-center paw contrib.   =  -25487.14403287 Ry

     convergence has been achieved in  17 iterations

     negative rho (up, down):  1.208E-02 0.000E+00

     Forces acting on atoms (cartesian axes, Ry/au):

     atom    1 type  1   force =     0.00095776    0.00054601   -0.00492247
     atom    2 type  1   force =    -0.00010018    0.00012984   -0.00380479
     atom    3 type  1   force =    -0.00002287    0.00037270   -0.00403596
     atom    4 type  1   force =     0.00007083   -0.00013832   -0.00379814
     atom    5 type  1   force =     0.00067630    0.00040267   -0.00384153
     atom    6 type  1   force =    -0.00000765    0.00046952   -0.00406315
     atom    7 type  1   force =     0.00031477   -0.00021166   -0.00403216
     atom    8 type  1   force =     0.00039613   -0.00023543   -0.00405814
     atom    9 type  1   force =    -0.00136054   -0.00078679   -0.00540250
     atom   10 type  1   force =    -0.00198473   -0.00115099    0.00627005
     atom   11 type  1   force =     0.00104514    0.00111846    0.00634247
     atom   12 type  1   force =    -0.00092347   -0.00176329    0.00639714
     atom   13 type  1   force =     0.00149434    0.00035690    0.00632932
     atom   14 type  1   force =    -0.00314337   -0.00180546    0.00828178
     atom   15 type  1   force =     0.00010865   -0.00002789   -0.00012822
     atom   16 type  1   force =    -0.00198727    0.00006807    0.00639064
     atom   17 type  1   force =     0.00002026    0.00009266   -0.00012478
     atom   18 type  1   force =     0.00594522    0.00341486   -0.00241566
     atom   19 type  1   force =     0.00017071    0.00027737    0.00014332
     atom   20 type  1   force =    -0.00015022   -0.00009358    0.00051363
     atom   21 type  1   force =     0.00011973    0.00019397    0.00011401
     atom   22 type  1   force =     0.00018169   -0.00052274    0.00004396
     atom   23 type  1   force =     0.00022431    0.00000152    0.00011489
     atom   24 type  1   force =     0.00020801    0.00011654    0.00032563
     atom   25 type  1   force =     0.00010498    0.00006469    0.00099403
     atom   26 type  1   force =     0.00033339    0.00001378    0.00013426
     atom   27 type  1   force =    -0.00035959    0.00041921    0.00002485
     atom   28 type  1   force =     0.00061808    0.00035989   -0.00051050
     atom   29 type  1   force =    -0.00002306    0.00029027    0.00034290
     atom   30 type  1   force =    -0.00002642    0.00005364    0.00007230
     atom   31 type  1   force =     0.00022986   -0.00013505    0.00033019
     atom   32 type  1   force =    -0.00093703   -0.00054738    0.00088403
     atom   33 type  1   force =     0.00014909   -0.00009166    0.00009335
     atom   34 type  1   force =     0.00002811   -0.00005724    0.00006923
     atom   35 type  1   force =     0.00000396    0.00017173    0.00009981
     atom   36 type  1   force =     0.00004296    0.00000676   -0.00024102
     atom   37 type  2   force =     0.00051503    0.00029212    0.00237731
     atom   38 type  2   force =    -0.00293292   -0.00166569   -0.00531007

     Total force =     0.007163     Total SCF correction =     0.000678

     negative rho (up, down):  1.208E-02 0.000E+00

     negative rho (up, down):  1.208E-02 0.000E+00

     negative rho (up, down):  1.208E-02 0.000E+00

     negative rho (up, down):  1.208E-02 0.000E+00

     negative rho (up, down):  1.208E-02 0.000E+00

     negative rho (up, down):  1.208E-02 0.000E+00

     negative rho (up, down):  1.208E-02 0.000E+00

     negative rho (up, down):  1.208E-02 0.000E+00

     negative rho (up, down):  1.208E-02 0.000E+00

     negative rho (up, down):  1.208E-02 0.000E+00

     negative rho (up, down):  1.208E-02 0.000E+00

     negative rho (up, down):  1.208E-02 0.000E+00

     negative rho (up, down):  1.208E-02 0.000E+00

     negative rho (up, down):  1.208E-02 0.000E+00

     negative rho (up, down):  1.208E-02 0.000E+00

     negative rho (up, down):  1.208E-02 0.000E+00

     negative rho (up, down):  1.208E-02 0.000E+00

     negative rho (up, down):  1.208E-02 0.000E+00

     negative rho (up, down):  1.208E-02 0.000E+00

     negative rho (up, down):  1.208E-02 0.000E+00

     negative rho (up, down):  1.208E-02 0.000E+00

     negative rho (up, down):  1.208E-02 0.000E+00

     negative rho (up, down):  1.208E-02 0.000E+00

     negative rho (up, down):  1.208E-02 0.000E+00

     negative rho (up, down):  1.208E-02 0.000E+00

     negative rho (up, down):  1.208E-02 0.000E+00

     negative rho (up, down):  1.208E-02 0.000E+00

     negative rho (up, down):  1.208E-02 0.000E+00

     negative rho (up, down):  1.208E-02 0.000E+00

     negative rho (up, down):  1.208E-02 0.000E+00

     negative rho (up, down):  1.208E-02 0.000E+00

     negative rho (up, down):  1.208E-02 0.000E+00

     negative rho (up, down):  1.208E-02 0.000E+00

     negative rho (up, down):  1.208E-02 0.000E+00
 BEEFens 2000 ensemble energies
             -0.601280869374942E+02
             -0.359544729117312E+01
             -0.157325255843892E+02
              0.425735245781724E+02
             -0.219364177503977E+02
             -0.204070659006254E+02
             -0.348226925809363E+02
             -0.856916721795347E+02
             -0.462577178165146E+02
             -0.470160583984620E+02
             -0.366230921039507E+02
              0.219130697747589E+01
              0.403424133767268E+01
              0.767662433210148E+01
              0.262749121799442E+01
              0.471098876247618E+02
             -0.207413724278128E+02
             -0.229915701575988E+02
              0.191032179234948E+02
             -0.111473124272059E+03
              0.531677684384677E+02
             -0.288415865681901E+02
             -0.329976137351160E+01
             -0.113425427363281E+02
             -0.889179530644594E+01
             -0.464599068702083E+01
              0.875663500815015E+02
             -0.184713094936586E+02
             -0.895876635421519E+01
             -0.513812111614979E+02
              0.810568786329172E+02
             -0.187353658754077E+02
             -0.371767199279237E+02
              0.248048111300437E+02
             -0.281922320881461E+01
              0.161401416508585E+02
             -0.489045568452400E+01
              0.108276735381766E+02
              0.284640214418767E+02
             -0.102501107817870E+03
              0.553769643778956E+02
              0.141291647270012E+02
             -0.158586476387796E+01
             -0.359240593733084E+02
              0.122213496425707E+02
             -0.144866320690639E+02
              0.394287449237713E+02
              0.362099296547017E+02
             -0.306885365575438E+02
             -0.272616873648126E+02
             -0.325815800814363E+02
             -0.348920928432678E+02
              0.133936939325485E+02
             -0.486741059724949E+02
              0.114083076306964E+02
              0.617883218557454E+02
              0.628851637215604E+02
              0.353142922731137E+02
              0.152977737961391E+02
              0.267495716923567E+02
              0.883873748822859E+02
              0.211799343504268E+02
             -0.544144014731270E+02
             -0.156437309508016E+02
             -0.233397396194098E+02
              0.624890653318099E+02
             -0.767825878278805E+02
             -0.666808182189692E+02
             -0.256187818762496E+02
             -0.624077378695847E+01
             -0.468189498246662E+02
              0.268420865844748E+02
              0.790975161682820E+01
              0.855089512350878E+01
             -0.393852322548928E+02
             -0.343938606211701E+02
             -0.536914370292078E+02
              0.388197890843968E+02
             -0.293007761913665E+02
              0.262213696494804E+02
             -0.705788943621408E+01
             -0.315895699740370E+02
             -0.572588422870239E+02
             -0.175627050527800E+02
             -0.893016752588574E+01
             -0.123884235411591E+02
              0.408910337484758E+02
              0.675796286373197E+02
             -0.381752102446475E+02
             -0.788279283051093E+02
             -0.218097960014773E+02
              0.110638743900145E+03
             -0.587563797691267E+02
              0.353707858355747E+02
             -0.946981090574582E+01
             -0.658559152070756E+02
              0.252194854139386E+02
              0.395920922307146E+02
             -0.197469857651328E+02
              0.397958880419211E+02
             -0.294163809461061E+02
             -0.472721196924751E+02
              0.857402073758092E+02
              0.450460965331044E+02
              0.334887663710366E+02
              0.145468966927745E+02
              0.203468939021323E+02
              0.849871584029545E+02
             -0.254484341730530E+02
              0.784366126652300E+01
             -0.141291545198079E+03
              0.180034935535624E+02
             -0.710937786555199E+02
              0.149773788912913E+02
              0.202777105801061E+02
             -0.329608030688951E+02
             -0.553216330319888E+02
              0.654119349729888E+01
             -0.301481925514305E+02
              0.304308666743049E+02
             -0.526071447138471E+02
              0.178728258953095E+01
             -0.353840352100724E+02
             -0.420885384034818E+01
             -0.111563466435851E+01
              0.178724603182972E+02
              0.144139565536614E+01
             -0.647596633209332E+01
              0.584497996291118E+02
              0.900595473090269E+02
              0.480014509020477E+02
              0.825456589048106E+02
             -0.113986117082037E+02
              0.142633705668925E+02
              0.536848724815832E+02
             -0.111704415441013E+02
             -0.729290024456884E+02
             -0.380007925467304E+02
             -0.517576220122023E+02
             -0.274256570168967E+02
              0.324991981553601E+02
             -0.115785295757089E+03
             -0.186270759140670E+02
              0.410177436173518E+02
             -0.382966075670648E+02
             -0.363330538410155E+02
              0.538892323226214E+02
              0.396897866644001E+02
             -0.351592239452642E+02
              0.134501074107351E+02
             -0.270910199878719E+02
              0.340069268258666E+02
              0.441747897551306E+01
              0.210452748630373E+02
             -0.878055769667098E+02
             -0.476278439647111E+02
             -0.985696305497390E+01
              0.326864625730061E+01
             -0.363087885769788E+02
              0.105102867477226E+03
             -0.230096533724023E+02
             -0.396277887619671E+02
              0.385880111458389E+02
             -0.490779537572944E+02
             -0.359941828928629E+02
              0.321947954335508E+02
              0.123355854817368E+02
              0.163274131945685E+02
              0.114921151551981E+02
             -0.131952557259947E+02
              0.224495374639181E+02
              0.585509605702832E+02
             -0.309608639363174E+02
              0.160691947990255E+02
              0.927025628909765E+02
              0.338066446529565E+02
             -0.726429309396178E+01
             -0.186726080323523E+02
              0.152060148266028E+03
             -0.161899420684095E+02
              0.359805925192488E+02
              0.191741301750664E+02
              0.359725801854166E+02
              0.884603828965877E+02
              0.539226734974731E+02
             -0.236965832900736E+01
              0.225458615301618E+02
              0.480567237862286E+02
              0.360411467322203E+02
             -0.520384490583511E+02
              0.928148465425503E+02
             -0.818483300218037E+02
             -0.197511630172712E+02
              0.578352718845894E+02
              0.656455792633319E+01
              0.785830883978610E+01
              0.338898555501556E+02
              0.297872537189768E+02
              0.351031100994510E+02
             -0.632646165229361E+02
              0.286958914834315E+01
             -0.295627712151811E+02
             -0.868779305958898E+01
             -0.143037781925648E+01
             -0.710609999280729E+01
             -0.408960967593265E+01
              0.852350014264068E+02
             -0.100651798238830E+02
             -0.274048033156941E+02
             -0.495281438531014E+01
              0.138660163552099E+02
             -0.558759680335785E+02
             -0.402142759678956E+02
             -0.379298512043003E+02
             -0.625095927356917E+02
             -0.168173140487236E+02
             -0.444180246138386E+02
              0.162046414669419E+02
             -0.243539586015493E+01
             -0.103230026259686E+02
             -0.928281045432476E+01
              0.804127306695699E+01
             -0.242140565119950E+02
              0.683761063970604E+02
             -0.799698377050386E+02
             -0.139950572018812E+02
             -0.173032662953501E+02
              0.180640193355948E+02
              0.212191582995226E+02
             -0.459610976485499E+02
             -0.201280783581981E+02
              0.437054123580368E+02
             -0.274498054391467E+02
              0.185642219415905E+02
              0.380128387429376E+02
             -0.322505303774926E+01
              0.113212850079389E+03
             -0.229677906759678E+02
             -0.338392294236269E+02
              0.579229093551186E+01
             -0.225779917158663E+02
              0.523040488977672E+02
             -0.332951374398607E+02
              0.105288895631613E+02
              0.636877105644373E+02
             -0.125232741382791E+02
              0.119261915508586E+03
              0.124815325000422E+03
             -0.644054484387009E+02
              0.585810645090442E+02
              0.164333979607009E+02
             -0.513023269055574E+02
              0.214963224634175E+02
              0.350003399688375E+02
              0.358599203009682E+02
              0.132141411804699E+01
              0.157895846062490E+02
              0.689154224155346E+02
             -0.244997721939814E+02
              0.180397665312495E+02
              0.733649629501415E+02
             -0.369599933638435E+02
             -0.127267277202116E+02
              0.503465283573326E+02
              0.294714689328235E+02
              0.774344398947030E+02
              0.219635477794839E+02
              0.610931606489669E+01
              0.278384353939149E+02
              0.379622987246350E+02
             -0.466823978318860E+02
              0.322421811934436E+01
              0.127022120219720E+02
              0.112671208107542E+02
              0.218334980781112E+02
             -0.569504219915206E+02
              0.363664138180503E+02
             -0.440429527955469E+02
             -0.344696851214487E+02
              0.176067594151262E+02
             -0.180813950600039E+02
              0.549947747395881E+02
             -0.255559666414699E+02
              0.264381568303577E+02
              0.365909431866825E+02
              0.822910930782063E+02
              0.570301751183193E+02
              0.457316407778140E+02
             -0.106016302013817E+02
             -0.380834705948956E+01
             -0.329454496881299E+02
              0.743686759877858E+02
              0.790352309788352E+02
              0.358572851605658E+02
             -0.189501040299064E+02
              0.507890450682350E+02
             -0.163020434040077E+02
              0.213739348003931E+02
              0.608529939656696E+02
              0.216543983074760E+01
             -0.103395750605225E+02
             -0.281616374061766E+02
             -0.506062571187333E+02
              0.937450860273318E+02
              0.435015882286839E+02
             -0.553574039450366E+02
             -0.945333536293586E+01
              0.248007995487119E+02
             -0.989613723170277E+01
              0.586620136913801E+02
              0.151061576741858E+02
              0.792589797718798E+02
              0.276701807030208E+02
             -0.262558864363839E+02
              0.247907701380199E+02
             -0.496844221711575E+01
             -0.321882055071671E+02
              0.132106369406662E+02
              0.204787344311100E+02
              0.925055395920413E+02
              0.791086342938999E+02
              0.546043724670465E+02
              0.725564677102045E+02
              0.794033022829609E+01
             -0.271696567306362E+02
              0.162041107878848E+02
             -0.365349242046994E+02
             -0.471366483541231E+02
             -0.559112061112187E+02
             -0.263909790907927E+02
             -0.108807642852986E+03
             -0.288179934678195E+02
             -0.829912972237266E+02
              0.208201260753380E+02
             -0.473263439024558E+02
              0.392421861689622E+02
             -0.932822329579175E+02
             -0.327669949305863E+02
              0.545759344223072E+02
              0.206010989784044E+02
             -0.823035734277150E+02
              0.627019176580352E+02
             -0.254281916520010E+02
              0.507865921026238E+02
             -0.240735623468830E+02
             -0.744803637715372E+02
              0.110636465464146E+02
             -0.605832778675813E+02
             -0.168124909552228E+02
             -0.144397838014084E+01
              0.415038579065747E+02
              0.125963481503173E+03
             -0.458340192955299E+02
             -0.359703167899614E+02
             -0.919948378412187E+00
             -0.129669220208141E+02
             -0.816004432214704E+02
             -0.592155245663002E+02
              0.513332351904693E+02
             -0.287535803609912E+02
              0.167185411995961E+02
             -0.485378052644047E+02
             -0.130479037955698E+02
             -0.433905046920408E+02
              0.561559578203640E+02
              0.150463479854513E+02
             -0.229586592520143E+02
             -0.125114137066924E+02
              0.655821954673304E+01
             -0.613432864690691E+01
              0.438293513231819E+02
             -0.249923847445718E+02
              0.262737949287828E+01
              0.336323549386319E+02
              0.170549811410547E+02
             -0.157499772623282E+02
              0.155007976737846E+03
              0.532666901600135E+02
              0.108445821682086E+01
              0.161283641919889E+02
             -0.609582551753621E+02
              0.312312554794355E+02
             -0.715286732482405E+02
             -0.249310680866370E+02
             -0.517695166496063E+02
             -0.218444370686935E+02
              0.564237096886532E+02
             -0.532276781788720E+02
              0.158422938517289E+02
             -0.403433763959208E+01
              0.387702165217362E+01
             -0.431280068448205E+02
             -0.475049743080148E+02
             -0.391821805188204E+01
             -0.422737133641895E+02
             -0.215549716623073E+02
             -0.434926260094664E+02
             -0.118944622202528E+02
             -0.356289200192008E+02
             -0.512544364036660E+02
              0.211154180238505E+02
             -0.208447944818038E+02
              0.185832264571258E+02
              0.968951236368865E+01
             -0.731696877363595E+02
             -0.544155217920353E+02
             -0.393698168417956E+02
              0.351743932883464E+02
              0.276516546731736E+01
             -0.621757636382248E+02
              0.580858076171909E+02
             -0.397604981077804E+02
              0.539687145105305E+02
             -0.286831400580654E+02
             -0.442150508298726E+02
              0.296717399787627E+02
             -0.651766845439062E+02
             -0.377298637049403E+02
              0.668010147748757E+02
              0.202181857214971E+02
             -0.356103277686987E+02
              0.484695563903271E+02
             -0.172584374752018E+02
             -0.319644855639675E+02
             -0.299309548843270E+02
             -0.496330774635755E+02
              0.247114588298382E+02
             -0.925855380973579E+02
             -0.834051131322968E+02
             -0.727871008592751E+01
             -0.304546296703923E+02
             -0.570449229516703E+02
              0.715526982083300E+02
              0.130393765379963E+03
             -0.359341273629278E+02
             -0.251939655210390E+01
             -0.632147307522569E+02
              0.645265538944307E+02
              0.168827330347227E+02
             -0.179536961570997E+02
             -0.407133476460415E+02
              0.147564061815791E+02
             -0.581432692175237E+02
             -0.196721454701581E+02
             -0.897756016557693E+02
              0.334034431484602E+02
              0.168221875112029E+02
              0.189573782791467E+01
             -0.693589460611611E+01
             -0.325697056934200E+02
             -0.746463189477839E+01
              0.124365129265547E+03
             -0.197944888708868E+02
             -0.433134024866337E+02
             -0.678177959736771E+02
              0.108017766426722E+02
             -0.338776007826799E+02
              0.580822142016518E+01
              0.258698065636572E+02
              0.101609410487540E+02
              0.274790983918861E+02
              0.118192947115980E+02
              0.624791094858987E+02
              0.315080739243360E+02
             -0.323415402987431E+02
              0.350863113859440E+02
              0.376740027651615E+02
              0.119926320545476E+02
              0.483817007864059E+02
             -0.221889240615029E+02
              0.759819487152586E+02
              0.170087069200168E+02
             -0.269338092285924E+02
             -0.717396865901433E+01
             -0.184975079844723E+02
              0.260788913364858E+02
             -0.232851752781902E+02
             -0.267002250032533E-02
             -0.837581620407229E+01
              0.803307573489651E+02
              0.495276335041988E+02
             -0.682245115639077E+02
             -0.466879924513893E+01
             -0.551582033058972E+02
             -0.158759184922299E+02
             -0.266378678915588E+02
              0.365516066915154E+01
              0.594130663560923E+00
             -0.255012167457689E+02
              0.799492835316363E+01
             -0.595170913184545E+01
             -0.128067278331747E+02
              0.851937581110793E+02
              0.180750938994832E+02
             -0.799942600224144E+02
             -0.455311355516864E+02
              0.936776403791847E+02
              0.275742436316234E+02
             -0.106136226597642E+02
              0.103646698229574E+03
             -0.193845946550532E+02
             -0.122540679682180E+02
             -0.528064175431768E+01
              0.106058013183546E+02
              0.269427964312581E+02
              0.777759142684883E+01
              0.303016788362702E+02
             -0.187250371795101E+02
             -0.300063108602884E+02
             -0.414428832870813E+02
             -0.472863653032942E+02
              0.460729909054203E+02
              0.125743947942085E+02
              0.384372282859427E+02
              0.132107903684331E+02
              0.848204155563324E+02
              0.154736679822228E+02
             -0.839629694712689E+02
             -0.331777639246237E+02
              0.133660656582633E+02
             -0.300514500262991E+02
              0.621152382753173E+02
             -0.873138016075313E+01
              0.147530103866564E+02
              0.492579995517709E+02
             -0.700656538380731E+02
              0.148526979489149E+03
              0.207042119906372E+02
              0.269362749382320E+02
              0.344373699462781E+02
              0.103336844907986E+02
             -0.157558772679704E+01
              0.355938107516575E+02
             -0.353987292922401E+02
              0.765951246342557E+02
              0.678452717827626E+02
             -0.402663999162557E+02
              0.147999741286802E+02
              0.664218908734319E+02
             -0.222280330443273E+02
              0.152549799029406E+02
              0.432635261660094E+02
              0.419090325696922E+02
             -0.778563771293249E+02
             -0.152254318312705E+02
             -0.354137479751583E+02
             -0.142802315389071E+01
             -0.757893539457317E+01
             -0.553582438023921E+01
             -0.179965288254695E+02
             -0.290920136265490E+02
              0.617829450048873E+01
              0.111357175281909E+02
              0.531226098523167E+02
             -0.386309457868897E+02
              0.370213691167320E+02
              0.434251038071531E+02
             -0.186109875201818E+02
              0.866220862493609E+02
             -0.692324844788524E+02
             -0.102334636451379E+03
             -0.651405724008913E+01
             -0.263551689420899E+01
              0.387365514713701E+01
              0.782902348291558E+02
             -0.107060548789148E+02
              0.413125212007535E+02
              0.438435163428304E+02
              0.382269466809149E+02
             -0.988878618403146E+01
              0.623072508750921E+02
             -0.132432663323536E+02
             -0.304020179533497E+02
             -0.476663176225361E+02
              0.577796296754742E+01
              0.366980575583036E+02
             -0.601142441316546E+01
              0.390478235049108E+02
             -0.177219419025596E+01
              0.650891453898016E+02
              0.186355466385771E+02
              0.992401776665639E+01
             -0.121876154508984E+02
              0.329851281348657E+02
              0.359475273890075E+02
              0.231631431373161E+02
             -0.489673065359284E+00
             -0.545896994808892E+02
              0.258330340117220E+02
              0.173508137444916E+02
              0.399970282084681E+02
              0.269909973411131E+02
              0.369500254023956E+02
             -0.598369993530832E+01
              0.247922141154781E+02
             -0.296117887390581E+02
             -0.194383220107932E+01
             -0.564954309469393E+02
             -0.305319812065675E+02
              0.375217908107868E+02
             -0.928340964365119E+02
              0.292639447922898E+02
              0.182758785456602E+02
              0.832929752183789E+02
             -0.299877214977903E+02
              0.326493470961166E+02
             -0.136980982372546E+02
             -0.460036162003411E+02
             -0.756528285893720E+02
             -0.512085780145112E+01
             -0.852369599809892E+02
              0.199305603756470E+02
             -0.245608222231203E+02
              0.303070320970767E+02
              0.234708980171098E+02
             -0.238487771974139E+02
             -0.262509313955286E+02
              0.387601060005970E+02
             -0.583216454176570E+02
             -0.115371164259685E+02
             -0.194793981743526E+02
              0.210202147111246E+02
             -0.898715517181347E+01
              0.360962031775719E+01
             -0.199549702888166E+02
              0.554444863067405E+02
             -0.434265648553227E+02
              0.782204094869076E+01
              0.580145158017326E+02
             -0.320155031472652E+02
              0.355287125279085E+01
             -0.885327561842814E+01
             -0.664338394632228E+02
             -0.479842838799550E+02
             -0.861541661834326E+01
              0.238163292526252E+02
              0.299460281268812E+02
              0.853815976951915E+01
             -0.405887027258859E+01
              0.150788140818528E+02
             -0.436882238417475E+02
              0.339204854811760E+01
             -0.526625550470047E+02
             -0.322500879679044E+02
              0.470568510883946E+02
             -0.292647437075864E+02
              0.616499041606596E+02
             -0.212493815370784E+02
              0.351173609326507E+02
              0.239626804281515E+02
             -0.639137370957524E+02
             -0.278572297199628E+02
              0.924260555678262E+01
             -0.368159393685461E+02
             -0.336381274059306E+02
             -0.822803279796640E+02
             -0.534900646793256E+02
             -0.506460062023970E+02
             -0.411815065635986E+02
             -0.978848697806143E+00
              0.975700730312701E+01
              0.917216626403217E+00
              0.150891412866532E+02
             -0.544633367761317E+02
              0.140553135146623E+02
              0.253773306511820E+02
             -0.661171918330157E+02
             -0.697286839422958E+02
             -0.427947841765737E+02
             -0.169041363836868E+02
              0.177538148156604E+02
              0.458007767508388E+01
             -0.422773761231074E+02
              0.364176902709316E+02
             -0.214086370183038E+02
              0.513249830105551E+02
             -0.879974071490061E+02
              0.592249603185475E+02
             -0.201049631942129E+01
             -0.364688366003103E+02
             -0.214422324355239E+02
              0.471892024117903E+01
              0.370646258144019E+02
             -0.750498298539165E+02
             -0.119859440013685E+02
             -0.215218799834151E+02
              0.507777064197632E+02
              0.858080413043258E+02
             -0.956880990903373E+02
              0.936659787545150E+02
              0.464831000901266E+02
             -0.719318939065384E+02
             -0.364041497402113E+02
              0.745327532233852E+02
              0.627462910712492E+02
             -0.179082450754660E+02
             -0.457868746015055E+01
              0.715718503213584E+01
              0.642651982353848E+02
             -0.503454621586348E+02
              0.157471479931693E+02
             -0.466270540117264E+01
              0.345712659999522E+02
             -0.741169992693811E+02
             -0.646631997029468E+01
             -0.349034111976228E+02
              0.456644845710046E+02
              0.465647849726093E+02
             -0.854518788968230E+02
             -0.483248379380052E+02
             -0.254584320843179E+02
             -0.335634527014136E+02
             -0.108464918375265E+02
             -0.241538976794951E+02
              0.423640483276182E+02
              0.397734628412863E+02
             -0.565638059885600E+01
             -0.412591133440556E+02
             -0.843226196605241E+02
              0.438866540534494E+02
             -0.519657362877058E+02
             -0.309719739397301E+02
              0.541194610470068E+01
             -0.319388148805182E+02
             -0.394712044330053E+02
             -0.237477100171340E+02
             -0.380925151162059E+02
             -0.268994635832506E+02
             -0.478530739262910E+02
              0.559604903321795E+02
              0.633494871456050E+02
             -0.162259583979846E+01
             -0.259540277117840E+02
             -0.627748634903708E+01
              0.437550519386814E+02
             -0.861040452878671E+02
             -0.144436740601016E+02
              0.519894484138068E+02
              0.657438051641809E+02
             -0.243702699382430E+02
              0.906431577299520E+01
              0.518971426504693E+02
              0.196761565218199E+02
             -0.832946240273009E+01
             -0.449808670576679E+02
              0.279135289233908E+02
             -0.349896053401060E+02
             -0.164302663244417E+02
             -0.151276109567121E+02
             -0.199101412635756E+02
              0.192832697024793E+02
              0.793780274940995E+02
              0.192877326954510E+01
              0.534113456207751E+01
             -0.879858662836263E+02
             -0.174167273617805E+02
             -0.349932457436933E+02
              0.278655843409462E+01
             -0.405728488404455E+02
              0.723002487152203E+02
              0.777814659794722E+02
              0.122696498188147E+02
             -0.139341576620485E+02
              0.142416111803226E+02
              0.259008351139828E+02
             -0.478078535401650E+02
             -0.865199409181719E+01
              0.136025200751469E+02
              0.163715902569558E+02
              0.559215129007990E+02
              0.418736232127200E+02
             -0.196196804592850E+02
              0.329287734986860E+02
             -0.960145678068295E+02
             -0.553079866301189E+00
              0.840346901234399E+02
              0.900504919227416E+01
              0.143950117815018E+01
              0.332940142676713E+02
             -0.296247482999419E+02
              0.951729573466257E+02
             -0.118819601332999E+02
              0.863562764699273E+02
              0.377076480800606E+02
             -0.389003277160000E+02
              0.312132285565626E+02
             -0.331386470551483E+02
             -0.712624066684905E+02
             -0.648230478370596E+01
             -0.538083571738158E+02
             -0.543737926678094E+02
             -0.681001371147789E+01
              0.292029781443373E+02
             -0.494920927078371E+01
             -0.357506270729114E+02
              0.113785189043087E+02
             -0.732652004544701E+02
             -0.100693766417430E+02
             -0.822437211598397E+02
              0.484920931151695E+02
              0.208227181689375E+01
             -0.480328237628145E+02
             -0.229173783131974E+02
              0.210996161962471E+02
             -0.297915034324088E+02
             -0.452076858261822E+02
              0.900234332080500E+02
             -0.196363463705118E+02
             -0.467679804870670E+02
              0.247102696083266E+02
             -0.103399760178667E+02
              0.482011326933971E+02
             -0.315426325453495E+01
              0.123424034142929E+02
              0.100784148936146E+03
             -0.199645910930116E+02
             -0.335698459047564E+02
             -0.306611816304562E+02
[...]
              0.281626880981152E+02
              0.140710009824890E+03
              0.239564525123667E+02
              0.121096935794225E+02
             -0.460784948958170E+02
             -0.633225122707496E+02
             -0.187766465552614E+02
              0.326895308771456E+02
             -0.421852199510192E+01
              0.187503187092309E+02
              0.333266533560670E+02
             -0.581792036968722E+02
              0.220085097284460E+02
              0.579710734018715E+02
              0.548584143779614E+02
             -0.412887510795758E+01
             -0.142833995026422E+01
             -0.987860537799051E+01
             -0.478816723261945E+02
             -0.668942661950468E+02
              0.779480500973276E+02
             -0.514952574824892E+01
             -0.583510003855483E+02
              0.162978537431891E+01
             -0.202690094896700E+02
              0.931289922320336E+02
             -0.214594799208904E+02
             -0.350391742484574E+02
              0.331862172412355E+02
             -0.144247841529980E+02
              0.385742883480588E+02
             -0.243198044154053E+01
              0.100331390247856E+03
              0.485084198009261E+02
             -0.522820095268335E+01
             -0.318686382934859E+02
              0.229722017662766E+02
             -0.524042483727833E+02
             -0.127667703816116E+02
              0.580415689300613E+02
             -0.285503875493901E+02
             -0.434955562629557E+02
             -0.221286545476905E+02
              0.514581539475674E+02
              0.124034432888297E+02
             -0.842101971583761E+02
              0.300950183763806E+02
              0.151567857472560E+02
              0.565991620684332E+01
             -0.509446809050594E+02
             -0.385069420015009E+01
              0.320439002537428E+02
              0.509160540636958E+02
              0.626876413928405E+02
              0.225989839146618E+02
              0.725917243558825E+00
             -0.493219701132743E+02
             -0.506332533199458E+02
             -0.742776671419472E+02
             -0.600856923980700E+01
              0.306045565519901E+02
             -0.378292002275276E+01
              0.542653184620350E+02
             -0.315224300248819E+02
              0.165338328337826E+02
             -0.100462684913401E+02
             -0.287085964813756E+02
              0.580511966079097E+02
              0.788481296773347E+01
              0.598746809881849E+02
              0.501769432293861E+01
              0.263515635321488E+02
             -0.191364318089661E+02
              0.581204926301403E+02
             -0.109702705004135E+02
             -0.146288352068039E+00
             -0.783557301423255E+02
             -0.127814926909558E+02
              0.713329906229623E+02
              0.668004470967153E+02
              0.249569606477719E+02
             -0.129018743721328E+02
              0.337208216114132E+01
             -0.171374630759290E+02
             -0.186493689970987E+01
              0.899984750822575E+02
              0.117902525977820E+01
             -0.187895589913150E+02
             -0.109879771285094E+03
             -0.549420959846969E+02
             -0.371645668825920E+02
             -0.653582396192893E+02
             -0.550396413528276E+02
             -0.676781406466717E+02
             -0.443259660779069E+02
             -0.408725569522160E+02
             -0.447833400258132E+02
              0.479701305585953E+02
             -0.292969738071964E+02
             -0.988985886695732E+02
              0.415275017564316E+02
             -0.257131583657520E+02
             -0.784369384368224E+02
              0.935516286804565E+02
             -0.217575752995375E+02
              0.226945476545272E+02
              0.451982615794079E+02
             -0.149211436600774E+01
              0.252050751465705E+02
              0.467735897739098E+01
              0.408201257341002E+00
             -0.149292767644670E+02
             -0.709195014221721E+02
              0.132143085077337E+02
             -0.128405092914533E+03
              0.617744402781537E+02
             -0.437165151909601E+02
             -0.161242195078507E+02
             -0.156516420273419E+02
              0.693404489340145E+01
             -0.226442735776028E+02
              0.294892896795009E+02
             -0.515606258542594E+02
              0.364299443620010E+02
              0.366919296143264E+02
              0.168048647952978E+02
              0.995378467304334E+01
              0.195945116312549E+02
              0.611221924331807E+01
              0.308040465552593E+02
             -0.795264317326217E+01
             -0.585491495789879E+02
              0.749952986223747E+01
             -0.149797920510453E+02
             -0.189079820100318E+01
              0.501088051305088E+02
             -0.820160455271642E+02
             -0.153445965091112E+01
              0.534657116209189E+00
              0.986975222410740E+01
              0.316001433163465E+02
             -0.122654289223971E+02
              0.828905490254259E+02
              0.484945557618801E+02
             -0.182076413208970E+02
             -0.952469901515224E+01
              0.994277747796588E+00
              0.763159234269888E+02
             -0.582278224481863E+02
             -0.104916721914820E+03
              0.306640626737143E+02
             -0.162056433542649E+02
             -0.137877446474337E+02
              0.129066247085367E+02
              0.762234318656456E+02
              0.460630330526841E+02
             -0.152169217903461E+02
             -0.498379642548701E+02
             -0.537745157682851E+01
              0.304099975041112E+02
             -0.109931632805680E+02
             -0.749245693715186E+02
             -0.260793728687102E+01
             -0.881575426764900E+02
             -0.471177911872838E+02
              0.760919870814929E+02
             -0.479058366121234E+02
             -0.630283292613081E+02
             -0.509844775708032E+02
             -0.346270987593841E+02
              0.337726373099918E+02
              0.814205323793038E+02
             -0.345920640511008E+01
              0.274382782824209E+02
             -0.181781152402166E+02
             -0.688137220069206E+02
              0.460679575827863E+02
             -0.440717799379867E+02
              0.319808868681520E+02
              0.373886444781958E+02
             -0.639828802684315E+01
              0.387733134715196E+02
              0.435226500083645E+02
              0.996190697741144E+02
             -0.155432589308178E+02
             -0.450904542936470E+02
             -0.607310328523073E+02
             -0.122302737431631E+02
             -0.229016210296296E+02
              0.102246481950065E+03
             -0.445071136143282E+02
              0.104297732372297E+02
              0.971888110609876E+01
             -0.263083036286278E+02
             -0.791058830522652E+02
             -0.692854242060969E+01
              0.971206353431324E+02
              0.917534485232983E+01
              0.803109915785512E+01
             -0.521694846347522E+02
             -0.600858153290490E+02
             -0.547652956849988E+01
              0.496673791183817E+02
             -0.219538431118348E+02
              0.107127620625670E+03
             -0.431046816291300E+02
              0.144649389854217E+02
             -0.223351602285888E+02
             -0.713154426137361E+02
              0.162575916150706E+01
             -0.496900397461627E+02
             -0.754324695605353E+02
              0.603992805233418E+01
              0.236499616060513E+01
              0.509885073566218E+02
              0.184868156853659E+02
             -0.320548955226185E+02
              0.228212935275352E+02
             -0.802983116111787E+02
             -0.517987295806037E+02
              0.893885816709902E+02
              0.142258647289257E+02
             -0.187860451482443E+02
             -0.350267734711917E+02
             -0.268157092530475E+01
             -0.576457333933854E+01
              0.821772902133811E+02
              0.413982482575086E+02
             -0.165582471712386E+02
             -0.122168986488398E+02
             -0.424387116640017E+02
             -0.199698410498971E+02
             -0.664887942720986E+02
              0.455143379126522E+02
              0.540604233506423E+01
              0.144380029059472E+02
              0.154265028964931E+02
             -0.452306190289232E+00
             -0.166404076860268E+02
             -0.319796407137316E+01
             -0.994722165700626E+02
             -0.228858137802196E+02
             -0.754536906390297E+01
             -0.943296350442512E+01
              0.542708866713953E+02
              0.618114170128942E+02
              0.163307991538411E+02
             -0.962614705690025E+02
              0.642274216977877E+02
             -0.213028321412095E+02
             -0.373858816234443E+02
             -0.856706277759104E+02
             -0.384732471067656E+02
              0.558794544281119E+02
              0.241060817257310E+02
              0.498468319768625E+01
              0.289146246970444E+02
             -0.560195872536509E+02
             -0.417941685068075E+02
              0.509909621170135E+02
              0.383683840977714E+02
              0.515042338473797E+02
             -0.133637629295615E+01
              0.674299485195326E+01
              0.564955233818285E+02
              0.954261627998618E+02
             -0.298862977229042E+02
              0.319239687614947E+02
             -0.115463248689922E+02
             -0.408311482470509E+02
             -0.311191905010022E+02
             -0.297024544822740E+02
             -0.130191780999381E+02
             -0.519368889593761E+02
             -0.215826190860833E+02
             -0.140056133849188E+03
              0.366126737416562E+02
              0.204329472784267E+02
             -0.389863605281305E+01
             -0.376905826520434E+02
             -0.202730213927613E+02
             -0.521938258851360E+02
              0.150593415187556E+02
              0.813259473494781E+02
             -0.250546977349754E+02
             -0.161328334777311E+02
              0.236259489225614E+02
             -0.484811070328347E+02
              0.873184109459241E+02
              0.153174204992720E+02
              0.225897664371050E+02
              0.486048771750271E+02
              0.328401970543752E+01
              0.537225159631662E+02
              0.141265478682694E+02
             -0.106490532443966E+02
              0.721924728504629E+01
              0.913539221164967E+00
              0.721812904401589E+02
              0.100264298409354E+02
              0.118516133978212E+02
             -0.129053139340559E+02
              0.131274153945005E+02
             -0.903187896220257E+02
             -0.322902986369958E+02
             -0.453125257363415E+02
              0.481256575676716E+02
             -0.288082669880774E+02
             -0.653878401068146E+02
              0.533240052733123E+02
             -0.120920559801419E+02
              0.436613349122901E+02
             -0.891067868748446E+02
              0.230708705539626E+02
              0.855004348565933E+01
              0.576720128743750E+01
             -0.820787456414831E+01
             -0.896295420780473E+01
              0.475016599064984E+02
              0.196830322678676E+01
             -0.470306356616464E+02
             -0.174123319724256E+02
              0.275174363853716E+02
             -0.116932485650648E+03
             -0.922435758746498E+02
              0.396892277728085E+01
              0.116059414011752E+02
             -0.408598929400531E+02
             -0.389299811891675E+01
              0.111251730166564E+03
              0.304316463886889E+02
             -0.567021179978487E+02
              0.918685470361783E+01
             -0.954974111670661E+01
              0.104295332341115E+02
             -0.334338292252760E+02
              0.193198202334621E+02
              0.282583529897694E+02
             -0.294356471878297E+01
              0.107208854975729E+03
             -0.140008972476823E+02
             -0.313292315843887E+02
              0.140117310981936E+02
              0.462836760760042E+02
             -0.353154887963663E+02
             -0.317054089288666E+01
              0.956249179661225E+02
             -0.463970082515880E+01
              0.617016716999989E+02
              0.133953612304572E+02
             -0.899396120410576E+01
             -0.304058531435415E+02
              0.562689270197648E+02
             -0.509119729872113E+02
             -0.219499887213908E+01
             -0.168215246764826E+02
             -0.401822125936292E+02
              0.183701563063981E+02
              0.236825726282246E+02
              0.116187525157709E+02
              0.735241826148695E+00
             -0.380839679653634E+02
              0.214283142779978E+02
             -0.673013234852058E+01
             -0.244886044907175E+02
             -0.208953647614190E+02
              0.202234191525295E+02
             -0.595087576484673E+01
             -0.345860140064954E+02
             -0.105666143919861E+03
              0.102201873599754E+02
              0.247713606096906E+02
             -0.383038445214771E+02
             -0.208836720845505E+02
              0.799827303079023E+02
              0.637710169334619E+01
              0.306887486476435E+02
              0.380034013718773E+01
              0.318466045613095E+02
              0.643045185718552E+01
             -0.369667220231844E+02
             -0.218112572736189E+01
              0.872021756184796E+01
              0.270974033114748E+02
              0.775724679079742E+02
              0.503214178759656E+02
              0.138864083614351E+00
              0.167850037854502E+02
              0.607928590648870E+02
              0.233430990937839E+02
             -0.747126001630267E+02
             -0.271221458409346E+02
              0.150148129150552E+02
              0.554054028773317E+01
              0.252987886575835E+02
             -0.543448942998758E+02
              0.896763571309987E+01
              0.382072495564544E+02
              0.493865011690563E+02
             -0.431430466292537E+02
             -0.695826016182400E+01
             -0.205221419902597E+01
             -0.131973582065428E+02
             -0.363606104309378E+02
             -0.214310570499990E+02
             -0.187991451330483E+01
              0.781548344786938E+01
              0.417636274488333E+02
             -0.305520626650334E+02
              0.819149785539950E+02
              0.324638175297014E+02
              0.217312118011146E+02
              0.329605911696149E+02
              0.321240800495701E+02
              0.342763929891927E+02
              0.532505565791910E+02
             -0.429776747174483E+02
              0.614145382668859E+02
             -0.111257899004337E+03
              0.304810642652034E+02
             -0.105639322901987E+03
              0.847856469082258E+02
              0.683870487856684E+02
             -0.109235849590854E+02
             -0.489343639725669E+02
             -0.425742053911242E+02
             -0.618900403940713E+02
             -0.623022574833510E+02
              0.546890691801216E+02
              0.401994112122996E+02
              0.234800656367737E+02
              0.371846615985748E+02
              0.399070013924115E+02
             -0.378614373861320E+02
             -0.196721218856561E+02
              0.581892066357689E+02
             -0.114911598050687E+02
              0.547370004886775E+02
              0.692748424356757E+02
             -0.550090602893476E+01
             -0.699770309098936E+02
             -0.974867209651393E+00
             -0.246641709608926E+01
             -0.873799590181989E+01
             -0.181048347560028E+01
             -0.647620428810922E+02
             -0.210428091417684E+02
              0.525842064835020E+01
              0.883184929960944E+01
              0.464570285072342E+02
             -0.394131046375348E+02
              0.653360388603240E+02
             -0.422075764532255E+02
              0.207846159920141E+02
              0.346696974938102E+02
 
 BEEF-vdW xc energy contributions
           1 :   -777.042742881584     
           2 :    714.542949005545     
           3 :   -605.978966430515     
           4 :    477.679944664386     
           5 :   -356.770168786001     
           6 :    263.026483760072     
           7 :   -204.243391364770     
           8 :    176.104450346367     
           9 :   -166.129181763310     
          10 :    159.785952875453     
          11 :   -146.257599642210     
          12 :    121.688744078025     
          13 :   -89.0721325774612     
          14 :    55.3794318377904     
          15 :   -27.5939233914308     
          16 :    9.45462605761804     
          17 :  -0.181870531411846     
          18 :   -4.57001980285349     
          19 :    10.2447402777578     
          20 :   -20.7014793183524     
          21 :    36.5481049572634     
          22 :   -55.1495646948496     
          23 :    72.1382122037500     
          24 :   -83.5968454395811     
          25 :    87.8424390354644     
          26 :   -86.0298200513932     
          27 :    81.3916844198299     
          28 :   -77.5731464397353     
          29 :    76.8974719697468     
          30 :   -79.3871691442741     
          31 :   -85.0657816866772     
          32 :   -65.3443118828096     

     Writing output data file ./pwscf.save/
 
     init_run     :    295.95s CPU    300.04s WALL (       1 calls)
     electrons    :  10431.04s CPU  10531.45s WALL (       1 calls)
     forces       :     90.80s CPU     91.86s WALL (       1 calls)

     Called by init_run:
     wfcinit      :    248.89s CPU    252.07s WALL (       1 calls)
     potinit      :     44.48s CPU     44.77s WALL (       1 calls)
     hinit0       :      0.92s CPU      0.97s WALL (       1 calls)

     Called by electrons:
     c_bands      :   8702.35s CPU   8781.08s WALL (      18 calls)
     sum_band     :   1182.79s CPU   1192.51s WALL (      18 calls)
     v_of_rho     :    106.24s CPU    109.38s WALL (      18 calls)
     newd         :     24.10s CPU     33.08s WALL (      18 calls)
     PAW_pot      :    119.14s CPU    119.15s WALL (      18 calls)
     mix_rho      :    341.70s CPU    342.28s WALL (      18 calls)
     vdW_kernel   :     33.53s CPU     33.53s WALL (       1 calls)

     Called by c_bands:
     init_us_2    :     62.35s CPU     62.54s WALL (     494 calls)
     cegterg      :   8041.80s CPU   8120.34s WALL (     234 calls)

     Called by *egterg:
     cdiaghg      :     85.90s CPU     85.93s WALL (    1127 calls)
     h_psi        :   5069.82s CPU   5097.55s WALL (    1153 calls)
     s_psi        :    878.64s CPU    878.67s WALL (    1153 calls)
     g_psi        :     14.14s CPU     14.15s WALL (     906 calls)

     Called by h_psi:
     h_psi:calbec :    825.05s CPU    825.17s WALL (    1153 calls)
     vloc_psi     :   3344.38s CPU   3345.65s WALL (    1153 calls)
     add_vuspsi   :    878.13s CPU    878.18s WALL (    1153 calls)

     General routines
     calbec       :   1216.07s CPU   1216.23s WALL (    1439 calls)
     fft          :     41.61s CPU     41.62s WALL (    3098 calls)
     ffts         :    102.05s CPU    102.06s WALL (    8388 calls)
     fftw         :   3361.18s CPU   3362.03s WALL (  303142 calls)
 
     Parallel routines
 
     PWSCF        :      3h 2m CPU      3h 4m WALL

 
   This run was terminated on:  18:47:33  20Dec2022            

=------------------------------------------------------------------------------=
   JOB DONE.
=------------------------------------------------------------------------------=
