
     Program PWSCF v.6.7MaX starts on 20May2022 at 16:35:32 

     This program is part of the open-source Quantum ESPRESSO suite
     for quantum simulation of materials; please cite
         "P. Giannozzi et al., J. Phys.:Condens. Matter 21 395502 (2009);
         "P. Giannozzi et al., J. Phys.:Condens. Matter 29 465901 (2017);
          URL http://www.quantum-espresso.org", 
     in publications or presentations arising from this work. More details at
     http://www.quantum-espresso.org/quote

     Parallel version (MPI), running on     1 processors

     MPI processes distributed on     1 nodes
     Reading input from ccch2-mono-ensemble.in
Warning: card &CELL ignored
Warning: card / ignored

     Current dimensions of program PWSCF are:
     Max number of different atomic species (ntypx) = 10
     Max number of k-points (npk) =  40000
     Max angular momentum in pseudopotentials (lmaxx) =  3
     file Pt.pbe-n-kjpaw_psl.1.0.0.UPF: wavefunction(s)  6S 5D renormalized
     file C.pbe-n-kjpaw_psl.1.0.0.UPF: wavefunction(s)  2S 2P renormalized
     file H.pbe-kjpaw_psl.1.0.0.UPF: wavefunction(s)  1S renormalized

     **************************************************************************
     Initializing libbeef V0.1.2 with the BEEF-vdW functional.
     Citation: Wellendorff et al., PRB 85, 235149 (2012).
     **************************************************************************


     IMPORTANT: XC functional enforced from input :
     Exchange-correlation= BEEF-VDW
                           (   1   4  43  14   2   0   0)
     Any further DFT definition will be discarded
     Please, verify this is what you really want


     Subspace diagonalization in iterative solution of the eigenvalue problem:
     a serial algorithm will be used

 
     G-vector sticks info
     --------------------
     sticks:   dense  smooth     PW     G-vecs:    dense   smooth      PW
     Sum        4267    4267   1159               749191   749191  105599
 


     bravais-lattice index     =            0
     lattice parameter (alat)  =      16.0349  a.u.
     unit-cell volume          =   11926.7389 (a.u.)^3
     number of atoms/cell      =           41
     number of atomic types    =            3
     number of electrons       =       374.00
     number of Kohn-Sham states=          224
     kinetic-energy cutoff     =      60.0000  Ry
     charge density cutoff     =     240.0000  Ry
     scf convergence threshold =      1.0E-06
     mixing beta               =       0.7000
     number of iterations used =            8  local-TF  mixing
     Exchange-correlation= BEEF-VDW
                           (   1   4  43  14   2   0   0)

     celldm(1)=  16.034858  celldm(2)=   0.000000  celldm(3)=   0.000000
     celldm(4)=   0.000000  celldm(5)=   0.000000  celldm(6)=   0.000000

     crystal axes: (cart. coord. in units of alat)
               a(1) = (   1.000000   0.000000   0.000000 )  
               a(2) = (   0.500000   0.866025   0.000000 )  
               a(3) = (   0.000000   0.000000   3.340379 )  

     reciprocal axes: (cart. coord. in units 2 pi/alat)
               b(1) = (  1.000000 -0.577350  0.000000 )  
               b(2) = (  0.000000  1.154701  0.000000 )  
               b(3) = (  0.000000  0.000000  0.299367 )  


     PseudoPot. # 1 for Pt read from file:
     /users/bkreitz1/quantum-espresso/potentials/Pt.pbe-n-kjpaw_psl.1.0.0.UPF
     MD5 check sum: 04dc8a03c51ece93fc7b5889c2958091
     Pseudo is Projector augmented-wave + core cor, Zval = 10.0
     Generated using 'atomic' code by A. Dal Corso  v.6.7MaX
     Shape of augmentation charge: PSQ
     Using radial grid of 1277 points,  6 beta functions with: 
                l(1) =   0
                l(2) =   0
                l(3) =   1
                l(4) =   1
                l(5) =   2
                l(6) =   2
     Q(r) pseudized with 0 coefficients 


     PseudoPot. # 2 for C  read from file:
     /users/bkreitz1/quantum-espresso/potentials/C.pbe-n-kjpaw_psl.1.0.0.UPF
     MD5 check sum: a169b0ebad56f5ec0d79c4633f80bf22
     Pseudo is Projector augmented-wave + core cor, Zval =  4.0
     Generated using 'atomic' code by A. Dal Corso  v.6.7MaX
     Shape of augmentation charge: PSQ
     Using radial grid of 1073 points,  4 beta functions with: 
                l(1) =   0
                l(2) =   0
                l(3) =   1
                l(4) =   1
     Q(r) pseudized with 0 coefficients 


     PseudoPot. # 3 for H  read from file:
     /users/bkreitz1/quantum-espresso/potentials/H.pbe-kjpaw_psl.1.0.0.UPF
     MD5 check sum: ae98473e6dc62675f0d0baffdab24f65
     Pseudo is Projector augmented-wave, Zval =  1.0
     Generated using 'atomic' code by A. Dal Corso  v.6.7MaX
     Shape of augmentation charge: PSQ
     Using radial grid of  929 points,  2 beta functions with: 
                l(1) =   0
                l(2) =   0
     Q(r) pseudized with 0 coefficients 


     atomic species   valence    mass     pseudopotential
        Pt            10.00   195.08400     Pt( 1.00)
        C              4.00    12.01100     C ( 1.00)
        H              1.00     1.00800     H ( 1.00)

     No symmetry found



   Cartesian axes

     site n.     atom                  positions (alat units)
         1           Pt  tau(   1) = (   0.0000000   0.0000000   1.0017346  )
         2           Pt  tau(   2) = (   0.3333333   0.0000000   1.0017346  )
         3           Pt  tau(   3) = (   0.6666667   0.0000000   1.0017346  )
         4           Pt  tau(   4) = (   0.1666667   0.2886751   1.0017346  )
         5           Pt  tau(   5) = (   0.5000000   0.2886751   1.0017346  )
         6           Pt  tau(   6) = (   0.8333333   0.2886751   1.0017346  )
         7           Pt  tau(   7) = (   0.3333333   0.5773503   1.0017346  )
         8           Pt  tau(   8) = (   0.6666667   0.5773503   1.0017346  )
         9           Pt  tau(   9) = (   1.0000000   0.5773503   1.0017346  )
        10           Pt  tau(  10) = (   0.1666667   0.0962250   1.2739001  )
        11           Pt  tau(  11) = (   0.5000000   0.0962250   1.2739001  )
        12           Pt  tau(  12) = (   0.8333333   0.0962250   1.2739001  )
        13           Pt  tau(  13) = (   0.3333333   0.3849002   1.2739001  )
        14           Pt  tau(  14) = (   0.6666667   0.3849002   1.2739001  )
        15           Pt  tau(  15) = (   1.0000000   0.3849002   1.2739001  )
        16           Pt  tau(  16) = (   0.5000000   0.6735753   1.2739001  )
        17           Pt  tau(  17) = (   0.8333333   0.6735753   1.2739001  )
        18           Pt  tau(  18) = (   1.1666667   0.6735753   1.2739001  )
        19           Pt  tau(  19) = (  -0.0020268   0.1937932   1.5457072  )
        20           Pt  tau(  20) = (   0.3353699   0.1938011   1.5456908  )
        21           Pt  tau(  21) = (   0.6666598   0.1937633   1.5458911  )
        22           Pt  tau(  22) = (   0.1666687   0.4811432   1.5420943  )
        23           Pt  tau(  23) = (   0.5002781   0.4814075   1.5444294  )
        24           Pt  tau(  24) = (   0.8330425   0.4814061   1.5444489  )
        25           Pt  tau(  25) = (   0.3336151   0.7703824   1.5422690  )
        26           Pt  tau(  26) = (   0.6666673   0.7693201   1.5447029  )
        27           Pt  tau(  27) = (   0.9997086   0.7703886   1.5422692  )
        28           Pt  tau(  28) = (   0.0001172   0.0001075   1.8184037  )
        29           Pt  tau(  29) = (   0.3332174   0.0001203   1.8183797  )
        30           Pt  tau(  30) = (   0.6666619  -0.0026395   1.8169167  )
        31           Pt  tau(  31) = (   0.1666777   0.2890582   1.8183084  )
        32           Pt  tau(  32) = (   0.4931039   0.2846401   1.8280859  )
        33           Pt  tau(  33) = (   0.8402303   0.2846356   1.8281046  )
        34           Pt  tau(  34) = (   0.3302738   0.5794986   1.8161543  )
        35           Pt  tau(  35) = (   0.6666623   0.5858088   1.8242487  )
        36           Pt  tau(  36) = (   1.0030687   0.5795114   1.8161649  )
        37           C   tau(  37) = (   0.6666631   0.3923464   1.9642169  )
        38           C   tau(  38) = (   0.6666655   0.3894876   2.1194461  )
        39           C   tau(  39) = (   0.6666669   0.3900943   2.2740188  )
        40           H   tau(  40) = (   0.5573292   0.3904509   2.3406565  )
        41           H   tau(  41) = (   0.7760054   0.3904524   2.3418337  )

     number of k points=    13  Marzari-Vanderbilt smearing, width (Ry)=  0.0200
                       cart. coord. in units 2pi/alat
        k(    1) = (   0.0000000   0.0000000   0.0000000), wk =   0.0800000
        k(    2) = (   0.0000000   0.2309401   0.0000000), wk =   0.1600000
        k(    3) = (   0.0000000   0.4618802   0.0000000), wk =   0.1600000
        k(    4) = (   0.2000000  -0.1154701   0.0000000), wk =   0.1600000
        k(    5) = (   0.2000000   0.1154701   0.0000000), wk =   0.1600000
        k(    6) = (   0.2000000   0.3464102   0.0000000), wk =   0.1600000
        k(    7) = (   0.2000000  -0.5773503   0.0000000), wk =   0.1600000
        k(    8) = (   0.2000000  -0.3464102   0.0000000), wk =   0.1600000
        k(    9) = (   0.4000000  -0.2309401   0.0000000), wk =   0.1600000
        k(   10) = (   0.4000000  -0.0000000   0.0000000), wk =   0.1600000
        k(   11) = (   0.4000000   0.2309401   0.0000000), wk =   0.1600000
        k(   12) = (   0.4000000  -0.6928203   0.0000000), wk =   0.1600000
        k(   13) = (   0.4000000  -0.4618802   0.0000000), wk =   0.1600000

     Dense  grid:   749191 G-vectors     FFT dimensions: (  80,  80, 270)

     Estimated max dynamical RAM per process >       9.05 GB

     Check: negative core charge=   -0.000002

     Initial potential from superposition of free atoms

     starting charge  373.99375, renormalised to  374.00000

     negative rho (up, down):  1.128E-02 0.000E+00


     %%%%%%%%%%%%%%%%%%%%%%%%%%%%%%%%%%%%%%%%%%%%%%%%%%%%%%%%%%%%%%%%%%%%%%%%
     %                                                                      %
     % You are using vdW-DF, which was implemented by the Thonhauser group. %
     % Please cite the following two papers that made this development      %
     % possible and the two reviews that describe the various versions:     %
     %                                                                      %
     %   T. Thonhauser et al., PRL 115, 136402 (2015).                      %
     %   T. Thonhauser et al., PRB 76, 125112 (2007).                       %
     %   K. Berland et al., Rep. Prog. Phys. 78, 066501 (2015).             %
     %   D.C. Langreth et al., J. Phys.: Condens. Matter 21, 084203 (2009). %
     %                                                                      %
     %                                                                      %
     % If you are calculating the stress with vdW-DF, please also cite:     %
     %                                                                      %
     %   R. Sabatini et al., J. Phys.: Condens. Matter 24, 424209 (2012).   %
     %                                                                      %
     %%%%%%%%%%%%%%%%%%%%%%%%%%%%%%%%%%%%%%%%%%%%%%%%%%%%%%%%%%%%%%%%%%%%%%%%


     Starting wfcs are  338 randomized atomic wfcs
     Checking if some PAW data can be deallocated... 

     total cpu time spent up to now is      358.9 secs

     Self-consistent Calculation

     iteration #  1     ecut=    60.00 Ry     beta= 0.70
     Davidson diagonalization with overlap
     ethr =  1.00E-02,  avg # of iterations =  2.0

     negative rho (up, down):  1.310E-02 0.000E+00

     total cpu time spent up to now is     1009.2 secs

     total energy              =  -27812.78450089 Ry
     estimated scf accuracy    <       4.86969134 Ry

     iteration #  2     ecut=    60.00 Ry     beta= 0.70
     Davidson diagonalization with overlap
     ethr =  1.30E-03,  avg # of iterations =  2.0

     negative rho (up, down):  1.084E-02 0.000E+00

     total cpu time spent up to now is     1668.7 secs

     total energy              =  -27813.34497217 Ry
     estimated scf accuracy    <       0.89300788 Ry

     iteration #  3     ecut=    60.00 Ry     beta= 0.70
     Davidson diagonalization with overlap
     ethr =  2.39E-04,  avg # of iterations = 12.7

     negative rho (up, down):  8.247E-03 0.000E+00

     total cpu time spent up to now is     2590.6 secs

     total energy              =  -27813.51868376 Ry
     estimated scf accuracy    <       0.41885675 Ry

     iteration #  4     ecut=    60.00 Ry     beta= 0.70
     Davidson diagonalization with overlap
     ethr =  1.12E-04,  avg # of iterations =  2.8

     negative rho (up, down):  5.299E-03 0.000E+00

     total cpu time spent up to now is     3268.7 secs

     total energy              =  -27813.56565554 Ry
     estimated scf accuracy    <       0.11432753 Ry

     iteration #  5     ecut=    60.00 Ry     beta= 0.70
     Davidson diagonalization with overlap
     ethr =  3.06E-05,  avg # of iterations =  9.1

     negative rho (up, down):  3.593E-03 0.000E+00

     total cpu time spent up to now is     4169.1 secs

     total energy              =  -27813.58621487 Ry
     estimated scf accuracy    <       0.11788844 Ry

     iteration #  6     ecut=    60.00 Ry     beta= 0.70
     Davidson diagonalization with overlap
     ethr =  3.06E-05,  avg # of iterations =  1.8

     negative rho (up, down):  3.160E-03 0.000E+00

     total cpu time spent up to now is     4783.0 secs

     total energy              =  -27813.59043186 Ry
     estimated scf accuracy    <       0.01117206 Ry

     iteration #  7     ecut=    60.00 Ry     beta= 0.70
     Davidson diagonalization with overlap
     c_bands:  1 eigenvalues not converged
     c_bands:  1 eigenvalues not converged
     c_bands:  1 eigenvalues not converged
     c_bands:  1 eigenvalues not converged
     c_bands:  1 eigenvalues not converged
     c_bands:  1 eigenvalues not converged
     c_bands:  1 eigenvalues not converged
     c_bands:  1 eigenvalues not converged
     ethr =  2.99E-06,  avg # of iterations = 18.5

     negative rho (up, down):  2.996E-03 0.000E+00

     total cpu time spent up to now is     5880.6 secs

     total energy              =  -27813.59409353 Ry
     estimated scf accuracy    <       0.00829464 Ry

     iteration #  8     ecut=    60.00 Ry     beta= 0.70
     Davidson diagonalization with overlap
     c_bands:  1 eigenvalues not converged
     c_bands:  1 eigenvalues not converged
     ethr =  2.22E-06,  avg # of iterations =  6.8

     negative rho (up, down):  3.086E-03 0.000E+00

     total cpu time spent up to now is     6527.2 secs

     total energy              =  -27813.59421813 Ry
     estimated scf accuracy    <       0.00423401 Ry

     iteration #  9     ecut=    60.00 Ry     beta= 0.70
     Davidson diagonalization with overlap
     ethr =  1.13E-06,  avg # of iterations =  6.6

     negative rho (up, down):  3.564E-03 0.000E+00

     total cpu time spent up to now is     7193.5 secs

     total energy              =  -27813.59424413 Ry
     estimated scf accuracy    <       0.00271835 Ry

     iteration # 10     ecut=    60.00 Ry     beta= 0.70
     Davidson diagonalization with overlap
     ethr =  7.27E-07,  avg # of iterations =  6.5

     negative rho (up, down):  5.292E-03 0.000E+00

     total cpu time spent up to now is     7882.2 secs

     total energy              =  -27813.59424064 Ry
     estimated scf accuracy    <       0.00113277 Ry

     iteration # 11     ecut=    60.00 Ry     beta= 0.70
     Davidson diagonalization with overlap
     ethr =  3.03E-07,  avg # of iterations =  4.6

     negative rho (up, down):  7.019E-03 0.000E+00

     total cpu time spent up to now is     8542.5 secs

     total energy              =  -27813.59426676 Ry
     estimated scf accuracy    <       0.00059771 Ry

     iteration # 12     ecut=    60.00 Ry     beta= 0.70
     Davidson diagonalization with overlap
     ethr =  1.60E-07,  avg # of iterations =  2.0

     negative rho (up, down):  8.744E-03 0.000E+00

     total cpu time spent up to now is     9169.2 secs

     total energy              =  -27813.59432884 Ry
     estimated scf accuracy    <       0.00043125 Ry

     iteration # 13     ecut=    60.00 Ry     beta= 0.70
     Davidson diagonalization with overlap
     ethr =  1.15E-07,  avg # of iterations =  2.0

     negative rho (up, down):  9.829E-03 0.000E+00

     total cpu time spent up to now is     9790.1 secs

     total energy              =  -27813.59438372 Ry
     estimated scf accuracy    <       0.00031127 Ry

     iteration # 14     ecut=    60.00 Ry     beta= 0.70
     Davidson diagonalization with overlap
     ethr =  8.32E-08,  avg # of iterations =  1.9

     negative rho (up, down):  1.064E-02 0.000E+00

     total cpu time spent up to now is    10410.8 secs

     total energy              =  -27813.59441500 Ry
     estimated scf accuracy    <       0.00012017 Ry

     iteration # 15     ecut=    60.00 Ry     beta= 0.70
     Davidson diagonalization with overlap
     ethr =  3.21E-08,  avg # of iterations =  2.7

     negative rho (up, down):  1.160E-02 0.000E+00

     total cpu time spent up to now is    11060.5 secs

     total energy              =  -27813.59442110 Ry
     estimated scf accuracy    <       0.00004994 Ry

     iteration # 16     ecut=    60.00 Ry     beta= 0.70
     Davidson diagonalization with overlap
     ethr =  1.34E-08,  avg # of iterations =  4.0

     negative rho (up, down):  1.254E-02 0.000E+00

     total cpu time spent up to now is    11758.9 secs

     total energy              =  -27813.59442220 Ry
     estimated scf accuracy    <       0.00002420 Ry

     iteration # 17     ecut=    60.00 Ry     beta= 0.70
     Davidson diagonalization with overlap
     ethr =  6.47E-09,  avg # of iterations =  2.3

     negative rho (up, down):  1.289E-02 0.000E+00

     total cpu time spent up to now is    12429.9 secs

     total energy              =  -27813.59442352 Ry
     estimated scf accuracy    <       0.00000944 Ry

     iteration # 18     ecut=    60.00 Ry     beta= 0.70
     Davidson diagonalization with overlap
     ethr =  2.52E-09,  avg # of iterations =  4.3

     negative rho (up, down):  1.305E-02 0.000E+00

     total cpu time spent up to now is    13188.6 secs

     total energy              =  -27813.59442492 Ry
     estimated scf accuracy    <       0.00000455 Ry

     iteration # 19     ecut=    60.00 Ry     beta= 0.70
     Davidson diagonalization with overlap
     ethr =  1.22E-09,  avg # of iterations =  3.4

     negative rho (up, down):  1.324E-02 0.000E+00

     total cpu time spent up to now is    13896.1 secs

     total energy              =  -27813.59442529 Ry
     estimated scf accuracy    <       0.00000309 Ry

     iteration # 20     ecut=    60.00 Ry     beta= 0.70
     Davidson diagonalization with overlap
     ethr =  8.27E-10,  avg # of iterations =  1.9

     negative rho (up, down):  1.301E-02 0.000E+00

     total cpu time spent up to now is    14497.1 secs

     End of self-consistent calculation

          k = 0.0000 0.0000 0.0000 ( 93601 PWs)   bands (ev):

   -13.9499 -11.6474  -7.3196  -6.9310  -5.8553  -5.5021  -5.1384  -4.7592
    -4.6907  -4.6821  -4.6575  -4.6431  -4.6405  -4.6180  -4.4629  -4.3663
    -4.2589  -4.1038  -4.1022  -4.1000  -4.0307  -3.9588  -3.9216  -3.6586
    -3.6527  -3.6319  -3.5366  -3.4903  -3.4753  -3.4321  -3.4318  -3.4190
    -3.3217  -3.3150  -3.2980  -3.2256  -3.2225  -3.1884  -3.1780  -3.1570
    -3.1560  -3.1413  -3.1222  -3.1208  -2.9255  -2.8316  -2.6935  -2.5915
    -2.5788  -2.5633  -2.5403  -2.5329  -2.5237  -2.4941  -2.4840  -2.4794
    -2.3311  -2.3268  -2.3245  -2.2208  -2.2095  -1.8263  -1.8247  -1.7920
    -1.7667  -1.7649  -1.7080  -1.6930  -1.6282  -1.6091  -1.5778  -1.5725
    -1.5686  -1.5568  -1.5434  -1.5203  -1.5190  -1.5170  -1.4901  -1.4717
    -1.4676  -1.4560  -1.4535  -1.3952  -1.3700  -1.3694  -1.3589  -1.3550
    -1.3359  -1.1798  -1.1686  -1.1498  -1.1346  -1.1166  -1.1153  -1.1048
    -1.0941  -1.0384  -1.0315  -1.0228  -1.0084  -0.9231  -0.9161  -0.8836
    -0.8754  -0.8650  -0.8050  -0.7587  -0.7492  -0.7445  -0.7382  -0.7135
    -0.7025  -0.5676  -0.4215  -0.2704  -0.2693  -0.2647  -0.2355  -0.2161
    -0.2083  -0.2054  -0.2045  -0.1572  -0.0759  -0.0686  -0.0526  -0.0109
     0.0075   0.0263   0.0300   0.0835   0.0861   0.1661   0.2304   0.2425
     0.2673   0.2752   0.2963   0.3329   0.4713   0.5199   0.5260   0.5279
     0.5547   0.5786   0.5816   0.6384   0.6872   0.7002   0.7395   0.7512
     0.7710   0.7782   0.7899   0.8744   0.8913   0.8971   0.9579   0.9628
     0.9724   0.9734   0.9741   0.9847   0.9951   1.0005   1.0027   1.0864
     1.0904   1.0980   1.0991   1.1054   1.1798   1.1812   1.1816   1.1983
     1.1996   1.2326   1.2440   1.2753   1.3281   1.3310   1.3320   1.3504
     1.3528   1.3682   1.3738   1.4174   1.4285   1.4300   1.4478   1.4712
     1.4861   1.4989   1.6208   1.6663   1.7349   1.7422   1.7681   1.7796
     1.7869   1.7914   2.2109   2.3394   2.5767   2.6456   2.6489   2.6706
     2.7889   3.3133   4.6175   4.7067   4.9553   4.9707   4.9715   5.1730
     5.5434   5.6674   6.2800   6.2959   6.4817   6.5839   6.5948   6.5999

          k = 0.0000 0.2309 0.0000 ( 93572 PWs)   bands (ev):

   -13.9498 -11.6469  -7.2618  -6.8276  -5.7829  -5.4388  -5.1747  -5.1363
    -4.7810  -4.7781  -4.5519  -4.5267  -4.4467  -4.4350  -4.4012  -4.2954
    -4.1939  -4.1937  -4.0570  -4.0348  -4.0100  -3.9210  -3.8350  -3.7123
    -3.6136  -3.5814  -3.5805  -3.4998  -3.4996  -3.4661  -3.4221  -3.4130
    -3.3602  -3.3387  -3.3233  -3.2797  -3.2733  -3.2087  -3.2052  -3.0941
    -3.0801  -3.0258  -2.9867  -2.9635  -2.9154  -2.8076  -2.7349  -2.6879
    -2.6794  -2.6456  -2.6249  -2.5794  -2.5291  -2.5218  -2.4251  -2.3820
    -2.3272  -2.3059  -2.2831  -2.2239  -2.1997  -2.0320  -1.9449  -1.9290
    -1.9005  -1.8763  -1.8499  -1.8000  -1.7895  -1.7659  -1.7438  -1.7199
    -1.6692  -1.6394  -1.6127  -1.5790  -1.5602  -1.5385  -1.4800  -1.4683
    -1.4571  -1.3818  -1.3817  -1.3715  -1.3473  -1.2981  -1.2941  -1.2922
    -1.2588  -1.2421  -1.1920  -1.1722  -1.1501  -1.1481  -1.1123  -1.1054
    -1.0705  -1.0364  -1.0256  -0.9901  -0.9892  -0.9525  -0.9494  -0.9219
    -0.9149  -0.8692  -0.8555  -0.8282  -0.8127  -0.7514  -0.7382  -0.7153
    -0.6962  -0.6684  -0.6482  -0.6265  -0.6260  -0.5380  -0.4299  -0.3411
    -0.3066  -0.2629  -0.2240  -0.2189  -0.1962  -0.1850  -0.1552  -0.1167
    -0.0112   0.0578   0.0646   0.1072   0.1384   0.1540   0.1740   0.1818
     0.1945   0.2211   0.2676   0.2754   0.3611   0.3921   0.4045   0.4083
     0.4370   0.5351   0.5588   0.5895   0.6063   0.6113   0.6388   0.6998
     0.7111   0.7730   0.7809   0.8008   0.8018   0.8598   0.8605   0.9070
     0.9345   0.9833   0.9884   0.9983   1.0218   1.0651   1.1175   1.1462
     1.1605   1.2100   1.2181   1.2667   1.2847   1.3028   1.3168   1.3433
     1.3493   1.4025   1.4149   1.4219   1.4461   1.4509   1.4701   1.4993
     1.5135   1.5994   1.6410   1.6542   1.6842   1.6977   1.7105   1.7382
     1.7628   1.7633   1.8017   1.8254   1.8937   1.9209   1.9395   2.0098
     2.0704   2.0820   2.0999   2.4498   2.6033   2.6034   3.2387   3.2530
     3.2969   3.4384   4.3205   4.5967   4.6107   5.2097   5.2393   5.4380
     5.4812   5.6626   5.7660   5.8571   6.1525   6.4139   6.4336   6.5034

          k = 0.0000 0.4619 0.0000 ( 93622 PWs)   bands (ev):

   -13.9497 -11.6459  -7.1838  -6.4700  -5.8759  -5.6563  -5.1783  -5.1328
    -4.8269  -4.8131  -4.6817  -4.4363  -4.3214  -4.2210  -4.1476  -4.1460
    -4.0718  -4.0325  -3.9785  -3.8745  -3.8672  -3.8367  -3.7764  -3.7185
    -3.7154  -3.6811  -3.6552  -3.6264  -3.5845  -3.5519  -3.5379  -3.4882
    -3.4633  -3.2652  -3.2503  -3.2346  -3.2178  -3.1706  -3.1026  -3.0993
    -3.0096  -2.9903  -2.9838  -2.9436  -2.8493  -2.8257  -2.7518  -2.6850
    -2.6682  -2.6112  -2.5964  -2.5591  -2.5486  -2.5040  -2.4850  -2.4719
    -2.4499  -2.3384  -2.3004  -2.2966  -2.2401  -2.1994  -2.1311  -2.1034
    -2.0849  -2.0629  -2.0557  -1.9167  -1.8830  -1.8689  -1.8394  -1.8276
    -1.7417  -1.7370  -1.7222  -1.6515  -1.6034  -1.5958  -1.5564  -1.5101
    -1.5024  -1.4674  -1.4435  -1.4321  -1.3920  -1.3655  -1.3631  -1.3556
    -1.3414  -1.3309  -1.3038  -1.3032  -1.2242  -1.1994  -1.1750  -1.1608
    -1.1526  -1.1362  -1.0908  -1.0393  -1.0221  -0.9994  -0.9683  -0.9472
    -0.9050  -0.8965  -0.8887  -0.8539  -0.8097  -0.7511  -0.7040  -0.6957
    -0.6799  -0.6409  -0.5960  -0.5246  -0.5240  -0.4374  -0.4074  -0.3786
    -0.3725  -0.3198  -0.2909  -0.2817  -0.2632  -0.2299  -0.1988  -0.1789
    -0.1595  -0.1543  -0.1382  -0.1212  -0.0862  -0.0564   0.0179   0.0290
     0.0680   0.1015   0.1485   0.1561   0.2556   0.2856   0.3289   0.3534
     0.4188   0.4371   0.5139   0.5330   0.5788   0.6112   0.6281   0.6473
     0.6711   0.6923   0.7335   0.7584   0.7867   0.8294   0.8540   0.8858
     0.9184   0.9299   0.9556   0.9622   1.0550   1.1103   1.1755   1.1843
     1.2109   1.2378   1.2872   1.3274   1.3288   1.3534   1.3803   1.3959
     1.4740   1.4803   1.4854   1.5211   1.5644   1.6308   1.6546   1.6690
     1.6737   1.6864   1.7111   1.7339   1.7394   1.8942   1.8966   1.9223
     1.9302   1.9611   2.0517   2.1607   2.2197   2.4249   2.6110   2.6138
     2.9349   2.9783   2.9877   3.2109   3.3322   3.5828   3.7015   3.9313
     4.1875   4.2280   4.3207   4.3655   4.3773   4.5392   4.6073   4.7720
     4.8704   5.3795   5.4918   5.5875   5.7887   6.0219   6.1152   6.3271

          k = 0.2000-0.1155 0.0000 ( 93572 PWs)   bands (ev):

   -13.9498 -11.6469  -7.2632  -6.8272  -5.7842  -5.4411  -5.1933  -5.0995
    -4.8154  -4.7605  -4.5417  -4.5120  -4.4605  -4.4323  -4.3940  -4.2887
    -4.2444  -4.1931  -4.0467  -4.0339  -4.0076  -3.8948  -3.8568  -3.7119
    -3.6087  -3.5841  -3.5799  -3.5046  -3.4984  -3.4622  -3.4216  -3.4126
    -3.3547  -3.3507  -3.3136  -3.2854  -3.2704  -3.2096  -3.2069  -3.1074
    -3.0718  -3.0081  -2.9867  -2.9594  -2.8824  -2.8188  -2.7530  -2.6940
    -2.6772  -2.6420  -2.6326  -2.5731  -2.5358  -2.5088  -2.4352  -2.3814
    -2.3232  -2.3173  -2.2752  -2.2337  -2.1996  -2.0289  -1.9451  -1.9309
    -1.8967  -1.8844  -1.8435  -1.7988  -1.7900  -1.7665  -1.7451  -1.7179
    -1.6722  -1.6366  -1.6039  -1.5797  -1.5603  -1.5373  -1.4899  -1.4684
    -1.4611  -1.3880  -1.3791  -1.3730  -1.3424  -1.3039  -1.2976  -1.2824
    -1.2509  -1.2257  -1.2003  -1.1697  -1.1556  -1.1339  -1.1170  -1.1033
    -1.0792  -1.0514  -1.0215  -1.0052  -0.9854  -0.9758  -0.9401  -0.9205
    -0.9159  -0.8880  -0.8323  -0.8288  -0.7914  -0.7497  -0.7335  -0.7191
    -0.6960  -0.6688  -0.6450  -0.6279  -0.6245  -0.5218  -0.4281  -0.3860
    -0.2977  -0.2521  -0.2330  -0.2116  -0.2039  -0.1791  -0.1604  -0.0989
    -0.0167   0.0113   0.0703   0.1042   0.1356   0.1644   0.1719   0.1811
     0.1968   0.2155   0.2524   0.2704   0.3794   0.3968   0.4066   0.4151
     0.4554   0.5356   0.5658   0.5909   0.6069   0.6264   0.6359   0.7017
     0.7119   0.7631   0.7826   0.7913   0.8085   0.8416   0.8670   0.9006
     0.9306   0.9704   0.9918   0.9952   1.0283   1.0633   1.1197   1.1490
     1.1575   1.2099   1.2167   1.2398   1.2864   1.3052   1.3310   1.3430
     1.3509   1.4048   1.4199   1.4212   1.4436   1.4535   1.4717   1.4955
     1.5258   1.5861   1.6504   1.6595   1.6774   1.6994   1.7102   1.7248
     1.7511   1.7731   1.7843   1.8401   1.8658   1.9088   1.9661   2.0560
     2.0825   2.0887   2.1391   2.3488   2.4637   2.8568   3.1288   3.2491
     3.3513   3.4811   4.1893   4.5492   4.7809   5.1302   5.2612   5.4106
     5.5503   5.6337   5.7092   5.8300   6.2663   6.4127   6.4889   6.5270

          k = 0.2000 0.1155 0.0000 ( 93572 PWs)   bands (ev):

   -13.9498 -11.6469  -7.2632  -6.8272  -5.7842  -5.4412  -5.1929  -5.0997
    -4.8153  -4.7605  -4.5417  -4.5120  -4.4604  -4.4323  -4.3940  -4.2887
    -4.2443  -4.1931  -4.0467  -4.0340  -4.0076  -3.8948  -3.8568  -3.7119
    -3.6087  -3.5841  -3.5799  -3.5046  -3.4984  -3.4622  -3.4217  -3.4126
    -3.3546  -3.3507  -3.3136  -3.2854  -3.2704  -3.2096  -3.2068  -3.1074
    -3.0718  -3.0080  -2.9868  -2.9594  -2.8823  -2.8188  -2.7530  -2.6940
    -2.6772  -2.6420  -2.6325  -2.5731  -2.5358  -2.5087  -2.4352  -2.3814
    -2.3232  -2.3173  -2.2752  -2.2337  -2.1996  -2.0289  -1.9452  -1.9309
    -1.8967  -1.8844  -1.8435  -1.7988  -1.7900  -1.7665  -1.7451  -1.7179
    -1.6722  -1.6366  -1.6039  -1.5797  -1.5603  -1.5373  -1.4899  -1.4683
    -1.4611  -1.3880  -1.3790  -1.3730  -1.3424  -1.3039  -1.2976  -1.2824
    -1.2509  -1.2257  -1.2003  -1.1697  -1.1555  -1.1339  -1.1170  -1.1033
    -1.0791  -1.0514  -1.0215  -1.0052  -0.9854  -0.9758  -0.9401  -0.9205
    -0.9159  -0.8880  -0.8322  -0.8287  -0.7914  -0.7498  -0.7336  -0.7192
    -0.6960  -0.6688  -0.6450  -0.6279  -0.6245  -0.5218  -0.4281  -0.3860
    -0.2977  -0.2522  -0.2330  -0.2116  -0.2040  -0.1791  -0.1604  -0.0989
    -0.0167   0.0113   0.0703   0.1042   0.1357   0.1645   0.1719   0.1811
     0.1969   0.2155   0.2524   0.2704   0.3793   0.3968   0.4066   0.4151
     0.4554   0.5356   0.5657   0.5909   0.6069   0.6263   0.6359   0.7017
     0.7119   0.7631   0.7826   0.7913   0.8085   0.8416   0.8670   0.9006
     0.9306   0.9704   0.9918   0.9952   1.0283   1.0633   1.1196   1.1490
     1.1575   1.2099   1.2167   1.2398   1.2863   1.3052   1.3310   1.3430
     1.3509   1.4048   1.4199   1.4212   1.4436   1.4535   1.4717   1.4955
     1.5258   1.5861   1.6504   1.6595   1.6774   1.6994   1.7102   1.7248
     1.7511   1.7731   1.7843   1.8401   1.8658   1.9088   1.9661   2.0560
     2.0825   2.0887   2.1392   2.3489   2.4637   2.8568   3.1288   3.2491
     3.3514   3.4812   4.1894   4.5489   4.7810   5.1309   5.2607   5.4106
     5.5505   5.6347   5.7075   5.8306   6.2663   6.4126   6.4888   6.5271

          k = 0.2000 0.3464 0.0000 ( 93580 PWs)   bands (ev):

   -13.9497 -11.6461  -7.1994  -6.5916  -5.7000  -5.4476  -5.4241  -5.2180
    -5.1144  -4.5496  -4.4028  -4.3321  -4.3280  -4.3000  -4.2679  -4.2460
    -4.1720  -4.1534  -4.0960  -3.9966  -3.8830  -3.7598  -3.7462  -3.7362
    -3.7088  -3.6490  -3.6141  -3.5325  -3.5189  -3.4979  -3.4288  -3.4044
    -3.3915  -3.3621  -3.3180  -3.2893  -3.2656  -3.2535  -3.2062  -3.1365
    -3.0917  -3.0579  -2.9061  -2.8573  -2.7854  -2.7623  -2.7333  -2.7020
    -2.6822  -2.6623  -2.6081  -2.5830  -2.5283  -2.4803  -2.4772  -2.3891
    -2.3464  -2.3405  -2.2833  -2.2651  -2.2201  -2.2059  -2.1863  -2.0353
    -2.0255  -1.9898  -1.9591  -1.9258  -1.8858  -1.8689  -1.8578  -1.8208
    -1.7931  -1.6624  -1.6560  -1.6408  -1.6280  -1.6052  -1.5835  -1.5260
    -1.5022  -1.4752  -1.4378  -1.3871  -1.3531  -1.3416  -1.3226  -1.3065
    -1.2925  -1.2793  -1.2390  -1.2311  -1.2153  -1.1962  -1.1715  -1.1079
    -1.0789  -1.0702  -1.0434  -1.0246  -1.0143  -0.9952  -0.9670  -0.9406
    -0.9245  -0.9134  -0.8959  -0.8894  -0.8722  -0.8517  -0.8255  -0.7545
    -0.7250  -0.6827  -0.6338  -0.6102  -0.5870  -0.5683  -0.4968  -0.4270
    -0.3788  -0.3460  -0.3246  -0.2517  -0.2270  -0.2029  -0.1845  -0.1481
    -0.1263  -0.0911  -0.0750  -0.0593  -0.0077   0.0187   0.0722   0.1290
     0.1514   0.1815   0.1997   0.2289   0.2647   0.3235   0.3512   0.3867
     0.4148   0.4780   0.4977   0.5246   0.5422   0.5651   0.6077   0.6483
     0.6850   0.7264   0.7442   0.7462   0.7666   0.7820   0.7909   0.8097
     0.8328   0.8950   0.9539   0.9769   1.0732   1.1113   1.1580   1.2752
     1.2954   1.3073   1.3268   1.3544   1.4045   1.4288   1.4640   1.4694
     1.4879   1.5012   1.5235   1.5339   1.5523   1.5826   1.5973   1.6208
     1.6613   1.6853   1.7214   1.7332   1.7518   1.7903   1.9119   1.9250
     1.9709   1.9813   2.0035   2.0677   2.0916   2.1507   2.2031   2.3850
     2.6693   2.7129   2.8942   3.0901   3.2534   3.2938   3.4011   3.8108
     3.9694   4.0436   4.1577   4.2347   4.2958   4.7963   5.1948   5.2448
     5.4116   5.5255   5.7410   5.8446   5.9800   6.1008   6.1305   6.1842

          k = 0.2000-0.5774 0.0000 ( 93624 PWs)   bands (ev):

   -13.9496 -11.6457  -7.1669  -6.1227  -6.0751  -5.6509  -5.4804  -5.1190
    -4.9693  -4.7627  -4.4088  -4.3311  -4.2846  -4.1817  -4.1046  -4.0518
    -4.0372  -3.9844  -3.9316  -3.8651  -3.8255  -3.8140  -3.7943  -3.7678
    -3.7402  -3.7048  -3.6566  -3.6035  -3.5982  -3.5848  -3.5633  -3.4713
    -3.4485  -3.3470  -3.3106  -3.2726  -3.2278  -3.1927  -3.1620  -3.1457
    -3.0963  -2.9796  -2.9709  -2.9240  -2.8769  -2.7793  -2.7510  -2.7198
    -2.6347  -2.6217  -2.5489  -2.5348  -2.4598  -2.4156  -2.4037  -2.3669
    -2.3549  -2.3090  -2.2693  -2.2575  -2.1971  -2.1894  -2.1693  -2.1477
    -2.1275  -2.1021  -2.0706  -2.0555  -2.0231  -1.9491  -1.9072  -1.8687
    -1.8429  -1.7644  -1.7195  -1.6998  -1.6879  -1.6550  -1.6430  -1.6073
    -1.5926  -1.5758  -1.5192  -1.4935  -1.4525  -1.4325  -1.4098  -1.3303
    -1.3020  -1.2877  -1.2776  -1.2591  -1.1869  -1.1732  -1.1458  -1.1022
    -1.0976  -1.0537  -1.0322  -1.0228  -0.9992  -0.9902  -0.9757  -0.9578
    -0.9400  -0.9082  -0.9000  -0.8883  -0.8521  -0.8351  -0.8331  -0.8189
    -0.7842  -0.7603  -0.6973  -0.5696  -0.5518  -0.5132  -0.4938  -0.4230
    -0.3665  -0.3518  -0.3304  -0.2956  -0.2892  -0.2432  -0.2365  -0.2184
    -0.1731  -0.1566  -0.1195  -0.0885  -0.0656   0.0039   0.0357   0.0382
     0.0957   0.1214   0.1706   0.2431   0.2735   0.2864   0.3526   0.3772
     0.3947   0.4315   0.4506   0.4666   0.4845   0.4997   0.5787   0.6014
     0.6146   0.6265   0.6731   0.6965   0.7215   0.7433   0.8191   0.8365
     0.8932   0.9856   1.0175   1.0395   1.1413   1.1503   1.1880   1.2278
     1.2783   1.2880   1.3176   1.3774   1.4330   1.4447   1.4736   1.4969
     1.5192   1.5559   1.5707   1.5808   1.6387   1.6541   1.6651   1.7038
     1.7106   1.7238   1.7383   1.8043   1.8571   1.9037   1.9332   1.9423
     1.9605   2.0026   2.0607   2.1136   2.2233   2.5039   2.9216   3.0921
     3.1225   3.3240   3.3553   3.4189   3.4424   3.6412   3.8189   4.0185
     4.1045   4.2347   4.4914   4.5901   4.6264   4.7433   4.8332   4.9801
     5.0657   5.0695   5.2184   5.3858   5.4800   5.7508   6.0273   6.0931

          k = 0.2000-0.3464 0.0000 ( 93580 PWs)   bands (ev):

   -13.9497 -11.6461  -7.1994  -6.5915  -5.6999  -5.4475  -5.4243  -5.2181
    -5.1144  -4.5496  -4.4029  -4.3321  -4.3280  -4.3000  -4.2679  -4.2460
    -4.1720  -4.1534  -4.0960  -3.9966  -3.8831  -3.7597  -3.7462  -3.7362
    -3.7088  -3.6490  -3.6142  -3.5325  -3.5188  -3.4979  -3.4288  -3.4044
    -3.3915  -3.3622  -3.3179  -3.2892  -3.2656  -3.2535  -3.2063  -3.1365
    -3.0917  -3.0579  -2.9061  -2.8573  -2.7854  -2.7623  -2.7333  -2.7020
    -2.6822  -2.6623  -2.6081  -2.5830  -2.5283  -2.4802  -2.4772  -2.3891
    -2.3464  -2.3405  -2.2833  -2.2651  -2.2201  -2.2059  -2.1863  -2.0353
    -2.0255  -1.9898  -1.9591  -1.9258  -1.8858  -1.8689  -1.8578  -1.8208
    -1.7931  -1.6624  -1.6561  -1.6407  -1.6280  -1.6052  -1.5834  -1.5260
    -1.5022  -1.4752  -1.4378  -1.3871  -1.3532  -1.3415  -1.3226  -1.3065
    -1.2925  -1.2794  -1.2390  -1.2311  -1.2153  -1.1962  -1.1715  -1.1079
    -1.0789  -1.0702  -1.0433  -1.0246  -1.0143  -0.9952  -0.9671  -0.9406
    -0.9245  -0.9134  -0.8958  -0.8894  -0.8722  -0.8517  -0.8254  -0.7545
    -0.7250  -0.6828  -0.6338  -0.6102  -0.5870  -0.5683  -0.4969  -0.4270
    -0.3788  -0.3460  -0.3246  -0.2517  -0.2270  -0.2029  -0.1845  -0.1482
    -0.1263  -0.0911  -0.0750  -0.0593  -0.0078   0.0188   0.0723   0.1289
     0.1514   0.1815   0.1996   0.2289   0.2647   0.3235   0.3512   0.3867
     0.4148   0.4781   0.4978   0.5246   0.5422   0.5652   0.6077   0.6483
     0.6851   0.7264   0.7442   0.7462   0.7667   0.7820   0.7909   0.8097
     0.8329   0.8949   0.9539   0.9768   1.0732   1.1112   1.1581   1.2753
     1.2954   1.3073   1.3268   1.3544   1.4045   1.4288   1.4640   1.4694
     1.4879   1.5013   1.5235   1.5339   1.5523   1.5826   1.5973   1.6208
     1.6613   1.6853   1.7214   1.7333   1.7518   1.7903   1.9119   1.9249
     1.9709   1.9813   2.0034   2.0677   2.0916   2.1507   2.2031   2.3851
     2.6693   2.7129   2.8942   3.0901   3.2534   3.2938   3.4011   3.8108
     3.9694   4.0436   4.1577   4.2347   4.2957   4.7964   5.1951   5.2440
     5.4116   5.5252   5.7404   5.8469   5.9791   6.1010   6.1304   6.1841

          k = 0.4000-0.2309 0.0000 ( 93622 PWs)   bands (ev):

   -13.9497 -11.6460  -7.1879  -6.4686  -5.8776  -5.6561  -5.2025  -5.0915
    -4.8491  -4.7992  -4.6604  -4.4300  -4.3116  -4.2768  -4.1716  -4.1413
    -4.0677  -4.0471  -3.9576  -3.8734  -3.8656  -3.8380  -3.7606  -3.7369
    -3.7098  -3.6796  -3.6523  -3.6254  -3.5810  -3.5668  -3.5320  -3.4855
    -3.4735  -3.2610  -3.2530  -3.2312  -3.2170  -3.1436  -3.1356  -3.0309
    -3.0047  -2.9858  -2.9682  -2.9422  -2.8542  -2.8355  -2.7472  -2.6904
    -2.6601  -2.6166  -2.5939  -2.5827  -2.5413  -2.5006  -2.4872  -2.4759
    -2.4512  -2.3300  -2.2978  -2.2932  -2.2475  -2.2311  -2.1307  -2.0982
    -2.0775  -2.0639  -2.0608  -1.9140  -1.8799  -1.8716  -1.8488  -1.8258
    -1.7467  -1.7381  -1.7199  -1.6671  -1.6036  -1.6009  -1.5464  -1.5097
    -1.5025  -1.4611  -1.4483  -1.4210  -1.3903  -1.3704  -1.3630  -1.3505
    -1.3402  -1.3328  -1.3127  -1.2965  -1.2275  -1.2106  -1.1812  -1.1675
    -1.1487  -1.1416  -1.1069  -1.0366  -1.0114  -0.9995  -0.9588  -0.9395
    -0.9081  -0.9015  -0.8822  -0.8360  -0.8069  -0.7844  -0.7120  -0.6886
    -0.6763  -0.6432  -0.5837  -0.5575  -0.4860  -0.4523  -0.4099  -0.3801
    -0.3546  -0.3247  -0.2863  -0.2781  -0.2669  -0.2276  -0.2073  -0.1698
    -0.1624  -0.1474  -0.1342  -0.1162  -0.0925  -0.0540   0.0146   0.0330
     0.0681   0.0950   0.1316   0.1690   0.2118   0.2950   0.3269   0.3827
     0.4244   0.4353   0.5033   0.5308   0.5787   0.6060   0.6425   0.6589
     0.6745   0.6930   0.7262   0.7436   0.7682   0.8351   0.8472   0.8922
     0.9137   0.9358   0.9442   0.9920   1.0460   1.1064   1.1563   1.1791
     1.1872   1.2162   1.3063   1.3216   1.3335   1.3573   1.3787   1.4049
     1.4633   1.4734   1.4956   1.5262   1.5606   1.6167   1.6544   1.6585
     1.6741   1.6859   1.7183   1.7393   1.7556   1.8798   1.9085   1.9218
     1.9236   1.9657   2.0322   2.1575   2.2743   2.3880   2.5735   2.7560
     2.9148   2.9593   3.0722   3.2076   3.3774   3.5368   3.6659   3.9303
     4.1633   4.2028   4.2909   4.3557   4.4376   4.4906   4.6585   4.7337
     4.8892   5.3480   5.4248   5.6080   5.9233   6.0054   6.1559   6.3973

          k = 0.4000-0.0000 0.0000 ( 93580 PWs)   bands (ev):

   -13.9497 -11.6462  -7.2020  -6.5904  -5.7038  -5.4439  -5.4269  -5.2193
    -5.1038  -4.5177  -4.4339  -4.3336  -4.3275  -4.2996  -4.2682  -4.2487
    -4.1721  -4.1517  -4.0916  -4.0444  -3.8517  -3.7594  -3.7455  -3.7365
    -3.7110  -3.6512  -3.6186  -3.5290  -3.5151  -3.4961  -3.4318  -3.4000
    -3.3882  -3.3669  -3.3103  -3.2947  -3.2645  -3.2499  -3.2126  -3.1423
    -3.0796  -2.9947  -2.9275  -2.8625  -2.7878  -2.7649  -2.7304  -2.7055
    -2.6875  -2.6582  -2.6204  -2.5633  -2.5363  -2.4834  -2.4715  -2.3874
    -2.3627  -2.3419  -2.2879  -2.2741  -2.2241  -2.2037  -2.1908  -2.0312
    -2.0249  -1.9903  -1.9630  -1.9197  -1.8832  -1.8706  -1.8535  -1.8151
    -1.7858  -1.6659  -1.6562  -1.6405  -1.6230  -1.6199  -1.5870  -1.5292
    -1.4977  -1.4807  -1.4355  -1.3655  -1.3614  -1.3399  -1.3170  -1.3003
    -1.2928  -1.2797  -1.2500  -1.2328  -1.2207  -1.1936  -1.1643  -1.1571
    -1.0796  -1.0630  -1.0333  -1.0282  -1.0126  -0.9842  -0.9673  -0.9462
    -0.9240  -0.9067  -0.8942  -0.8835  -0.8720  -0.8541  -0.8287  -0.7551
    -0.7302  -0.6804  -0.6477  -0.6040  -0.5946  -0.5682  -0.4747  -0.4243
    -0.3674  -0.3459  -0.3079  -0.2474  -0.2399  -0.2020  -0.1860  -0.1473
    -0.1384  -0.0929  -0.0849  -0.0623  -0.0267   0.0317   0.0975   0.1123
     0.1604   0.1786   0.1958   0.2267   0.2776   0.3232   0.3694   0.3858
     0.4137   0.4424   0.4963   0.5156   0.5237   0.5634   0.6150   0.6462
     0.6832   0.7224   0.7367   0.7476   0.7726   0.7781   0.7879   0.8138
     0.8335   0.8790   0.9552   1.0274   1.0688   1.1075   1.1921   1.2185
     1.2949   1.3010   1.3199   1.3564   1.4064   1.4397   1.4520   1.4692
     1.4903   1.5060   1.5244   1.5402   1.5423   1.5800   1.6009   1.6197
     1.6558   1.7078   1.7192   1.7344   1.7433   1.8079   1.8594   1.9287
     1.9708   1.9876   2.0277   2.0634   2.0661   2.1754   2.1934   2.5135
     2.5965   2.7655   2.8050   3.0664   3.2557   3.2877   3.5764   3.8003
     3.9768   4.0439   4.1359   4.1835   4.2479   4.6848   5.2400   5.3347
     5.4602   5.5027   5.7291   5.8274   5.9962   6.0980   6.1335   6.1577

          k = 0.4000 0.2309 0.0000 ( 93622 PWs)   bands (ev):

   -13.9497 -11.6460  -7.1879  -6.4686  -5.8777  -5.6561  -5.2022  -5.0916
    -4.8491  -4.7992  -4.6604  -4.4300  -4.3115  -4.2768  -4.1716  -4.1412
    -4.0678  -4.0472  -3.9576  -3.8735  -3.8656  -3.8380  -3.7605  -3.7369
    -3.7098  -3.6796  -3.6523  -3.6254  -3.5810  -3.5668  -3.5320  -3.4855
    -3.4735  -3.2610  -3.2530  -3.2314  -3.2169  -3.1436  -3.1356  -3.0309
    -3.0047  -2.9858  -2.9682  -2.9422  -2.8542  -2.8355  -2.7472  -2.6903
    -2.6601  -2.6166  -2.5939  -2.5827  -2.5413  -2.5006  -2.4873  -2.4759
    -2.4512  -2.3300  -2.2978  -2.2933  -2.2475  -2.2311  -2.1307  -2.0982
    -2.0774  -2.0638  -2.0608  -1.9140  -1.8799  -1.8715  -1.8488  -1.8258
    -1.7468  -1.7381  -1.7199  -1.6671  -1.6035  -1.6009  -1.5464  -1.5097
    -1.5025  -1.4611  -1.4483  -1.4209  -1.3902  -1.3705  -1.3630  -1.3505
    -1.3403  -1.3328  -1.3127  -1.2965  -1.2275  -1.2106  -1.1812  -1.1675
    -1.1488  -1.1416  -1.1069  -1.0366  -1.0114  -0.9995  -0.9588  -0.9395
    -0.9081  -0.9015  -0.8822  -0.8360  -0.8069  -0.7844  -0.7120  -0.6885
    -0.6762  -0.6433  -0.5837  -0.5574  -0.4860  -0.4523  -0.4098  -0.3801
    -0.3546  -0.3247  -0.2864  -0.2781  -0.2668  -0.2276  -0.2072  -0.1698
    -0.1624  -0.1474  -0.1342  -0.1161  -0.0925  -0.0539   0.0145   0.0330
     0.0681   0.0950   0.1316   0.1690   0.2118   0.2950   0.3269   0.3827
     0.4245   0.4353   0.5033   0.5308   0.5787   0.6060   0.6425   0.6589
     0.6745   0.6930   0.7262   0.7436   0.7683   0.8351   0.8472   0.8922
     0.9137   0.9357   0.9442   0.9919   1.0460   1.1064   1.1563   1.1791
     1.1872   1.2162   1.3063   1.3216   1.3335   1.3573   1.3787   1.4049
     1.4633   1.4734   1.4956   1.5262   1.5606   1.6167   1.6544   1.6585
     1.6741   1.6860   1.7183   1.7393   1.7556   1.8798   1.9085   1.9218
     1.9236   1.9657   2.0322   2.1575   2.2743   2.3879   2.5735   2.7560
     2.9147   2.9593   3.0722   3.2076   3.3774   3.5368   3.6659   3.9302
     4.1633   4.2028   4.2909   4.3556   4.4376   4.4906   4.6586   4.7337
     4.8892   5.3482   5.4247   5.6087   5.9226   6.0051   6.1564   6.3974

          k = 0.4000-0.6928 0.0000 ( 93624 PWs)   bands (ev):

   -13.9496 -11.6457  -7.1694  -6.1202  -6.0767  -5.6468  -5.4862  -5.1423
    -4.9156  -4.7665  -4.4553  -4.3211  -4.2609  -4.1880  -4.1159  -4.0472
    -4.0383  -3.9834  -3.9293  -3.8902  -3.8231  -3.8139  -3.7972  -3.7664
    -3.7456  -3.6954  -3.6512  -3.6024  -3.5976  -3.5828  -3.5621  -3.4871
    -3.4461  -3.3467  -3.2972  -3.2616  -3.2268  -3.1943  -3.1537  -3.1425
    -3.0662  -2.9847  -2.9660  -2.9365  -2.8771  -2.7782  -2.7588  -2.7160
    -2.6363  -2.6126  -2.5636  -2.5270  -2.4601  -2.4252  -2.4028  -2.3646
    -2.3505  -2.3056  -2.2768  -2.2525  -2.2007  -2.1900  -2.1606  -2.1455
    -2.1273  -2.1111  -2.0720  -2.0504  -2.0288  -1.9510  -1.9142  -1.8646
    -1.8428  -1.7913  -1.7162  -1.7033  -1.6941  -1.6544  -1.6380  -1.6100
    -1.5988  -1.5431  -1.5193  -1.4953  -1.4539  -1.4332  -1.4083  -1.3297
    -1.3087  -1.2891  -1.2785  -1.2634  -1.2020  -1.1730  -1.1458  -1.1108
    -1.0965  -1.0526  -1.0345  -1.0214  -0.9973  -0.9909  -0.9742  -0.9596
    -0.9352  -0.9171  -0.8845  -0.8778  -0.8532  -0.8407  -0.8337  -0.8191
    -0.7868  -0.7671  -0.6766  -0.5755  -0.5538  -0.5116  -0.4783  -0.4205
    -0.3691  -0.3455  -0.3335  -0.2996  -0.2781  -0.2453  -0.2365  -0.2252
    -0.1813  -0.1407  -0.1252  -0.0945  -0.0680  -0.0093   0.0316   0.0377
     0.0890   0.1121   0.1968   0.2557   0.2705   0.3019   0.3487   0.3791
     0.4009   0.4169   0.4540   0.4664   0.4852   0.4895   0.5780   0.5850
     0.6149   0.6251   0.6767   0.6920   0.7148   0.7412   0.7746   0.8628
     0.9223   0.9780   1.0110   1.0716   1.1280   1.1532   1.1799   1.2177
     1.2463   1.2860   1.3343   1.3796   1.4249   1.4459   1.4698   1.4983
     1.5165   1.5457   1.5576   1.6024   1.6383   1.6556   1.6719   1.7029
     1.7141   1.7246   1.7556   1.8066   1.8492   1.9089   1.9250   1.9410
     1.9652   2.0043   2.0355   2.1111   2.2000   2.6055   2.9264   3.0987
     3.1354   3.3078   3.3440   3.4240   3.4655   3.5807   3.8671   4.0153
     4.1235   4.2323   4.4556   4.5856   4.6031   4.7154   4.8382   4.9855
     5.0093   5.0624   5.2801   5.3728   5.4908   5.8709   6.0138   6.1299

          k = 0.4000-0.4619 0.0000 ( 93624 PWs)   bands (ev):

   -13.9496 -11.6457  -7.1695  -6.1201  -6.0768  -5.6469  -5.4861  -5.1426
    -4.9155  -4.7665  -4.4554  -4.3211  -4.2610  -4.1880  -4.1159  -4.0471
    -4.0383  -3.9834  -3.9292  -3.8902  -3.8231  -3.8139  -3.7973  -3.7664
    -3.7456  -3.6954  -3.6512  -3.6024  -3.5976  -3.5828  -3.5621  -3.4871
    -3.4461  -3.3467  -3.2971  -3.2616  -3.2268  -3.1943  -3.1537  -3.1425
    -3.0662  -2.9848  -2.9660  -2.9365  -2.8771  -2.7782  -2.7588  -2.7160
    -2.6364  -2.6126  -2.5637  -2.5270  -2.4600  -2.4252  -2.4028  -2.3646
    -2.3504  -2.3056  -2.2768  -2.2525  -2.2007  -2.1900  -2.1606  -2.1455
    -2.1273  -2.1112  -2.0720  -2.0504  -2.0289  -1.9510  -1.9142  -1.8646
    -1.8428  -1.7913  -1.7162  -1.7033  -1.6941  -1.6544  -1.6380  -1.6100
    -1.5988  -1.5431  -1.5193  -1.4954  -1.4539  -1.4332  -1.4083  -1.3297
    -1.3087  -1.2891  -1.2785  -1.2634  -1.2020  -1.1730  -1.1457  -1.1108
    -1.0965  -1.0526  -1.0344  -1.0214  -0.9974  -0.9909  -0.9742  -0.9595
    -0.9353  -0.9172  -0.8845  -0.8778  -0.8530  -0.8407  -0.8338  -0.8192
    -0.7868  -0.7670  -0.6766  -0.5755  -0.5538  -0.5117  -0.4782  -0.4206
    -0.3690  -0.3456  -0.3336  -0.2996  -0.2781  -0.2454  -0.2365  -0.2253
    -0.1813  -0.1407  -0.1252  -0.0946  -0.0681  -0.0093   0.0316   0.0377
     0.0889   0.1121   0.1968   0.2557   0.2705   0.3020   0.3487   0.3791
     0.4009   0.4169   0.4540   0.4665   0.4852   0.4896   0.5780   0.5849
     0.6149   0.6250   0.6767   0.6920   0.7148   0.7412   0.7746   0.8628
     0.9223   0.9779   1.0110   1.0716   1.1280   1.1532   1.1799   1.2177
     1.2463   1.2860   1.3343   1.3796   1.4249   1.4459   1.4698   1.4983
     1.5165   1.5458   1.5576   1.6024   1.6383   1.6557   1.6719   1.7029
     1.7141   1.7246   1.7556   1.8066   1.8492   1.9089   1.9250   1.9411
     1.9652   2.0043   2.0354   2.1110   2.2000   2.6055   2.9265   3.0987
     3.1354   3.3078   3.3440   3.4240   3.4655   3.5807   3.8672   4.0152
     4.1235   4.2323   4.4556   4.5856   4.6031   4.7154   4.8382   4.9855
     5.0093   5.0625   5.2796   5.3730   5.4908   5.8700   6.0134   6.1309

     the Fermi energy is     1.7194 ev

!    total energy              =  -27813.59442554 Ry

     total all-electron energy =  -1326873.652129 Ry
     estimated scf accuracy    <       0.00000071 Ry
     smearing contrib. (-TS)   =       0.00328608 Ry
     internal energy E=F+TS    =  -27813.59771162 Ry

     The total energy is F=E-TS. E is the sum of the following terms:
     one-electron contribution =  -29792.98096438 Ry
     hartree contribution      =   15197.42048144 Ry
     xc contribution           =    -905.81626341 Ry
     ewald contribution        =   13181.41929806 Ry
     one-center paw contrib.   =  -25493.64026333 Ry

     convergence has been achieved in  20 iterations

     negative rho (up, down):  1.301E-02 0.000E+00

     Forces acting on atoms (cartesian axes, Ry/au):

     atom    1 type  1   force =    -0.00123161   -0.00080967   -0.00433953
     atom    2 type  1   force =     0.00130874   -0.00083689   -0.00434068
     atom    3 type  1   force =     0.00001785   -0.00027233   -0.00368822
     atom    4 type  1   force =     0.00001796    0.00199396   -0.00380361
     atom    5 type  1   force =    -0.00047830   -0.00034759   -0.00307546
     atom    6 type  1   force =     0.00055173   -0.00032596   -0.00307798
     atom    7 type  1   force =    -0.00046580   -0.00002021   -0.00419666
     atom    8 type  1   force =     0.00005706    0.00059751   -0.00272561
     atom    9 type  1   force =     0.00050478   -0.00001934   -0.00417065
     atom   10 type  1   force =     0.00001677    0.00308367    0.00115075
     atom   11 type  1   force =    -0.00188835    0.00153532    0.00416524
     atom   12 type  1   force =     0.00195925    0.00157483    0.00419514
     atom   13 type  1   force =     0.00035666   -0.00213763    0.00351595
     atom   14 type  1   force =     0.00006139   -0.00014629    0.00787418
     atom   15 type  1   force =    -0.00034578   -0.00210939    0.00355020
     atom   16 type  1   force =     0.00181171    0.00204715    0.00341757
     atom   17 type  1   force =    -0.00171863    0.00201485    0.00343805
     atom   18 type  1   force =     0.00000310    0.00001135    0.00180239
     atom   19 type  1   force =    -0.00007669    0.00006604   -0.00035253
     atom   20 type  1   force =     0.00007933    0.00002588   -0.00033407
     atom   21 type  1   force =     0.00008414    0.00020534   -0.00028982
     atom   22 type  1   force =    -0.00003232   -0.00043788    0.00021326
     atom   23 type  1   force =     0.00030683    0.00014151   -0.00007036
     atom   24 type  1   force =    -0.00017775    0.00012553   -0.00012088
     atom   25 type  1   force =    -0.00021880   -0.00005211   -0.00005378
     atom   26 type  1   force =     0.00003007    0.00019741   -0.00023580
     atom   27 type  1   force =     0.00028476   -0.00012513   -0.00007460
     atom   28 type  1   force =     0.00015953    0.00027236   -0.00023380
     atom   29 type  1   force =    -0.00012031    0.00023412   -0.00017366
     atom   30 type  1   force =     0.00005193   -0.00075029   -0.00028954
     atom   31 type  1   force =    -0.00001229    0.00012866   -0.00064433
     atom   32 type  1   force =     0.00008651    0.00039890    0.00038494
     atom   33 type  1   force =     0.00000654    0.00039195    0.00031504
     atom   34 type  1   force =     0.00013826   -0.00007561   -0.00006571
     atom   35 type  1   force =     0.00004790   -0.00090713   -0.00010273
     atom   36 type  1   force =    -0.00011374   -0.00012188   -0.00011565
     atom   37 type  2   force =    -0.00019025   -0.00086314   -0.00193321
     atom   38 type  2   force =     0.00064214   -0.00322142    0.00399441
     atom   39 type  2   force =     0.00388880   -0.00113181    0.00588233
     atom   40 type  3   force =    -0.00006862   -0.00015167   -0.00046252
     atom   41 type  3   force =    -0.00533451   -0.00018297   -0.00492808

     Total force =     0.011796     Total SCF correction =     0.003236
     SCF correction compared to forces is large: reduce conv_thr to get better values

     negative rho (up, down):  1.301E-02 0.000E+00

     negative rho (up, down):  1.301E-02 0.000E+00

     negative rho (up, down):  1.301E-02 0.000E+00

     negative rho (up, down):  1.301E-02 0.000E+00

     negative rho (up, down):  1.301E-02 0.000E+00

     negative rho (up, down):  1.301E-02 0.000E+00

     negative rho (up, down):  1.301E-02 0.000E+00

     negative rho (up, down):  1.301E-02 0.000E+00

     negative rho (up, down):  1.301E-02 0.000E+00

     negative rho (up, down):  1.301E-02 0.000E+00

     negative rho (up, down):  1.301E-02 0.000E+00

     negative rho (up, down):  1.301E-02 0.000E+00

     negative rho (up, down):  1.301E-02 0.000E+00

     negative rho (up, down):  1.301E-02 0.000E+00

     negative rho (up, down):  1.301E-02 0.000E+00

     negative rho (up, down):  1.301E-02 0.000E+00

     negative rho (up, down):  1.301E-02 0.000E+00

     negative rho (up, down):  1.301E-02 0.000E+00

     negative rho (up, down):  1.301E-02 0.000E+00

     negative rho (up, down):  1.301E-02 0.000E+00

     negative rho (up, down):  1.301E-02 0.000E+00

     negative rho (up, down):  1.301E-02 0.000E+00

     negative rho (up, down):  1.301E-02 0.000E+00

     negative rho (up, down):  1.301E-02 0.000E+00

     negative rho (up, down):  1.301E-02 0.000E+00

     negative rho (up, down):  1.301E-02 0.000E+00

     negative rho (up, down):  1.301E-02 0.000E+00

     negative rho (up, down):  1.301E-02 0.000E+00

     negative rho (up, down):  1.301E-02 0.000E+00

     negative rho (up, down):  1.301E-02 0.000E+00

     negative rho (up, down):  1.301E-02 0.000E+00

     negative rho (up, down):  1.301E-02 0.000E+00

     negative rho (up, down):  1.301E-02 0.000E+00

     negative rho (up, down):  1.301E-02 0.000E+00
 BEEFens 2000 ensemble energies
             -0.606286087662579E+02
             -0.361083581360251E+01
             -0.158240373300601E+02
              0.429043895452926E+02
             -0.220974653868505E+02
             -0.205161379469190E+02
             -0.351878809644708E+02
             -0.864208838009149E+02
             -0.464786233725914E+02
             -0.472443270199503E+02
             -0.369034247506323E+02
              0.226693324774404E+01
              0.406919040025338E+01
              0.762366697614064E+01
              0.265191188684355E+01
              0.474581561265749E+02
             -0.208662502288606E+02
             -0.230171969631424E+02
              0.192939356675448E+02
             -0.112295915447836E+03
              0.535890160004983E+02
             -0.289685202375911E+02
             -0.333733867576866E+01
             -0.113990382390241E+02
             -0.884389343485873E+01
             -0.463830971487172E+01
              0.882087785889568E+02
             -0.186877541490587E+02
             -0.899469443703686E+01
             -0.518050144890333E+02
              0.815075997759091E+02
             -0.187255432162312E+02
             -0.374719224996827E+02
              0.249100159163685E+02
             -0.283892730722880E+01
              0.163913562340149E+02
             -0.485639421683101E+01
              0.108059317294381E+02
              0.288080084157877E+02
             -0.103196996476522E+03
              0.557910427143079E+02
              0.142259652851654E+02
             -0.170682843420582E+01
             -0.361260380991870E+02
              0.123113552970108E+02
             -0.146525156244994E+02
              0.398078071068811E+02
              0.364585615628502E+02
             -0.307957004960226E+02
             -0.274925575302507E+02
             -0.328250530288954E+02
             -0.351830523273962E+02
              0.136166296507113E+02
             -0.490475916930725E+02
              0.115399424450972E+02
              0.622596045287525E+02
              0.634763966747188E+02
              0.355549057718330E+02
              0.153945912153438E+02
              0.270214067575347E+02
              0.890729424114455E+02
              0.212559986652410E+02
             -0.548124543411451E+02
             -0.157019451851597E+02
             -0.235718649785818E+02
              0.629388288648653E+02
             -0.772820451476574E+02
             -0.671343793418458E+02
             -0.259174704755205E+02
             -0.645038679407514E+01
             -0.470572376222526E+02
              0.270482470512523E+02
              0.800647559959305E+01
              0.866613521825144E+01
             -0.396917076016800E+02
             -0.346553343065785E+02
             -0.541423219641090E+02
              0.390146565302125E+02
             -0.295717974002065E+02
              0.264987285753391E+02
             -0.714850682645142E+01
             -0.317827054565642E+02
             -0.575826744033465E+02
             -0.176589803158200E+02
             -0.904930055144280E+01
             -0.124597137742861E+02
              0.411878232351856E+02
              0.682154036627751E+02
             -0.385228361785781E+02
             -0.793998068176569E+02
             -0.219472152961591E+02
              0.111421519455263E+03
             -0.591983744514072E+02
              0.355935207584550E+02
             -0.956260528416590E+01
             -0.662711146127815E+02
              0.254170770163857E+02
              0.397780804711251E+02
             -0.198734458888113E+02
              0.400073035901888E+02
             -0.295868624508691E+02
             -0.477667440079756E+02
              0.865136998476571E+02
              0.453657047209101E+02
              0.336220658109256E+02
              0.146357189137752E+02
              0.205448339079915E+02
              0.855862520729665E+02
             -0.256475155179207E+02
              0.787312546172848E+01
             -0.142296514418016E+03
              0.180975520280585E+02
             -0.715741949303410E+02
              0.150806097174797E+02
              0.204400710218880E+02
             -0.332572522766724E+02
             -0.556802647088056E+02
              0.654198883077208E+01
             -0.303966246885416E+02
              0.307628204535064E+02
             -0.529491956110729E+02
              0.171415038222938E+01
             -0.356664906416778E+02
             -0.423210741169589E+01
             -0.104051888077029E+01
              0.180983045789143E+02
              0.143278321690252E+01
             -0.650953758360811E+01
              0.589818381610340E+02
              0.907512655731413E+02
              0.483796137312391E+02
              0.829787990927237E+02
             -0.114956351238606E+02
              0.143040496277939E+02
              0.540570227365577E+02
             -0.110849847499275E+02
             -0.735081094851963E+02
             -0.383724266390206E+02
             -0.521351808666187E+02
             -0.276461578343968E+02
              0.327052991395252E+02
             -0.116689524476414E+03
             -0.187113411956539E+02
              0.413700352522947E+02
             -0.385945432846498E+02
             -0.365238790523791E+02
              0.543664849054932E+02
              0.400361963256309E+02
             -0.353706074012439E+02
              0.137468300481509E+02
             -0.273005954210817E+02
              0.342844948314662E+02
              0.444807465632726E+01
              0.211022567467715E+02
             -0.884042288842869E+02
             -0.479752856128197E+02
             -0.993942358038112E+01
              0.322396623328187E+01
             -0.366332565322626E+02
              0.105943737311888E+03
             -0.230751479701821E+02
             -0.398417036516817E+02
              0.388500488370889E+02
             -0.493850315104595E+02
             -0.363043356734490E+02
              0.324622451040908E+02
              0.124449288870821E+02
              0.164421564516909E+02
              0.116447848704668E+02
             -0.132780155332567E+02
              0.225049308149196E+02
              0.589656561825729E+02
             -0.311390796084191E+02
              0.162324160543540E+02
              0.933697137109348E+02
              0.340508221567033E+02
             -0.727914716638145E+01
             -0.188464938229318E+02
              0.153217826936955E+03
             -0.163947632782556E+02
              0.362965877016644E+02
              0.194219021761681E+02
              0.361379755816677E+02
              0.891305565547927E+02
              0.542592257599484E+02
             -0.239524552514964E+01
              0.227551571106313E+02
              0.484551842120566E+02
              0.363137643225568E+02
             -0.524980480481051E+02
              0.935257867357276E+02
             -0.824883543891044E+02
             -0.197991818104831E+02
              0.582363895603801E+02
              0.675028713389131E+01
              0.790121594494747E+01
              0.340596949885282E+02
              0.299036023717927E+02
              0.353314540463766E+02
             -0.637145684567149E+02
              0.287402622693696E+01
             -0.297375767854063E+02
             -0.869973133208468E+01
             -0.146205252826894E+01
             -0.722148860363124E+01
             -0.414303589217127E+01
              0.858597582475312E+02
             -0.101018564175879E+02
             -0.276106585509979E+02
             -0.496241846443338E+01
              0.139852799634805E+02
             -0.563510006416305E+02
             -0.406851783983194E+02
             -0.381788344573864E+02
             -0.629778167644289E+02
             -0.169584842346489E+02
             -0.447160127722119E+02
              0.163154738697793E+02
             -0.239729880719075E+01
             -0.104271771276867E+02
             -0.933348334812973E+01
              0.807283039552323E+01
             -0.242635393871762E+02
              0.688812152715505E+02
             -0.806443189453028E+02
             -0.140957204479426E+02
             -0.173904074118532E+02
              0.181793293722520E+02
              0.214340347814428E+02
             -0.463458801020540E+02
             -0.201849992115990E+02
              0.440503034897814E+02
             -0.275951172272690E+02
              0.186867463533227E+02
              0.382505403468048E+02
             -0.322546712719327E+01
              0.114048791883160E+03
             -0.229982521670495E+02
             -0.340736344454848E+02
              0.577632525921308E+01
             -0.228029136131937E+02
              0.527138230960435E+02
             -0.336924158467931E+02
              0.106494926523264E+02
              0.640078901036634E+02
             -0.126099780511034E+02
              0.120140060686628E+03
              0.125758567171407E+03
             -0.649304452948375E+02
              0.590135548661656E+02
              0.166393763983202E+02
             -0.517302290063715E+02
              0.216024512212779E+02
              0.353567676807115E+02
              0.362330648114423E+02
              0.134433914109010E+01
              0.159663113169329E+02
              0.695094299362189E+02
             -0.246802060533893E+02
              0.181221145946022E+02
              0.738316272068068E+02
             -0.372213611714926E+02
             -0.129504520136492E+02
              0.508138281768838E+02
              0.297162537440936E+02
              0.779737447306643E+02
              0.222483099081435E+02
              0.623978752803288E+01
              0.280182147587042E+02
              0.382951721019277E+02
             -0.471357291109018E+02
              0.331191397771801E+01
              0.129628838868908E+02
              0.113617089893803E+02
              0.220358316664268E+02
             -0.574346737281058E+02
              0.365869191382122E+02
             -0.443564124702344E+02
             -0.347163287749370E+02
              0.177889332003037E+02
             -0.181319046191652E+02
              0.554667508524475E+02
             -0.255940072370241E+02
              0.266557977032708E+02
              0.368070424509583E+02
              0.828567810504589E+02
              0.574201907329147E+02
              0.461278001278814E+02
             -0.105506558000241E+02
             -0.391015335321362E+01
             -0.331766263299950E+02
              0.750034509412549E+02
              0.796511750564713E+02
              0.361574867989813E+02
             -0.191768586263714E+02
              0.511451584349832E+02
             -0.162723953104835E+02
              0.214603795784803E+02
              0.613933885540585E+02
              0.214391733398077E+01
             -0.104261275124626E+02
             -0.282836944021212E+02
             -0.511164847979763E+02
              0.944611239374307E+02
              0.439356285345133E+02
             -0.558619467114629E+02
             -0.961875471285271E+01
              0.249632089716734E+02
             -0.995250277363459E+01
              0.591608386692731E+02
              0.152067602232662E+02
              0.798643276653748E+02
              0.279300257902199E+02
             -0.263776276757628E+02
              0.248816151067856E+02
             -0.501639252241148E+01
             -0.323420513504448E+02
              0.133112884721626E+02
              0.205597046752292E+02
              0.932152083106966E+02
              0.796752560982072E+02
              0.550582400105337E+02
              0.730254381771210E+02
              0.800184487059519E+01
             -0.273517427158123E+02
              0.163081244811505E+02
             -0.367700424350097E+02
             -0.475861288902404E+02
             -0.563075473509723E+02
             -0.266311992611354E+02
             -0.109614742480573E+03
             -0.291189788602376E+02
             -0.836542801050432E+02
              0.209946626788099E+02
             -0.476624026975797E+02
              0.396510497612017E+02
             -0.940609505726251E+02
             -0.329896112869588E+02
              0.548156292962321E+02
              0.207523531222992E+02
             -0.829989014881043E+02
              0.630604471467686E+02
             -0.256544592745798E+02
              0.512000287811398E+02
             -0.242328548094013E+02
             -0.750649965784626E+02
              0.111826325432660E+02
             -0.610763347220968E+02
             -0.168042879490609E+02
             -0.148757402021839E+01
              0.417869501264825E+02
              0.126914301340356E+03
             -0.461376506018528E+02
             -0.362356718394585E+02
             -0.980798017069787E+00
             -0.130132125571749E+02
             -0.821958806272631E+02
             -0.596323075488278E+02
              0.516828959471511E+02
             -0.288752503009122E+02
              0.169190522138431E+02
             -0.489021924709481E+02
             -0.131798882072263E+02
             -0.436949190340006E+02
              0.565192336876027E+02
              0.150954906466768E+02
             -0.231501046965432E+02
             -0.126814483149754E+02
              0.666523829616705E+01
             -0.617914909926634E+01
              0.441199820446881E+02
             -0.251842202197752E+02
              0.276284949580497E+01
              0.339068804421695E+02
              0.171184727978821E+02
             -0.159625609923158E+02
              0.156153625700468E+03
              0.537547534925244E+02
              0.116288621133877E+01
              0.161653933007350E+02
             -0.614263701847631E+02
              0.314819742779213E+02
             -0.721221393897774E+02
             -0.251926550328438E+02
             -0.522242964669613E+02
             -0.219953982214725E+02
              0.568815374355133E+02
             -0.536582625092089E+02
              0.160715879291399E+02
             -0.408658482705459E+01
              0.387387264114210E+01
             -0.433598188300688E+02
             -0.478045038161841E+02
             -0.401339243744428E+01
             -0.424625056204551E+02
             -0.216962943485730E+02
             -0.438146125058292E+02
             -0.119214052694002E+02
             -0.358703595860978E+02
             -0.516091466336966E+02
              0.212498144525879E+02
             -0.209110580166016E+02
              0.187712871199496E+02
              0.973772241940450E+01
             -0.737457127974043E+02
             -0.547684266205162E+02
             -0.397867816088270E+02
              0.353848212680905E+02
              0.270521706048999E+01
             -0.626139039529746E+02
              0.585268088189454E+02
             -0.400819476903420E+02
              0.544438054384849E+02
             -0.289340952256029E+02
             -0.445611587142210E+02
              0.298305839814418E+02
             -0.657152137937052E+02
             -0.379580093512405E+02
              0.672215891289393E+02
              0.203873896137698E+02
             -0.359799619940478E+02
              0.489015185330485E+02
             -0.173827282866499E+02
             -0.322510112059224E+02
             -0.301505739163706E+02
             -0.500315683187555E+02
              0.249258951493598E+02
             -0.932403652446587E+02
             -0.839586750213508E+02
             -0.733515204976857E+01
             -0.306646183062911E+02
             -0.575199851455717E+02
              0.721338576583285E+02
              0.131435267826681E+03
             -0.360686926475307E+02
             -0.255867059935667E+01
             -0.636555571335075E+02
              0.650180529026258E+02
              0.170540488571768E+02
             -0.181437249381815E+02
             -0.409758514505443E+02
              0.148534697002896E+02
             -0.585668405133841E+02
             -0.197607717234723E+02
             -0.903965755572287E+02
              0.336663242082954E+02
              0.168861460290913E+02
              0.184659064042285E+01
             -0.705903495669520E+01
             -0.329311014163859E+02
             -0.758329667752901E+01
              0.125423402581546E+03
             -0.198961419050750E+02
             -0.437048855416992E+02
             -0.683471950614237E+02
              0.109125943011999E+02
             -0.341890638871123E+02
              0.590008232932672E+01
              0.261242400626282E+02
              0.102113566425071E+02
              0.277646717237699E+02
              0.119770963933628E+02
              0.629224235340398E+02
              0.316573730702548E+02
             -0.326327047996124E+02
              0.355296795370624E+02
              0.379277866832524E+02
              0.120806252478570E+02
              0.486672537918836E+02
             -0.224622072308025E+02
              0.765238895538369E+02
              0.172257291679080E+02
             -0.271941754139390E+02
             -0.722422169921396E+01
             -0.186258058775386E+02
              0.261745838012452E+02
             -0.234278021896750E+02
             -0.123500190145847E+00
             -0.847663903030934E+01
              0.809209766554577E+02
              0.499635907982931E+02
             -0.686584693407814E+02
             -0.475832236345445E+01
             -0.555066524518355E+02
             -0.159448259246318E+02
             -0.268079917434843E+02
              0.374870550432456E+01
              0.592369628010184E+00
             -0.257376011679763E+02
              0.813611727685043E+01
             -0.602173866388694E+01
             -0.128432909184166E+02
              0.858415351015647E+02
              0.181689067081548E+02
             -0.806434100443303E+02
             -0.458087171376658E+02
              0.944292456669459E+02
              0.277592481706425E+02
             -0.106803681130611E+02
              0.104476040572959E+03
             -0.194713495422416E+02
             -0.123021740495514E+02
             -0.538855296690940E+01
              0.107270576015357E+02
              0.272227564343639E+02
              0.780398435997370E+01
              0.305179432040956E+02
             -0.187896617043950E+02
             -0.303513938142886E+02
             -0.417547644944052E+02
             -0.476439888441143E+02
              0.463709558266561E+02
              0.126745378667577E+02
              0.387303979481811E+02
              0.133373287641916E+02
              0.855016554522596E+02
              0.156341082495545E+02
             -0.845556780472530E+02
             -0.334232644871716E+02
              0.133666675687985E+02
             -0.302642346352802E+02
              0.626131114696795E+02
             -0.884294730320494E+01
              0.148633292696678E+02
              0.496886587311918E+02
             -0.706797007141413E+02
              0.149632292119790E+03
              0.208567387359473E+02
              0.271244965044410E+02
              0.347354920150105E+02
              0.103584977469150E+02
             -0.156903119961828E+01
              0.358201046253320E+02
             -0.356837215955907E+02
              0.772695618028055E+02
              0.684335531803065E+02
             -0.405711140324218E+02
              0.149306822762525E+02
              0.669649895150574E+02
             -0.223790602886476E+02
              0.154305776062940E+02
              0.434822702772470E+02
              0.421949581955591E+02
             -0.784197821193633E+02
             -0.152571761931218E+02
             -0.355865990508242E+02
             -0.147430889901568E+01
             -0.765322333980812E+01
             -0.544726317389109E+01
             -0.180582500519498E+02
             -0.293520125025934E+02
              0.633057571818361E+01
              0.111660837615134E+02
              0.535256054122784E+02
             -0.389974335702032E+02
              0.374106958621463E+02
              0.438177568884450E+02
             -0.186461395835080E+02
              0.871616067493694E+02
             -0.697437014789134E+02
             -0.103112140458200E+03
             -0.659374531614704E+01
             -0.267751157888165E+01
              0.385842517117203E+01
              0.788980935794750E+02
             -0.107002878573275E+02
              0.416409901962737E+02
              0.443247450154741E+02
              0.385124220428884E+02
             -0.995242492142245E+01
              0.627181305784283E+02
             -0.133542915317071E+02
             -0.307134875129183E+02
             -0.479053270875084E+02
              0.587658193197146E+01
              0.369263241591847E+02
             -0.602486260322664E+01
              0.392783309838650E+02
             -0.176002516813588E+01
              0.654837846318785E+02
              0.187218988898319E+02
              0.998451941848784E+01
             -0.121753861388336E+02
              0.331926555655159E+02
              0.362408061502914E+02
              0.232581893342669E+02
             -0.511963775761672E+00
             -0.550191866131776E+02
              0.260542177457700E+02
              0.175070402202657E+02
              0.402340141003761E+02
              0.271994453775424E+02
              0.372290982023537E+02
             -0.604365482668101E+01
              0.250854302501145E+02
             -0.298501536104363E+02
             -0.196720469226295E+01
             -0.568867577769796E+02
             -0.307782888105015E+02
              0.378496400796652E+02
             -0.934996141512553E+02
              0.294202193251257E+02
              0.183931301260661E+02
              0.839658458676519E+02
             -0.300348074262620E+02
              0.329222886155577E+02
             -0.137724549934416E+02
             -0.463714588727499E+02
             -0.761187152400657E+02
             -0.525497099145062E+01
             -0.859324240043143E+02
              0.199667585533731E+02
             -0.247301556784464E+02
              0.305628088593469E+02
              0.236885917271409E+02
             -0.240909414101197E+02
             -0.265153219218247E+02
              0.390701253279250E+02
             -0.587878388587189E+02
             -0.116588675343985E+02
             -0.195973558238841E+02
              0.212541572028318E+02
             -0.890928156533312E+01
              0.362359028835735E+01
             -0.200490324391074E+02
              0.558441952111398E+02
             -0.439266143427626E+02
              0.786272121013997E+01
              0.584924728135026E+02
             -0.323118751735272E+02
              0.360172207538398E+01
             -0.881682016130321E+01
             -0.668927194711528E+02
             -0.482276899894401E+02
             -0.860465572481232E+01
              0.240623064382438E+02
              0.302205595596847E+02
              0.858745040580743E+01
             -0.415009210082167E+01
              0.151741677507903E+02
             -0.439628374908827E+02
              0.333095622846048E+01
             -0.530787301291876E+02
             -0.324672418868545E+02
              0.474411376029137E+02
             -0.294980916181462E+02
              0.622005214168320E+02
             -0.214533824364855E+02
              0.353440352252513E+02
              0.241548586381125E+02
             -0.643661761049457E+02
             -0.280235477585622E+02
              0.933074164207184E+01
             -0.371576063375133E+02
             -0.339396485442662E+02
             -0.829560042732355E+02
             -0.538937398095113E+02
             -0.510076339761295E+02
             -0.415260949020613E+02
             -0.991569998436944E+00
              0.994956486501016E+01
              0.103840661231936E+01
              0.153127181204883E+02
             -0.549007395837068E+02
              0.141713498709461E+02
              0.256582944436599E+02
             -0.666356968296393E+02
             -0.701602736520554E+02
             -0.431103426141561E+02
             -0.171826260512515E+02
              0.178339243782103E+02
              0.455443966998837E+01
             -0.425660889858617E+02
              0.366020410272723E+02
             -0.216069265897074E+02
              0.517171383464386E+02
             -0.886707852303673E+02
              0.597347770738347E+02
             -0.212775060952049E+01
             -0.368178456673900E+02
             -0.216216700941682E+02
              0.471212115746829E+01
              0.374380183449991E+02
             -0.755796869449845E+02
             -0.120708172251360E+02
             -0.216532284688179E+02
              0.510769831181567E+02
              0.864307501826447E+02
             -0.964663578154310E+02
              0.943478955182942E+02
              0.467436996661573E+02
             -0.725015153588655E+02
             -0.366342319549085E+02
              0.751468790264024E+02
              0.631671966969699E+02
             -0.180938175412731E+02
             -0.463370753143300E+01
              0.731468287911206E+01
              0.648660944550305E+02
             -0.508077591818319E+02
              0.158278311280727E+02
             -0.472062368751101E+01
              0.347542096185400E+02
             -0.746513004951849E+02
             -0.647722948809263E+01
             -0.350837245988100E+02
              0.460384351718294E+02
              0.468502834789085E+02
             -0.861392644184805E+02
             -0.486740793510116E+02
             -0.256107167430332E+02
             -0.339199015522312E+02
             -0.109219257004906E+02
             -0.242618467475770E+02
              0.427122251642259E+02
              0.400829339251703E+02
             -0.563866024926926E+01
             -0.416049684359778E+02
             -0.850009233681551E+02
              0.442958069282142E+02
             -0.522944859244557E+02
             -0.312878726237763E+02
              0.546534475324435E+01
             -0.322384905708323E+02
             -0.397706766606307E+02
             -0.240001960948473E+02
             -0.385147136749816E+02
             -0.270645557587436E+02
             -0.482213923468641E+02
              0.563479420393911E+02
              0.637682668623483E+02
             -0.172143542023491E+01
             -0.261047271594501E+02
             -0.625788279913297E+01
              0.440913828540574E+02
             -0.867287048975659E+02
             -0.146098329968687E+02
              0.523399211668784E+02
              0.663339013267311E+02
             -0.244371227367206E+02
              0.913059912143422E+01
              0.523173934981726E+02
              0.198052920092893E+02
             -0.827545069168025E+01
             -0.452914972703717E+02
[...]
              0.283332657716131E+02
              0.141702465611535E+03
              0.242112518897924E+02
              0.122422909233031E+02
             -0.464021323410703E+02
             -0.637242518817391E+02
             -0.188852448850012E+02
              0.329352572894376E+02
             -0.426402793907869E+01
              0.189795612722640E+02
              0.335951388974757E+02
             -0.586016591862227E+02
              0.222149260737501E+02
              0.581688639357137E+02
              0.552450301908951E+02
             -0.419574718090013E+01
             -0.136982399643614E+01
             -0.993048185658094E+01
             -0.481937414587370E+02
             -0.674408682653801E+02
              0.784799385784775E+02
             -0.522514637573437E+01
             -0.587331701885950E+02
              0.171365718210313E+01
             -0.205075940956464E+02
              0.937722613790426E+02
             -0.216408294769517E+02
             -0.353333503525435E+02
              0.334989213342595E+02
             -0.145596201265062E+02
              0.389204343668571E+02
             -0.236893135567533E+01
              0.101000866107488E+03
              0.489283768196589E+02
             -0.510339501416895E+01
             -0.321672579549594E+02
              0.232025889649723E+02
             -0.528038390201266E+02
             -0.127850807662123E+02
              0.585208998558671E+02
             -0.287448515542183E+02
             -0.437994029181202E+02
             -0.223079401116322E+02
              0.518305074101141E+02
              0.124679698743977E+02
             -0.848107666023253E+02
              0.303575885392487E+02
              0.151862101078288E+02
              0.576106129313652E+01
             -0.513108297558400E+02
             -0.377502705592252E+01
              0.322822874912199E+02
              0.512324152892317E+02
              0.632074954351087E+02
              0.228754555080633E+02
              0.760916378578372E+00
             -0.497608510452809E+02
             -0.509622972993860E+02
             -0.747239978534745E+02
             -0.614197544943943E+01
              0.308717478533784E+02
             -0.378180082615495E+01
              0.546477927726562E+02
             -0.317670694477379E+02
              0.166398486516756E+02
             -0.102538968931802E+02
             -0.289271927920638E+02
              0.585104764536700E+02
              0.791826610479507E+01
              0.603683721964351E+02
              0.507661154821130E+01
              0.264796243088414E+02
             -0.192620593887920E+02
              0.585604715217007E+02
             -0.111322015865251E+02
             -0.123696391945085E+00
             -0.789489239339658E+02
             -0.128249511556198E+02
              0.718453521339506E+02
              0.672555229931878E+02
              0.251659850246435E+02
             -0.130274943491294E+02
              0.344090912250914E+01
             -0.173391089745061E+02
             -0.205421824645779E+01
              0.906995644979292E+02
              0.125298850587706E+01
             -0.190166677640959E+02
             -0.110652826231116E+03
             -0.552148122151002E+02
             -0.374667343862795E+02
             -0.657944712854845E+02
             -0.554980409692594E+02
             -0.681969070032602E+02
             -0.446687323547882E+02
             -0.410594306916004E+02
             -0.451511453592334E+02
              0.483069260995215E+02
             -0.293989338618700E+02
             -0.994532697254191E+02
              0.418468657266952E+02
             -0.259711093661997E+02
             -0.790164717673919E+02
              0.943010285251545E+02
             -0.219506676744138E+02
              0.227904495946340E+02
              0.454718708269996E+02
             -0.134966009582968E+01
              0.254226879455570E+02
              0.469957552230846E+01
              0.418392919851144E+00
             -0.150483296762667E+02
             -0.715002177553337E+02
              0.133067649662781E+02
             -0.129272954550409E+03
              0.623572445888476E+02
             -0.440231804653945E+02
             -0.162864584910197E+02
             -0.158086068973856E+02
              0.712875503643746E+01
             -0.227546756121080E+02
              0.296826558624557E+02
             -0.520081136953054E+02
              0.366838838308209E+02
              0.370461510402808E+02
              0.168273870637364E+02
              0.100428987743527E+02
              0.197608753931773E+02
              0.621192500416703E+01
              0.310050776876014E+02
             -0.797520449519305E+01
             -0.591692149129603E+02
              0.756151053907797E+01
             -0.152400804348168E+02
             -0.192436878203478E+01
              0.505766541888050E+02
             -0.826072192121374E+02
             -0.149953430312291E+01
              0.575023581174094E+00
              0.995102599566695E+01
              0.318144067535982E+02
             -0.123467324555618E+02
              0.835036764381198E+02
              0.487223419448103E+02
             -0.183068486653873E+02
             -0.955426525261248E+01
              0.105963589664364E+01
              0.768855569475597E+02
             -0.585786132964930E+02
             -0.105672314184437E+03
              0.308927669171986E+02
             -0.163004454668053E+02
             -0.139322979553819E+02
              0.130388458678637E+02
              0.767718085113571E+02
              0.463702476639069E+02
             -0.153296581597737E+02
             -0.502544601278544E+02
             -0.548890213888362E+01
              0.306118734586388E+02
             -0.111427046205192E+02
             -0.755126190138228E+02
             -0.270996122800145E+01
             -0.889073157366836E+02
             -0.475193794873072E+02
              0.767744867421710E+02
             -0.483073837978662E+02
             -0.635829547066362E+02
             -0.513801531786799E+02
             -0.349443377941867E+02
              0.340575631064425E+02
              0.820784256048755E+02
             -0.356803549808274E+01
              0.276317508524865E+02
             -0.183601340070148E+02
             -0.693326910297789E+02
              0.464562578495355E+02
             -0.444529398892113E+02
              0.321445516218304E+02
              0.375877483524085E+02
             -0.654235875992021E+01
              0.390031826778560E+02
              0.437953132682946E+02
              0.100563131452511E+03
             -0.155873905061981E+02
             -0.455657533074803E+02
             -0.612202081804149E+02
             -0.123824238829324E+02
             -0.232652577070081E+02
              0.102919648738036E+03
             -0.448577912726178E+02
              0.105108079986787E+02
              0.971211284693311E+01
             -0.264405275477013E+02
             -0.797974404896815E+02
             -0.698290846646296E+01
              0.978911350191981E+02
              0.937081166366178E+01
              0.807990600830124E+01
             -0.526508907531995E+02
             -0.604946483128747E+02
             -0.562627863939477E+01
              0.499992912780609E+02
             -0.221617877585140E+02
              0.107873659480285E+03
             -0.435132010866503E+02
              0.146149514614594E+02
             -0.223973365153764E+02
             -0.717891508965168E+02
              0.167522227176130E+01
             -0.501213049219775E+02
             -0.759941542893338E+02
              0.614782506164232E+01
              0.236391023529316E+01
              0.513642337326637E+02
              0.187023489553124E+02
             -0.323267582966941E+02
              0.229716158581696E+02
             -0.810137024034408E+02
             -0.521291341215966E+02
              0.900852392200899E+02
              0.142228060052117E+02
             -0.187943271793043E+02
             -0.352056501401553E+02
             -0.269079019908986E+01
             -0.586879150063680E+01
              0.829267000650150E+02
              0.417284957050770E+02
             -0.165944777628268E+02
             -0.121819891749013E+02
             -0.427210779109529E+02
             -0.200415699429503E+02
             -0.669377225342642E+02
              0.459158629324433E+02
              0.545619628978153E+01
              0.144785778267931E+02
              0.155982269337965E+02
             -0.561864657043269E+00
             -0.168253056706883E+02
             -0.307653441943458E+01
             -0.100330269831520E+03
             -0.229666193416130E+02
             -0.763977400037282E+01
             -0.947527544816703E+01
              0.545900938013174E+02
              0.623211594062273E+02
              0.164719789383079E+02
             -0.969658603139769E+02
              0.646944569761587E+02
             -0.214756904948084E+02
             -0.376627939882872E+02
             -0.863311089065697E+02
             -0.386550711139319E+02
              0.563956772439124E+02
              0.243880047171035E+02
              0.511741409454214E+01
              0.291930708286134E+02
             -0.564399218513181E+02
             -0.421851154310982E+02
              0.514714069244358E+02
              0.386794582446683E+02
              0.518398915617627E+02
             -0.121509865960064E+01
              0.684018468839372E+01
              0.568941734053320E+02
              0.961678206124635E+02
             -0.299975276629324E+02
              0.322420278924619E+02
             -0.118391373169762E+02
             -0.411667157700028E+02
             -0.313943490751962E+02
             -0.299856021141309E+02
             -0.131264970337916E+02
             -0.522921638188498E+02
             -0.216987723064980E+02
             -0.141024667106826E+03
              0.368582029906931E+02
              0.206577927762529E+02
             -0.393691387949110E+01
             -0.379564902283040E+02
             -0.203943955603085E+02
             -0.526329486911976E+02
              0.151031022670794E+02
              0.819190153792688E+02
             -0.252032468178336E+02
             -0.162819189820369E+02
              0.237855138618121E+02
             -0.488882600160050E+02
              0.879564029899935E+02
              0.154217971686597E+02
              0.226195850821650E+02
              0.489719021420736E+02
              0.320719433337979E+01
              0.541554564044523E+02
              0.142859952928935E+02
             -0.106438070919533E+02
              0.731011633047362E+01
              0.798058374308596E+00
              0.726522085921105E+02
              0.100972520320695E+02
              0.120330629166772E+02
             -0.129922122975203E+02
              0.132175655533144E+02
             -0.910277522354407E+02
             -0.325360920676598E+02
             -0.456950118264758E+02
              0.484705435357014E+02
             -0.290799668488133E+02
             -0.657831304813130E+02
              0.537800158185200E+02
             -0.121876739844311E+02
              0.439610467695088E+02
             -0.897693235509167E+02
              0.231736650743565E+02
              0.856637686944077E+01
              0.583134234847762E+01
             -0.832156738515914E+01
             -0.902823265657230E+01
              0.478899392970508E+02
              0.199343612555066E+01
             -0.474606960844978E+02
             -0.175949184268799E+02
              0.276366038551064E+02
             -0.117806304532997E+03
             -0.928785308169709E+02
              0.396420812540754E+01
              0.117536565974393E+02
             -0.412750512695684E+02
             -0.388042541093046E+01
              0.112004580682309E+03
              0.306125910206448E+02
             -0.571030569398732E+02
              0.924203400653698E+01
             -0.963584734460161E+01
              0.105508049768072E+02
             -0.337318923654015E+02
              0.195201473031123E+02
              0.284339096922872E+02
             -0.299033482243237E+01
              0.108064099439404E+03
             -0.140167477994176E+02
             -0.315572075917902E+02
              0.142698616139412E+02
              0.466163282330290E+02
             -0.355413625690022E+02
             -0.317486878929088E+01
              0.963790308986643E+02
             -0.464598728286080E+01
              0.621076885292113E+02
              0.135263235606758E+02
             -0.901372622174928E+01
             -0.305124987935504E+02
              0.565994493551962E+02
             -0.513625809195035E+02
             -0.220264054081633E+01
             -0.169871670901784E+02
             -0.404756551366340E+02
              0.184756164794911E+02
              0.238976780080983E+02
              0.115972558851113E+02
              0.728256099646273E+00
             -0.384141454435688E+02
              0.215216849555443E+02
             -0.674139395115219E+01
             -0.246290083131373E+02
             -0.210387560211341E+02
              0.203099646313788E+02
             -0.595699695714791E+01
             -0.348798888990211E+02
             -0.106512817989454E+03
              0.102884062309082E+02
              0.248499883698729E+02
             -0.386826689695812E+02
             -0.210777980039608E+02
              0.806176708050801E+02
              0.650548547399271E+01
              0.310407503406585E+02
              0.390211790083248E+01
              0.321489625645193E+02
              0.645618381538918E+01
             -0.372544261482208E+02
             -0.232096492603469E+01
              0.875601637607429E+01
              0.273551482013019E+02
              0.781036056659701E+02
              0.506963900041299E+02
              0.176234223402503E+00
              0.168950549914925E+02
              0.612570802641654E+02
              0.235636160443363E+02
             -0.752108162554592E+02
             -0.273428575030191E+02
              0.150839909039590E+02
              0.561454369008845E+01
              0.254801137526690E+02
             -0.547234208324346E+02
              0.898137653704637E+01
              0.385505100823315E+02
              0.497530461665806E+02
             -0.434502122187174E+02
             -0.690346505159783E+01
             -0.207618130077998E+01
             -0.133609370409546E+02
             -0.365262996368245E+02
             -0.215068097736698E+02
             -0.202342680086421E+01
              0.792065461866235E+01
              0.420928910284926E+02
             -0.308009723774032E+02
              0.825348022217848E+02
              0.327099226047820E+02
              0.219456344505357E+02
              0.332648146942099E+02
              0.322840673359485E+02
              0.345841159971597E+02
              0.536635497033956E+02
             -0.433384207347331E+02
              0.618956648153175E+02
             -0.112147957926040E+03
              0.307071980032877E+02
             -0.106422263981699E+03
              0.853892328079298E+02
              0.689837772374940E+02
             -0.109805478691638E+02
             -0.492756348914036E+02
             -0.429129197906066E+02
             -0.622914544902569E+02
             -0.628102703481989E+02
              0.551199978294669E+02
              0.405078638769330E+02
              0.236586396831086E+02
              0.373505733495812E+02
              0.402803672868856E+02
             -0.381759775162094E+02
             -0.197717369530054E+02
              0.585932361789626E+02
             -0.115893415928676E+02
              0.551265152405560E+02
              0.698702528431946E+02
             -0.554128097906908E+01
             -0.705584169882684E+02
             -0.901348638922173E+00
             -0.247060394908922E+01
             -0.881494676299383E+01
             -0.179748910490065E+01
             -0.652322761372736E+02
             -0.210604775887254E+02
              0.538154776090931E+01
              0.897927379946967E+01
              0.468430309928606E+02
             -0.397394756241290E+02
              0.656817003595078E+02
             -0.424908825540670E+02
              0.210123270009595E+02
              0.349960506101998E+02
 
 BEEF-vdW xc energy contributions
           1 :   -782.184128179261     
           2 :    718.655483259913     
           3 :   -608.604984739221     
           4 :    478.937584434141     
           5 :   -357.078348700577     
           6 :    262.868358199533     
           7 :   -204.019523162315     
           8 :    176.054239302617     
           9 :   -166.312818653202     
          10 :    160.118834359176     
          11 :   -146.591258987105     
          12 :    121.899955497349     
          13 :   -89.1166543438735     
          14 :    55.2979182648179     
          15 :   -27.4848657573002     
          16 :    9.42894489770993     
          17 :  -0.314392505898468     
          18 :   -4.27269232590390     
          19 :    9.84237647960651     
          20 :   -20.2889164691414     
          21 :    36.2156710466754     
          22 :   -54.9501458627516     
          23 :    72.0684058915443     
          24 :   -83.6016758698352     
          25 :    87.8422346788028     
          26 :   -85.9557000672677     
          27 :    81.2122847789340     
          28 :   -77.3089546237742     
          29 :    76.6233813911747     
          30 :   -79.2146844646461     
          31 :   -85.7810105449714     
          32 :   -65.7649225644230     

     Writing output data file ./pwscf.save/
 
     init_run     :    354.25s CPU    358.76s WALL (       1 calls)
     electrons    :  14010.91s CPU  14138.23s WALL (       1 calls)
     forces       :    104.67s CPU    105.91s WALL (       1 calls)

     Called by init_run:
     wfcinit      :    306.76s CPU    310.27s WALL (       1 calls)
     potinit      :     44.40s CPU     44.75s WALL (       1 calls)
     hinit0       :      1.15s CPU      1.20s WALL (       1 calls)

     Called by electrons:
     c_bands      :  11612.18s CPU  11711.22s WALL (      20 calls)
     sum_band     :   1660.21s CPU   1672.36s WALL (      20 calls)
     v_of_rho     :    113.31s CPU    117.69s WALL (      21 calls)
     newd         :     32.65s CPU     44.58s WALL (      21 calls)
     PAW_pot      :    141.10s CPU    141.11s WALL (      21 calls)
     mix_rho      :    496.66s CPU    497.33s WALL (      20 calls)
     vdW_kernel   :     33.48s CPU     33.49s WALL (       1 calls)

     Called by c_bands:
     init_us_2    :     83.49s CPU     83.70s WALL (     546 calls)
     cegterg      :  10774.67s CPU  10873.49s WALL (     260 calls)

     Called by *egterg:
     cdiaghg      :    101.96s CPU    102.00s WALL (    1531 calls)
     h_psi        :   6988.75s CPU   7023.09s WALL (    1544 calls)
     s_psi        :   1142.51s CPU   1142.54s WALL (    1544 calls)
     g_psi        :     16.96s CPU     16.97s WALL (    1271 calls)

     Called by h_psi:
     h_psi:calbec :   1051.90s CPU   1051.98s WALL (    1544 calls)
     vloc_psi     :   4767.47s CPU   4768.85s WALL (    1544 calls)
     add_vuspsi   :   1141.69s CPU   1141.71s WALL (    1544 calls)

     General routines
     calbec       :   1544.48s CPU   1544.58s WALL (    1856 calls)
     fft          :     53.06s CPU     53.08s WALL (    3280 calls)
     ffts         :    159.05s CPU    159.07s WALL (   10335 calls)
     fftw         :   4859.98s CPU   4860.85s WALL (  331470 calls)
 
     Parallel routines
 
     PWSCF        :      4h 3m CPU      4h 5m WALL

 
   This run was terminated on:  20:40:58  20May2022            

=------------------------------------------------------------------------------=
   JOB DONE.
=------------------------------------------------------------------------------=
