
     Program PWSCF v.6.7MaX starts on 20May2022 at 16:34:13 

     This program is part of the open-source Quantum ESPRESSO suite
     for quantum simulation of materials; please cite
         "P. Giannozzi et al., J. Phys.:Condens. Matter 21 395502 (2009);
         "P. Giannozzi et al., J. Phys.:Condens. Matter 29 465901 (2017);
          URL http://www.quantum-espresso.org", 
     in publications or presentations arising from this work. More details at
     http://www.quantum-espresso.org/quote

     Parallel version (MPI), running on     1 processors

     MPI processes distributed on     1 nodes
     Reading input from ccch2-bi-ensemble.in
Warning: card &CELL ignored
Warning: card / ignored

     Current dimensions of program PWSCF are:
     Max number of different atomic species (ntypx) = 10
     Max number of k-points (npk) =  40000
     Max angular momentum in pseudopotentials (lmaxx) =  3
     file Pt.pbe-n-kjpaw_psl.1.0.0.UPF: wavefunction(s)  6S 5D renormalized
     file C.pbe-n-kjpaw_psl.1.0.0.UPF: wavefunction(s)  2S 2P renormalized
     file H.pbe-kjpaw_psl.1.0.0.UPF: wavefunction(s)  1S renormalized

     **************************************************************************
     Initializing libbeef V0.1.2 with the BEEF-vdW functional.
     Citation: Wellendorff et al., PRB 85, 235149 (2012).
     **************************************************************************


     IMPORTANT: XC functional enforced from input :
     Exchange-correlation= BEEF-VDW
                           (   1   4  43  14   2   0   0)
     Any further DFT definition will be discarded
     Please, verify this is what you really want


     Subspace diagonalization in iterative solution of the eigenvalue problem:
     a serial algorithm will be used

 
     G-vector sticks info
     --------------------
     sticks:   dense  smooth     PW     G-vecs:    dense   smooth      PW
     Sum        4267    4267   1159               703767   703767   99339
 


     bravais-lattice index     =            0
     lattice parameter (alat)  =      16.0349  a.u.
     unit-cell volume          =   11204.0590 (a.u.)^3
     number of atoms/cell      =           41
     number of atomic types    =            3
     number of electrons       =       374.00
     number of Kohn-Sham states=          224
     kinetic-energy cutoff     =      60.0000  Ry
     charge density cutoff     =     240.0000  Ry
     scf convergence threshold =      1.0E-06
     mixing beta               =       0.7000
     number of iterations used =            8  local-TF  mixing
     Exchange-correlation= BEEF-VDW
                           (   1   4  43  14   2   0   0)

     celldm(1)=  16.034858  celldm(2)=   0.000000  celldm(3)=   0.000000
     celldm(4)=   0.000000  celldm(5)=   0.000000  celldm(6)=   0.000000

     crystal axes: (cart. coord. in units of alat)
               a(1) = (   1.000000   0.000000   0.000000 )  
               a(2) = (   0.500000   0.866025   0.000000 )  
               a(3) = (   0.000000   0.000000   3.137975 )  

     reciprocal axes: (cart. coord. in units 2 pi/alat)
               b(1) = (  1.000000 -0.577350  0.000000 )  
               b(2) = (  0.000000  1.154701  0.000000 )  
               b(3) = (  0.000000  0.000000  0.318677 )  


     PseudoPot. # 1 for Pt read from file:
     /users/bkreitz1/quantum-espresso/potentials/Pt.pbe-n-kjpaw_psl.1.0.0.UPF
     MD5 check sum: 04dc8a03c51ece93fc7b5889c2958091
     Pseudo is Projector augmented-wave + core cor, Zval = 10.0
     Generated using 'atomic' code by A. Dal Corso  v.6.7MaX
     Shape of augmentation charge: PSQ
     Using radial grid of 1277 points,  6 beta functions with: 
                l(1) =   0
                l(2) =   0
                l(3) =   1
                l(4) =   1
                l(5) =   2
                l(6) =   2
     Q(r) pseudized with 0 coefficients 


     PseudoPot. # 2 for C  read from file:
     /users/bkreitz1/quantum-espresso/potentials/C.pbe-n-kjpaw_psl.1.0.0.UPF
     MD5 check sum: a169b0ebad56f5ec0d79c4633f80bf22
     Pseudo is Projector augmented-wave + core cor, Zval =  4.0
     Generated using 'atomic' code by A. Dal Corso  v.6.7MaX
     Shape of augmentation charge: PSQ
     Using radial grid of 1073 points,  4 beta functions with: 
                l(1) =   0
                l(2) =   0
                l(3) =   1
                l(4) =   1
     Q(r) pseudized with 0 coefficients 


     PseudoPot. # 3 for H  read from file:
     /users/bkreitz1/quantum-espresso/potentials/H.pbe-kjpaw_psl.1.0.0.UPF
     MD5 check sum: ae98473e6dc62675f0d0baffdab24f65
     Pseudo is Projector augmented-wave, Zval =  1.0
     Generated using 'atomic' code by A. Dal Corso  v.6.7MaX
     Shape of augmentation charge: PSQ
     Using radial grid of  929 points,  2 beta functions with: 
                l(1) =   0
                l(2) =   0
     Q(r) pseudized with 0 coefficients 


     atomic species   valence    mass     pseudopotential
        Pt            10.00   195.08400     Pt( 1.00)
        C              4.00    12.01100     C ( 1.00)
        H              1.00     1.00800     H ( 1.00)

     No symmetry found



   Cartesian axes

     site n.     atom                  positions (alat units)
         1           Pt  tau(   1) = (   0.0000000   0.0000000   1.0017346  )
         2           Pt  tau(   2) = (   0.3333333   0.0000000   1.0017346  )
         3           Pt  tau(   3) = (   0.6666667   0.0000000   1.0017346  )
         4           Pt  tau(   4) = (   0.1666667   0.2886751   1.0017346  )
         5           Pt  tau(   5) = (   0.5000000   0.2886751   1.0017346  )
         6           Pt  tau(   6) = (   0.8333333   0.2886751   1.0017346  )
         7           Pt  tau(   7) = (   0.3333333   0.5773503   1.0017346  )
         8           Pt  tau(   8) = (   0.6666667   0.5773503   1.0017346  )
         9           Pt  tau(   9) = (   1.0000000   0.5773503   1.0017346  )
        10           Pt  tau(  10) = (   0.1666667   0.0962250   1.2739001  )
        11           Pt  tau(  11) = (   0.5000000   0.0962250   1.2739001  )
        12           Pt  tau(  12) = (   0.8333333   0.0962250   1.2739001  )
        13           Pt  tau(  13) = (   0.3333333   0.3849002   1.2739001  )
        14           Pt  tau(  14) = (   0.6666667   0.3849002   1.2739001  )
        15           Pt  tau(  15) = (   1.0000000   0.3849002   1.2739001  )
        16           Pt  tau(  16) = (   0.5000000   0.6735753   1.2739001  )
        17           Pt  tau(  17) = (   0.8333333   0.6735753   1.2739001  )
        18           Pt  tau(  18) = (   1.1666667   0.6735753   1.2739001  )
        19           Pt  tau(  19) = (  -0.0025794   0.1932948   1.5453585  )
        20           Pt  tau(  20) = (   0.3313782   0.1909282   1.5394135  )
        21           Pt  tau(  21) = (   0.6666151   0.1935987   1.5465394  )
        22           Pt  tau(  22) = (   0.1667436   0.4819521   1.5408842  )
        23           Pt  tau(  23) = (   0.4992827   0.4837935   1.5449724  )
        24           Pt  tau(  24) = (   0.8328355   0.4824681   1.5458213  )
        25           Pt  tau(  25) = (   0.3292983   0.7738794   1.5483756  )
        26           Pt  tau(  26) = (   0.6652318   0.7649272   1.5477703  )
        27           Pt  tau(  27) = (   1.0020534   0.7726780   1.5456745  )
        28           Pt  tau(  28) = (   0.0046558  -0.0048823   1.8207699  )
        29           Pt  tau(  29) = (   0.3307452  -0.0036822   1.8172466  )
        30           Pt  tau(  30) = (   0.6686945   0.0011152   1.8545929  )
        31           Pt  tau(  31) = (   0.1691524   0.2881078   1.8145761  )
        32           Pt  tau(  32) = (   0.4831970   0.2923602   1.8108145  )
        33           Pt  tau(  33) = (   0.8568766   0.2878475   1.8244634  )
        34           Pt  tau(  34) = (   0.3281459   0.5841641   1.8168938  )
        35           Pt  tau(  35) = (   0.6654441   0.5801847   1.8436389  )
        36           Pt  tau(  36) = (   1.0044448   0.5831638   1.8135544  )
        37           C   tau(  37) = (   0.6423271   0.2084538   1.9612385  )
        38           C   tau(  38) = (   0.7175253   0.3439304   2.0106950  )
        39           C   tau(  39) = (   0.6962628   0.4935189   2.0836006  )
        40           H   tau(  40) = (   0.5904070   0.5094851   2.1541471  )
        41           H   tau(  41) = (   0.8009260   0.5512682   2.1300915  )

     number of k points=    13  Marzari-Vanderbilt smearing, width (Ry)=  0.0200
                       cart. coord. in units 2pi/alat
        k(    1) = (   0.0000000   0.0000000   0.0000000), wk =   0.0800000
        k(    2) = (   0.0000000   0.2309401   0.0000000), wk =   0.1600000
        k(    3) = (   0.0000000   0.4618802   0.0000000), wk =   0.1600000
        k(    4) = (   0.2000000  -0.1154701   0.0000000), wk =   0.1600000
        k(    5) = (   0.2000000   0.1154701   0.0000000), wk =   0.1600000
        k(    6) = (   0.2000000   0.3464102   0.0000000), wk =   0.1600000
        k(    7) = (   0.2000000  -0.5773503   0.0000000), wk =   0.1600000
        k(    8) = (   0.2000000  -0.3464102   0.0000000), wk =   0.1600000
        k(    9) = (   0.4000000  -0.2309401   0.0000000), wk =   0.1600000
        k(   10) = (   0.4000000  -0.0000000   0.0000000), wk =   0.1600000
        k(   11) = (   0.4000000   0.2309401   0.0000000), wk =   0.1600000
        k(   12) = (   0.4000000  -0.6928203   0.0000000), wk =   0.1600000
        k(   13) = (   0.4000000  -0.4618802   0.0000000), wk =   0.1600000

     Dense  grid:   703767 G-vectors     FFT dimensions: (  80,  80, 250)

     Estimated max dynamical RAM per process >       8.50 GB

     Check: negative core charge=   -0.000002

     Initial potential from superposition of free atoms

     starting charge  373.99375, renormalised to  374.00000

     negative rho (up, down):  1.150E-02 0.000E+00


     %%%%%%%%%%%%%%%%%%%%%%%%%%%%%%%%%%%%%%%%%%%%%%%%%%%%%%%%%%%%%%%%%%%%%%%%
     %                                                                      %
     % You are using vdW-DF, which was implemented by the Thonhauser group. %
     % Please cite the following two papers that made this development      %
     % possible and the two reviews that describe the various versions:     %
     %                                                                      %
     %   T. Thonhauser et al., PRL 115, 136402 (2015).                      %
     %   T. Thonhauser et al., PRB 76, 125112 (2007).                       %
     %   K. Berland et al., Rep. Prog. Phys. 78, 066501 (2015).             %
     %   D.C. Langreth et al., J. Phys.: Condens. Matter 21, 084203 (2009). %
     %                                                                      %
     %                                                                      %
     % If you are calculating the stress with vdW-DF, please also cite:     %
     %                                                                      %
     %   R. Sabatini et al., J. Phys.: Condens. Matter 24, 424209 (2012).   %
     %                                                                      %
     %%%%%%%%%%%%%%%%%%%%%%%%%%%%%%%%%%%%%%%%%%%%%%%%%%%%%%%%%%%%%%%%%%%%%%%%


     Starting wfcs are  338 randomized atomic wfcs
     Checking if some PAW data can be deallocated... 

     total cpu time spent up to now is      304.3 secs

     Self-consistent Calculation

     iteration #  1     ecut=    60.00 Ry     beta= 0.70
     Davidson diagonalization with overlap
     ethr =  1.00E-02,  avg # of iterations =  2.0

     Threshold (ethr) on eigenvalues was too large:
     Diagonalizing with lowered threshold

     Davidson diagonalization with overlap
     ethr =  8.70E-04,  avg # of iterations =  2.2

     negative rho (up, down):  1.303E-02 0.000E+00

     total cpu time spent up to now is     1432.4 secs

     total energy              =  -27813.16866496 Ry
     estimated scf accuracy    <       3.54458666 Ry

     iteration #  2     ecut=    60.00 Ry     beta= 0.70
     Davidson diagonalization with overlap
     ethr =  9.48E-04,  avg # of iterations =  2.0

     negative rho (up, down):  1.077E-02 0.000E+00

     total cpu time spent up to now is     1963.1 secs

     total energy              =  -27813.44293237 Ry
     estimated scf accuracy    <       1.12743228 Ry

     iteration #  3     ecut=    60.00 Ry     beta= 0.70
     Davidson diagonalization with overlap
     ethr =  3.01E-04,  avg # of iterations =  2.4

     negative rho (up, down):  8.597E-03 0.000E+00

     total cpu time spent up to now is     2506.4 secs

     total energy              =  -27813.51839979 Ry
     estimated scf accuracy    <       0.55403154 Ry

     iteration #  4     ecut=    60.00 Ry     beta= 0.70
     Davidson diagonalization with overlap
     ethr =  1.48E-04,  avg # of iterations =  9.9

     negative rho (up, down):  6.433E-03 0.000E+00

     total cpu time spent up to now is     3121.3 secs

     total energy              =  -27813.55735599 Ry
     estimated scf accuracy    <       0.11462195 Ry

     iteration #  5     ecut=    60.00 Ry     beta= 0.70
     Davidson diagonalization with overlap
     c_bands:  1 eigenvalues not converged
     c_bands:  1 eigenvalues not converged
     ethr =  3.06E-05,  avg # of iterations = 10.6

     negative rho (up, down):  4.830E-03 0.000E+00

     total cpu time spent up to now is     3937.6 secs

     total energy              =  -27813.58274976 Ry
     estimated scf accuracy    <       0.08823095 Ry

     iteration #  6     ecut=    60.00 Ry     beta= 0.70
     Davidson diagonalization with overlap
     ethr =  2.36E-05,  avg # of iterations =  1.8

     negative rho (up, down):  4.038E-03 0.000E+00

     total cpu time spent up to now is     4444.0 secs

     total energy              =  -27813.58566208 Ry
     estimated scf accuracy    <       0.00789043 Ry

     iteration #  7     ecut=    60.00 Ry     beta= 0.70
     Davidson diagonalization with overlap
     c_bands:  2 eigenvalues not converged
     c_bands:  1 eigenvalues not converged
     c_bands:  1 eigenvalues not converged
     c_bands:  1 eigenvalues not converged
     c_bands:  2 eigenvalues not converged
     c_bands:  1 eigenvalues not converged
     ethr =  2.11E-06,  avg # of iterations = 17.7

     negative rho (up, down):  3.750E-03 0.000E+00

     total cpu time spent up to now is     5337.4 secs

     total energy              =  -27813.58755790 Ry
     estimated scf accuracy    <       0.00472475 Ry

     iteration #  8     ecut=    60.00 Ry     beta= 0.70
     Davidson diagonalization with overlap
     c_bands:  1 eigenvalues not converged
     c_bands:  1 eigenvalues not converged
     c_bands:  1 eigenvalues not converged
     ethr =  1.26E-06,  avg # of iterations =  7.8

     negative rho (up, down):  3.768E-03 0.000E+00

     total cpu time spent up to now is     5893.9 secs

     total energy              =  -27813.58789276 Ry
     estimated scf accuracy    <       0.00163991 Ry

     iteration #  9     ecut=    60.00 Ry     beta= 0.70
     Davidson diagonalization with overlap
     c_bands:  1 eigenvalues not converged
     c_bands:  1 eigenvalues not converged
     ethr =  4.38E-07,  avg # of iterations =  6.1

     negative rho (up, down):  4.122E-03 0.000E+00

     total cpu time spent up to now is     6459.7 secs

     total energy              =  -27813.58802961 Ry
     estimated scf accuracy    <       0.00131329 Ry

     iteration # 10     ecut=    60.00 Ry     beta= 0.70
     Davidson diagonalization with overlap
     c_bands:  1 eigenvalues not converged
     c_bands:  1 eigenvalues not converged
     ethr =  3.51E-07,  avg # of iterations =  5.6

     negative rho (up, down):  4.915E-03 0.000E+00

     total cpu time spent up to now is     6990.7 secs

     total energy              =  -27813.58806576 Ry
     estimated scf accuracy    <       0.00112763 Ry

     iteration # 11     ecut=    60.00 Ry     beta= 0.70
     Davidson diagonalization with overlap
     c_bands:  1 eigenvalues not converged
     c_bands:  1 eigenvalues not converged
     ethr =  3.02E-07,  avg # of iterations =  8.9

     negative rho (up, down):  6.935E-03 0.000E+00

     total cpu time spent up to now is     7558.5 secs

     total energy              =  -27813.58806033 Ry
     estimated scf accuracy    <       0.00075834 Ry

     iteration # 12     ecut=    60.00 Ry     beta= 0.70
     Davidson diagonalization with overlap
     ethr =  2.03E-07,  avg # of iterations =  2.9

     negative rho (up, down):  8.134E-03 0.000E+00

     total cpu time spent up to now is     8068.3 secs

     total energy              =  -27813.58806585 Ry
     estimated scf accuracy    <       0.00038659 Ry

     iteration # 13     ecut=    60.00 Ry     beta= 0.70
     Davidson diagonalization with overlap
     ethr =  1.03E-07,  avg # of iterations =  1.2

     negative rho (up, down):  1.043E-02 0.000E+00

     total cpu time spent up to now is     8544.2 secs

     total energy              =  -27813.58808833 Ry
     estimated scf accuracy    <       0.00012536 Ry

     iteration # 14     ecut=    60.00 Ry     beta= 0.70
     Davidson diagonalization with overlap
     ethr =  3.35E-08,  avg # of iterations =  3.1

     negative rho (up, down):  9.735E-03 0.000E+00

     total cpu time spent up to now is     9105.3 secs

     total energy              =  -27813.58811167 Ry
     estimated scf accuracy    <       0.00006829 Ry

     iteration # 15     ecut=    60.00 Ry     beta= 0.70
     Davidson diagonalization with overlap
     ethr =  1.83E-08,  avg # of iterations =  2.0

     negative rho (up, down):  1.159E-02 0.000E+00

     total cpu time spent up to now is     9634.2 secs

     total energy              =  -27813.58811343 Ry
     estimated scf accuracy    <       0.00003948 Ry

     iteration # 16     ecut=    60.00 Ry     beta= 0.70
     Davidson diagonalization with overlap
     ethr =  1.06E-08,  avg # of iterations =  2.0

     negative rho (up, down):  1.205E-02 0.000E+00

     total cpu time spent up to now is    10180.9 secs

     total energy              =  -27813.58811657 Ry
     estimated scf accuracy    <       0.00001231 Ry

     iteration # 17     ecut=    60.00 Ry     beta= 0.70
     Davidson diagonalization with overlap
     ethr =  3.29E-09,  avg # of iterations =  4.5

     negative rho (up, down):  1.233E-02 0.000E+00

     total cpu time spent up to now is    10906.7 secs

     total energy              =  -27813.58811902 Ry
     estimated scf accuracy    <       0.00000313 Ry

     iteration # 18     ecut=    60.00 Ry     beta= 0.70
     Davidson diagonalization with overlap
     ethr =  8.37E-10,  avg # of iterations =  3.9

     negative rho (up, down):  1.249E-02 0.000E+00

     total cpu time spent up to now is    11567.1 secs

     total energy              =  -27813.58811920 Ry
     estimated scf accuracy    <       0.00000156 Ry

     iteration # 19     ecut=    60.00 Ry     beta= 0.70
     Davidson diagonalization with overlap
     ethr =  4.18E-10,  avg # of iterations =  2.0

     negative rho (up, down):  1.261E-02 0.000E+00

     total cpu time spent up to now is    12117.2 secs

     total energy              =  -27813.58811907 Ry
     estimated scf accuracy    <       0.00000136 Ry

     iteration # 20     ecut=    60.00 Ry     beta= 0.70
     Davidson diagonalization with overlap
     ethr =  3.65E-10,  avg # of iterations =  1.0

     negative rho (up, down):  1.262E-02 0.000E+00

     total cpu time spent up to now is    12592.6 secs

     End of self-consistent calculation

          k = 0.0000 0.0000 0.0000 ( 88025 PWs)   bands (ev):

   -14.3181 -11.5001  -7.0354  -6.6376  -5.6165  -5.2807  -5.0875  -4.5847
    -4.3236  -4.2726  -4.2660  -4.2467  -4.2374  -4.1957  -4.1454  -4.0128
    -3.7865  -3.7360  -3.6971  -3.6880  -3.6540  -3.6014  -3.4403  -3.3710
    -3.3348  -3.2369  -3.1673  -3.1309  -3.1056  -3.0555  -3.0420  -3.0223
    -3.0029  -2.9685  -2.9084  -2.8982  -2.8619  -2.8482  -2.8310  -2.7796
    -2.7587  -2.7539  -2.7198  -2.7025  -2.6340  -2.5778  -2.4937  -2.3426
    -2.2910  -2.2139  -2.1932  -2.1702  -2.1614  -2.1376  -2.1125  -2.0548
    -2.0210  -1.9252  -1.9165  -1.8813  -1.8415  -1.6421  -1.5574  -1.5010
    -1.4478  -1.4308  -1.4044  -1.3738  -1.3162  -1.2904  -1.2769  -1.2402
    -1.2100  -1.1902  -1.1670  -1.1486  -1.1478  -1.1333  -1.1211  -1.0989
    -1.0804  -1.0666  -1.0577  -1.0426  -1.0205  -1.0005  -0.9766  -0.9595
    -0.9328  -0.9068  -0.8728  -0.8133  -0.7997  -0.7523  -0.7209  -0.7160
    -0.6868  -0.6797  -0.6759  -0.6459  -0.6274  -0.6017  -0.5644  -0.5160
    -0.5149  -0.5067  -0.4779  -0.4746  -0.4144  -0.3938  -0.3645  -0.3501
    -0.3152  -0.2587  -0.1853  -0.0654  -0.0229  -0.0079   0.0792   0.1351
     0.1581   0.1887   0.2463   0.2743   0.2805   0.3227   0.3402   0.3575
     0.3863   0.3888   0.3996   0.4114   0.4349   0.4785   0.5237   0.6221
     0.6598   0.6692   0.6894   0.7314   0.7935   0.8375   0.8596   0.8732
     0.8817   0.9071   0.9384   0.9507   0.9828   1.0101   1.0708   1.1171
     1.1500   1.1745   1.1943   1.2120   1.2406   1.2631   1.3190   1.3273
     1.3363   1.3491   1.3513   1.3730   1.3909   1.3931   1.4047   1.4146
     1.4255   1.4474   1.4794   1.5103   1.5403   1.5487   1.5798   1.5947
     1.5951   1.6259   1.6592   1.6749   1.6983   1.7047   1.7185   1.7282
     1.7351   1.7674   1.7835   1.8018   1.8217   1.8320   1.8876   1.8911
     1.9423   2.0313   2.0708   2.1002   2.1120   2.1576   2.1632   2.1900
     2.2203   2.3009   2.5234   2.6960   2.9378   3.0218   3.0429   3.3505
     3.4899   3.9934   4.8406   4.9189   5.2792   5.3375   5.6004   5.7329
     6.0994   6.2063   6.5236   6.8258   6.8768   6.9678   6.9979   7.0124

          k = 0.0000 0.2309 0.0000 ( 87892 PWs)   bands (ev):

   -14.3177 -11.5006  -7.0183  -6.5024  -5.5212  -5.2755  -5.0315  -4.7881
    -4.5009  -4.3629  -4.3203  -4.1317  -4.1067  -4.0255  -3.9911  -3.9368
    -3.8033  -3.7771  -3.7173  -3.6214  -3.6074  -3.5529  -3.3941  -3.3154
    -3.2828  -3.2434  -3.2072  -3.1518  -3.1383  -3.0833  -3.0546  -3.0162
    -3.0017  -2.9685  -2.9281  -2.9122  -2.8884  -2.8524  -2.8427  -2.7788
    -2.7339  -2.6949  -2.6683  -2.6167  -2.5198  -2.5028  -2.4395  -2.3577
    -2.3007  -2.2744  -2.2520  -2.2334  -2.1965  -2.1653  -2.1066  -2.0685
    -1.9972  -1.9479  -1.9184  -1.8899  -1.8586  -1.7095  -1.6371  -1.5892
    -1.5654  -1.5254  -1.5106  -1.4869  -1.4611  -1.4062  -1.3903  -1.3645
    -1.3308  -1.3091  -1.2550  -1.2290  -1.1949  -1.1806  -1.1566  -1.1255
    -1.1064  -1.0824  -1.0411  -1.0113  -0.9954  -0.9589  -0.9511  -0.9437
    -0.9107  -0.8913  -0.8638  -0.8506  -0.7960  -0.7844  -0.7546  -0.7393
    -0.7172  -0.6953  -0.6646  -0.6477  -0.6081  -0.5916  -0.5721  -0.5665
    -0.5559  -0.5455  -0.5204  -0.4865  -0.4466  -0.4094  -0.3571  -0.3261
    -0.2981  -0.2836  -0.2609  -0.2440  -0.2339  -0.2244  -0.1665  -0.0652
    -0.0134   0.0857   0.1109   0.1569   0.1654   0.1948   0.2295   0.2410
     0.3024   0.3574   0.3995   0.4454   0.4740   0.4948   0.5398   0.5707
     0.5937   0.6012   0.6317   0.6878   0.7203   0.7357   0.7718   0.7898
     0.8142   0.8664   0.9154   0.9347   0.9579   0.9743   0.9836   1.0304
     1.0725   1.1262   1.1503   1.1534   1.1674   1.2178   1.2473   1.3012
     1.3120   1.3578   1.3730   1.3849   1.4038   1.4329   1.4911   1.5007
     1.5274   1.5792   1.6284   1.6403   1.6697   1.6863   1.6972   1.7250
     1.7629   1.7748   1.8093   1.8186   1.8563   1.8674   1.8879   1.9250
     1.9595   1.9733   2.0318   2.0594   2.0639   2.0805   2.1099   2.1204
     2.1266   2.1651   2.2067   2.2456   2.2747   2.2968   2.3266   2.4144
     2.4520   2.4917   2.6011   2.8865   3.0854   3.2193   3.5316   3.6422
     3.8068   4.0714   4.4788   5.0983   5.2037   5.3523   5.7008   5.7945
     5.9976   6.1122   6.1570   6.2447   6.6330   6.7373   6.9163   6.9852

          k = 0.0000 0.4619 0.0000 ( 87922 PWs)   bands (ev):

   -14.3171 -11.5013  -6.9958  -6.0985  -5.4913  -5.3212  -5.2603  -4.8513
    -4.4918  -4.3933  -4.3509  -4.1540  -3.9971  -3.8714  -3.8485  -3.7417
    -3.6667  -3.6548  -3.6340  -3.4839  -3.4610  -3.4359  -3.4195  -3.3553
    -3.3081  -3.2759  -3.2579  -3.2234  -3.2016  -3.1691  -3.1564  -3.1016
    -3.0692  -3.0347  -2.9437  -2.8451  -2.8200  -2.8066  -2.7779  -2.7070
    -2.6768  -2.6059  -2.5890  -2.5585  -2.5012  -2.4666  -2.4302  -2.3540
    -2.3078  -2.2967  -2.2516  -2.2304  -2.1883  -2.1507  -2.1160  -2.0854
    -2.0744  -2.0414  -1.9494  -1.9385  -1.9015  -1.8673  -1.8093  -1.7631
    -1.7421  -1.7144  -1.7012  -1.6361  -1.5509  -1.5352  -1.5097  -1.4840
    -1.4496  -1.4173  -1.3531  -1.3338  -1.2951  -1.2431  -1.2208  -1.1863
    -1.1633  -1.1537  -1.1072  -1.0916  -1.0376  -1.0263  -1.0124  -1.0000
    -0.9799  -0.9601  -0.9265  -0.9011  -0.8976  -0.8577  -0.8100  -0.7937
    -0.7740  -0.7500  -0.7310  -0.7194  -0.6623  -0.6323  -0.6182  -0.5919
    -0.5534  -0.5442  -0.4788  -0.4515  -0.4402  -0.4144  -0.3927  -0.3351
    -0.3033  -0.2910  -0.2689  -0.2372  -0.2247  -0.1604  -0.1373  -0.0806
    -0.0020   0.0144   0.0666   0.1070   0.1167   0.1431   0.1671   0.1754
     0.1994   0.2155   0.2536   0.2660   0.2898   0.3244   0.3376   0.4230
     0.4419   0.4826   0.4963   0.5170   0.5964   0.6569   0.7168   0.7356
     0.8032   0.8349   0.8630   0.9036   0.9382   0.9721   0.9834   1.0239
     1.0304   1.0735   1.1111   1.1281   1.1409   1.1842   1.2267   1.2578
     1.2892   1.3232   1.3547   1.3720   1.4410   1.4894   1.5225   1.5456
     1.6058   1.6437   1.6591   1.6669   1.7242   1.7337   1.7724   1.8164
     1.8478   1.8742   1.9126   1.9406   1.9727   1.9904   2.0073   2.0273
     2.0541   2.0760   2.1431   2.2056   2.2247   2.2881   2.3057   2.3196
     2.3293   2.3880   2.4368   2.5503   2.5623   2.9065   3.0390   3.1824
     3.2957   3.3398   3.4838   3.6021   3.6954   3.8654   4.0734   4.2953
     4.4495   4.5323   4.6370   4.7401   4.8007   4.9834   5.1769   5.2261
     5.3452   5.5771   5.7436   6.0501   6.1971   6.4261   6.6839   6.8114

          k = 0.2000-0.1155 0.0000 ( 87892 PWs)   bands (ev):

   -14.3176 -11.4997  -7.0187  -6.5051  -5.5355  -5.3086  -5.0079  -4.7301
    -4.5213  -4.3606  -4.3060  -4.1369  -4.1153  -4.0192  -3.9857  -3.9576
    -3.8274  -3.7702  -3.6566  -3.6289  -3.6095  -3.5403  -3.4562  -3.3504
    -3.2936  -3.2468  -3.1751  -3.1323  -3.1233  -3.0775  -3.0581  -3.0261
    -3.0007  -2.9849  -2.9434  -2.9121  -2.8897  -2.8510  -2.8287  -2.7869
    -2.7288  -2.6779  -2.6416  -2.5980  -2.5772  -2.4941  -2.4520  -2.3590
    -2.3328  -2.2915  -2.2594  -2.2259  -2.2039  -2.1652  -2.0899  -2.0353
    -1.9853  -1.9571  -1.9328  -1.8751  -1.8650  -1.7276  -1.6382  -1.5764
    -1.5606  -1.5273  -1.5044  -1.4916  -1.4641  -1.4212  -1.3844  -1.3695
    -1.3499  -1.2745  -1.2512  -1.2247  -1.2136  -1.1936  -1.1414  -1.1152
    -1.0984  -1.0702  -1.0459  -1.0201  -0.9832  -0.9709  -0.9607  -0.9267
    -0.9087  -0.8863  -0.8718  -0.8125  -0.7924  -0.7700  -0.7595  -0.7371
    -0.7074  -0.6734  -0.6552  -0.6331  -0.6178  -0.5971  -0.5859  -0.5753
    -0.5415  -0.5307  -0.5202  -0.4915  -0.4722  -0.4225  -0.3653  -0.3403
    -0.3010  -0.2711  -0.2441  -0.2337  -0.2327  -0.2090  -0.1493  -0.0578
     0.0254   0.0460   0.1348   0.1523   0.1812   0.2116   0.2221   0.2614
     0.3087   0.3396   0.3818   0.4228   0.4484   0.4917   0.5450   0.5739
     0.5883   0.5979   0.6203   0.6651   0.6853   0.7542   0.7891   0.8015
     0.8151   0.8442   0.8807   0.9179   0.9552   0.9690   1.0024   1.0472
     1.0755   1.1330   1.1371   1.1704   1.1864   1.2297   1.2576   1.2854
     1.3329   1.3593   1.3701   1.3821   1.4021   1.4528   1.4684   1.5035
     1.5345   1.5701   1.6021   1.6289   1.6727   1.6832   1.6980   1.7205
     1.7563   1.7771   1.7948   1.8246   1.8467   1.8576   1.8795   1.9061
     1.9472   1.9937   2.0198   2.0466   2.0729   2.0881   2.1039   2.1185
     2.1376   2.1587   2.1971   2.2085   2.2679   2.2958   2.3424   2.4090
     2.4630   2.5682   2.7053   2.7598   2.9711   3.2665   3.4869   3.7108
     3.7989   4.1577   4.5701   4.9099   5.0606   5.5475   5.6820   5.8024
     5.9453   6.0508   6.2556   6.3156   6.6400   6.8346   6.9436   6.9917

          k = 0.2000 0.1155 0.0000 ( 87892 PWs)   bands (ev):

   -14.3176 -11.5000  -7.0303  -6.5005  -5.5314  -5.3011  -5.0102  -4.7178
    -4.5304  -4.3518  -4.3285  -4.1296  -4.0940  -4.0333  -4.0098  -3.9255
    -3.8006  -3.7584  -3.6994  -3.6448  -3.6127  -3.5555  -3.3982  -3.3295
    -3.2916  -3.2467  -3.1783  -3.1406  -3.1156  -3.0860  -3.0787  -3.0355
    -3.0034  -2.9545  -2.9352  -2.9137  -2.8781  -2.8566  -2.8188  -2.8076
    -2.7204  -2.6865  -2.6440  -2.5924  -2.5838  -2.5018  -2.4423  -2.3731
    -2.3414  -2.2902  -2.2645  -2.2353  -2.2034  -2.1700  -2.1023  -2.0419
    -1.9840  -1.9529  -1.9066  -1.8801  -1.8272  -1.7045  -1.6443  -1.6069
    -1.5620  -1.5361  -1.5122  -1.4753  -1.4674  -1.4432  -1.3914  -1.3785
    -1.3347  -1.2848  -1.2486  -1.2289  -1.2100  -1.1861  -1.1486  -1.1080
    -1.0855  -1.0610  -1.0366  -1.0122  -0.9823  -0.9704  -0.9601  -0.9314
    -0.9135  -0.9032  -0.8596  -0.8184  -0.7976  -0.7799  -0.7579  -0.7425
    -0.7192  -0.6862  -0.6539  -0.6341  -0.6222  -0.5986  -0.5912  -0.5640
    -0.5429  -0.5373  -0.5261  -0.4868  -0.4614  -0.4301  -0.3728  -0.3436
    -0.2971  -0.2659  -0.2488  -0.2378  -0.2319  -0.2080  -0.1855  -0.0610
    -0.0014   0.0703   0.1357   0.1513   0.1751   0.1939   0.2064   0.2596
     0.2948   0.3392   0.3814   0.4391   0.4636   0.5121   0.5509   0.5704
     0.5840   0.6119   0.6337   0.6592   0.7068   0.7645   0.7858   0.8033
     0.8250   0.8656   0.8855   0.9089   0.9391   0.9648   0.9942   1.0363
     1.0548   1.1152   1.1352   1.1571   1.1909   1.2201   1.2543   1.2876
     1.3179   1.3544   1.3808   1.3923   1.4184   1.4375   1.4775   1.4954
     1.5485   1.5794   1.6204   1.6339   1.6643   1.6822   1.7101   1.7303
     1.7607   1.7788   1.7926   1.8315   1.8475   1.8678   1.8765   1.9203
     1.9561   1.9936   2.0200   2.0458   2.0613   2.0939   2.1013   2.1169
     2.1407   2.1578   2.1927   2.2157   2.2759   2.2985   2.3217   2.4164
     2.4670   2.4996   2.7337   2.8658   2.9545   3.2411   3.5417   3.6509
     3.7952   4.0964   4.7333   4.9216   5.0067   5.5185   5.7253   5.7930
     5.8589   6.1548   6.2727   6.3035   6.5695   6.7429   6.9586   6.9823

          k = 0.2000 0.3464 0.0000 ( 87940 PWs)   bands (ev):

   -14.3171 -11.5007  -7.0148  -6.2269  -5.4014  -5.3266  -5.0158  -4.9511
    -4.8303  -4.4215  -4.0691  -3.9592  -3.9261  -3.9162  -3.8625  -3.8461
    -3.8021  -3.7456  -3.7330  -3.6457  -3.5539  -3.3717  -3.3451  -3.3203
    -3.2993  -3.2730  -3.2392  -3.1897  -3.1216  -3.1140  -3.0640  -3.0278
    -3.0107  -2.9866  -2.9508  -2.9326  -2.9100  -2.8601  -2.8388  -2.7975
    -2.7510  -2.6879  -2.6063  -2.5512  -2.4903  -2.4294  -2.3760  -2.3582
    -2.3144  -2.2946  -2.2674  -2.2393  -2.1963  -2.1570  -2.1191  -2.0703
    -1.9982  -1.9791  -1.9265  -1.8850  -1.8656  -1.8424  -1.8031  -1.7293
    -1.6840  -1.6630  -1.6378  -1.5782  -1.5505  -1.5321  -1.5012  -1.4725
    -1.4320  -1.3785  -1.3474  -1.3012  -1.2798  -1.2628  -1.2501  -1.1996
    -1.1804  -1.1340  -1.0957  -1.0583  -1.0397  -1.0127  -0.9948  -0.9751
    -0.9361  -0.9121  -0.8837  -0.8603  -0.8453  -0.8345  -0.8154  -0.7800
    -0.7646  -0.7279  -0.6956  -0.6741  -0.6483  -0.6170  -0.6127  -0.5847
    -0.5631  -0.5482  -0.5163  -0.4898  -0.4847  -0.4667  -0.4403  -0.4028
    -0.3795  -0.3408  -0.3010  -0.2774  -0.2253  -0.2038  -0.1453  -0.0817
    -0.0244  -0.0120   0.0488   0.0769   0.1229   0.1412   0.1720   0.1918
     0.2467   0.2658   0.2893   0.3186   0.3345   0.3786   0.4186   0.4551
     0.5223   0.5508   0.5612   0.5993   0.6398   0.7107   0.7346   0.7497
     0.7847   0.8054   0.8252   0.8552   0.9113   0.9601   0.9717   0.9887
     1.0211   1.0579   1.0914   1.1212   1.1545   1.1671   1.1968   1.2103
     1.2302   1.2965   1.3370   1.3780   1.4479   1.5132   1.5883   1.6068
     1.6426   1.6860   1.7018   1.7379   1.7877   1.7954   1.8377   1.8636
     1.8775   1.8947   1.9184   1.9354   1.9596   1.9806   1.9897   2.0383
     2.0781   2.0888   2.1086   2.1234   2.1774   2.2091   2.2328   2.3179
     2.3324   2.3581   2.4333   2.5043   2.5197   2.5880   2.6896   2.8352
     3.0424   3.1120   3.3520   3.5132   3.5800   3.6832   3.8899   4.1546
     4.2752   4.4245   4.5804   4.6223   4.8785   5.2185   5.5018   5.5559
     5.8139   5.9573   6.0684   6.2215   6.3435   6.4897   6.5860   6.6319

          k = 0.2000-0.5774 0.0000 ( 87940 PWs)   bands (ev):

   -14.3168 -11.5008  -6.9956  -5.7566  -5.6773  -5.3696  -5.2525  -4.9762
    -4.6948  -4.4289  -4.1712  -3.9936  -3.9012  -3.8026  -3.7807  -3.7055
    -3.6390  -3.5913  -3.5221  -3.5118  -3.4403  -3.4203  -3.4006  -3.3914
    -3.3530  -3.3182  -3.3031  -3.2244  -3.2085  -3.1819  -3.1634  -3.1260
    -3.0786  -3.0484  -2.9383  -2.9304  -2.8865  -2.8340  -2.7738  -2.7524
    -2.7050  -2.6498  -2.6109  -2.5547  -2.5102  -2.4157  -2.3926  -2.3556
    -2.3190  -2.2682  -2.2518  -2.2123  -2.1420  -2.0962  -2.0674  -2.0204
    -1.9945  -1.9481  -1.9124  -1.8833  -1.8530  -1.8335  -1.8053  -1.7727
    -1.7551  -1.7326  -1.7160  -1.6990  -1.6907  -1.6130  -1.5625  -1.5443
    -1.5178  -1.4816  -1.4477  -1.3789  -1.3428  -1.3162  -1.3024  -1.2824
    -1.2603  -1.2081  -1.1819  -1.1389  -1.1105  -1.0949  -1.0625  -1.0379
    -0.9727  -0.9407  -0.9091  -0.8903  -0.8872  -0.8669  -0.8131  -0.7777
    -0.7477  -0.7097  -0.6918  -0.6663  -0.6484  -0.6064  -0.5899  -0.5833
    -0.5552  -0.5476  -0.4995  -0.4917  -0.4646  -0.4467  -0.4404  -0.4167
    -0.4038  -0.3908  -0.3271  -0.3209  -0.2624  -0.1719  -0.1309  -0.1021
    -0.0385   0.0068   0.0352   0.0414   0.0946   0.1063   0.1263   0.1504
     0.1735   0.2315   0.2559   0.2665   0.3038   0.3417   0.3775   0.4217
     0.4449   0.4973   0.5165   0.5981   0.6407   0.6616   0.7188   0.7646
     0.7710   0.8001   0.8091   0.8431   0.8687   0.8986   0.9313   0.9651
     0.9829   0.9971   1.0400   1.0564   1.0832   1.1265   1.1720   1.2024
     1.3161   1.3441   1.3891   1.4626   1.4781   1.5373   1.5415   1.6136
     1.6607   1.6974   1.7328   1.7805   1.7963   1.8277   1.8809   1.8851
     1.8974   1.9194   1.9518   1.9747   2.0022   2.0222   2.0466   2.0908
     2.0958   2.1536   2.1885   2.2078   2.2893   2.3096   2.3235   2.3309
     2.3493   2.3934   2.4972   2.5591   2.7465   3.0503   3.2688   3.4279
     3.5181   3.5695   3.6912   3.7566   3.8832   4.0492   4.2448   4.4221
     4.5560   4.6556   4.7461   4.8910   5.0115   5.1189   5.1427   5.2792
     5.3856   5.4059   5.6907   5.8482   5.9842   6.2029   6.3543   6.5270

          k = 0.2000-0.3464 0.0000 ( 87940 PWs)   bands (ev):

   -14.3171 -11.5002  -6.9964  -6.2374  -5.4064  -5.3317  -5.0301  -4.9330
    -4.8442  -4.4186  -4.0600  -3.9722  -3.9389  -3.9151  -3.8764  -3.8601
    -3.7813  -3.7444  -3.7178  -3.6549  -3.5294  -3.3781  -3.3520  -3.3340
    -3.3054  -3.2703  -3.2494  -3.2011  -3.1353  -3.1136  -3.0734  -3.0357
    -3.0114  -2.9994  -2.9618  -2.9295  -2.8913  -2.8710  -2.8290  -2.8002
    -2.7547  -2.7155  -2.6291  -2.5270  -2.4672  -2.4107  -2.3765  -2.3342
    -2.3142  -2.2856  -2.2535  -2.2242  -2.1804  -2.1339  -2.1093  -2.0772
    -2.0001  -1.9823  -1.9587  -1.8914  -1.8738  -1.8555  -1.8138  -1.7667
    -1.6742  -1.6318  -1.6169  -1.5679  -1.5459  -1.5243  -1.5046  -1.4879
    -1.4361  -1.3859  -1.3308  -1.2943  -1.2776  -1.2455  -1.2374  -1.1986
    -1.1903  -1.1379  -1.0798  -1.0709  -1.0485  -1.0177  -1.0002  -0.9743
    -0.9401  -0.9109  -0.8784  -0.8602  -0.8443  -0.8298  -0.7999  -0.7777
    -0.7533  -0.7334  -0.6907  -0.6883  -0.6366  -0.6069  -0.6045  -0.5783
    -0.5553  -0.5508  -0.5086  -0.4806  -0.4725  -0.4540  -0.4411  -0.4263
    -0.3638  -0.3267  -0.3183  -0.2807  -0.2250  -0.1946  -0.1587  -0.0821
    -0.0582   0.0085   0.0205   0.0914   0.1052   0.1478   0.1763   0.2104
     0.2423   0.2653   0.2983   0.3147   0.3386   0.3591   0.4228   0.4721
     0.5234   0.5539   0.5699   0.5959   0.6107   0.6770   0.7424   0.7714
     0.7845   0.8019   0.8128   0.8738   0.9025   0.9565   0.9728   0.9968
     1.0385   1.0772   1.0894   1.1162   1.1564   1.1773   1.1841   1.2230
     1.2409   1.3165   1.3477   1.3697   1.4425   1.4904   1.5965   1.5999
     1.6511   1.6794   1.7022   1.7347   1.7821   1.7939   1.8352   1.8745
     1.8825   1.8962   1.9259   1.9313   1.9485   1.9875   2.0015   2.0231
     2.0510   2.0821   2.1049   2.1256   2.1720   2.2276   2.2816   2.3054
     2.3305   2.3647   2.4099   2.4509   2.5051   2.5754   2.6699   2.8576
     3.0358   3.1349   3.2950   3.4534   3.6075   3.6542   3.9798   4.0724
     4.3276   4.4094   4.5315   4.6736   4.7754   5.0901   5.4890   5.7361
     5.8167   6.0513   6.1201   6.2073   6.2789   6.4966   6.5629   6.6591

          k = 0.4000-0.2309 0.0000 ( 87922 PWs)   bands (ev):

   -14.3168 -11.4991  -6.9965  -6.1149  -5.5626  -5.3636  -5.1811  -4.7643
    -4.4827  -4.3910  -4.3215  -4.1845  -4.0394  -3.8744  -3.8018  -3.7396
    -3.6893  -3.6514  -3.6000  -3.5075  -3.4698  -3.4444  -3.4255  -3.3929
    -3.3162  -3.2940  -3.2633  -3.2329  -3.2136  -3.1885  -3.1524  -3.0907
    -3.0764  -2.9772  -2.9151  -2.8467  -2.8415  -2.8243  -2.7646  -2.7448
    -2.6585  -2.6167  -2.5994  -2.5573  -2.5444  -2.4512  -2.4216  -2.3857
    -2.3415  -2.2698  -2.2580  -2.2170  -2.1834  -2.1499  -2.1130  -2.1046
    -2.0603  -2.0151  -1.9526  -1.9384  -1.9112  -1.8751  -1.8302  -1.7602
    -1.7269  -1.6790  -1.6600  -1.6580  -1.5988  -1.5402  -1.5019  -1.4639
    -1.4407  -1.3799  -1.3632  -1.3287  -1.2976  -1.2515  -1.2240  -1.1754
    -1.1503  -1.1366  -1.0969  -1.0767  -1.0427  -1.0279  -0.9888  -0.9788
    -0.9689  -0.9450  -0.9375  -0.9083  -0.8911  -0.8516  -0.8251  -0.7934
    -0.7686  -0.7514  -0.7364  -0.7029  -0.6631  -0.6252  -0.5890  -0.5692
    -0.5499  -0.5226  -0.4953  -0.4619  -0.4364  -0.4227  -0.3565  -0.3286
    -0.2908  -0.2825  -0.2507  -0.2290  -0.1903  -0.1414  -0.1222  -0.0678
    -0.0346   0.0204   0.0417   0.0790   0.1148   0.1275   0.1391   0.1513
     0.1925   0.2139   0.2411   0.2693   0.2933   0.3242   0.3653   0.3961
     0.4330   0.4478   0.4727   0.5065   0.5864   0.6600   0.6994   0.7194
     0.7885   0.8283   0.8669   0.9221   0.9431   0.9765   0.9969   1.0267
     1.0649   1.0814   1.1258   1.1420   1.1643   1.2137   1.2327   1.2729
     1.2888   1.3162   1.3491   1.3806   1.4278   1.4749   1.4831   1.5423
     1.5600   1.6170   1.6624   1.6950   1.7203   1.7334   1.7809   1.8034
     1.8325   1.8643   1.9072   1.9435   1.9909   2.0093   2.0208   2.0370
     2.0728   2.0972   2.1325   2.1657   2.1852   2.2778   2.3038   2.3102
     2.3367   2.3786   2.4460   2.5603   2.6107   2.7241   2.8845   3.0922
     3.2766   3.3878   3.5149   3.5982   3.8403   3.8872   4.0639   4.2867
     4.4188   4.5900   4.6517   4.7528   4.8547   4.9129   4.9943   5.2426
     5.4840   5.7088   5.8359   6.0635   6.2220   6.4009   6.7025   6.7757

          k = 0.4000-0.0000 0.0000 ( 87940 PWs)   bands (ev):

   -14.3169 -11.4994  -7.0153  -6.2373  -5.4203  -5.3618  -5.0052  -4.9140
    -4.7989  -4.3983  -4.0819  -3.9609  -3.9428  -3.8904  -3.8638  -3.8578
    -3.8081  -3.7417  -3.7223  -3.6585  -3.5028  -3.3937  -3.3717  -3.3409
    -3.3316  -3.2602  -3.2435  -3.2104  -3.1389  -3.1066  -3.0558  -3.0291
    -3.0206  -2.9983  -2.9519  -2.9304  -2.8938  -2.8529  -2.8339  -2.8034
    -2.7435  -2.6814  -2.5972  -2.5154  -2.5060  -2.4386  -2.3919  -2.3627
    -2.3450  -2.3172  -2.2800  -2.2453  -2.1923  -2.1519  -2.0880  -2.0511
    -2.0053  -1.9814  -1.9203  -1.8772  -1.8658  -1.8452  -1.8130  -1.7507
    -1.6875  -1.6394  -1.6219  -1.5692  -1.5448  -1.5242  -1.5131  -1.4529
    -1.4281  -1.3938  -1.3376  -1.3055  -1.2791  -1.2603  -1.2448  -1.2354
    -1.1713  -1.1133  -1.0869  -1.0616  -1.0543  -0.9994  -0.9715  -0.9614
    -0.9276  -0.9180  -0.8824  -0.8667  -0.8591  -0.8251  -0.8101  -0.7786
    -0.7393  -0.7226  -0.6977  -0.6747  -0.6591  -0.6191  -0.5946  -0.5762
    -0.5674  -0.5279  -0.5112  -0.4986  -0.4896  -0.4519  -0.4472  -0.4179
    -0.3714  -0.3261  -0.2984  -0.2747  -0.2408  -0.1770  -0.1393  -0.0979
    -0.0636   0.0274   0.0505   0.0740   0.1330   0.1556   0.1816   0.1979
     0.2104   0.2702   0.2890   0.3262   0.3475   0.3552   0.4110   0.4763
     0.5075   0.5311   0.5660   0.6111   0.6530   0.6973   0.7291   0.7540
     0.7764   0.8143   0.8219   0.8553   0.8788   0.9294   0.9710   1.0065
     1.0384   1.0517   1.1069   1.1297   1.1529   1.1615   1.1917   1.2090
     1.2484   1.3029   1.3344   1.3841   1.4245   1.5323   1.5633   1.5687
     1.6331   1.6915   1.7217   1.7405   1.7830   1.8037   1.8272   1.8707
     1.8883   1.9067   1.9143   1.9404   1.9566   1.9734   1.9885   2.0073
     2.0282   2.0910   2.1057   2.1480   2.1694   2.2074   2.2731   2.3279
     2.3341   2.3676   2.3860   2.4484   2.5148   2.5590   2.6355   2.8594
     3.0684   3.1159   3.3563   3.4778   3.5911   3.6964   3.8187   4.1621
     4.3803   4.4766   4.5552   4.6149   4.8101   5.2418   5.4736   5.6780
     5.7854   5.8952   6.0988   6.2162   6.3991   6.5084   6.5509   6.6618

          k = 0.4000 0.2309 0.0000 ( 87922 PWs)   bands (ev):

   -14.3168 -11.4999  -7.0252  -6.1003  -5.5420  -5.3535  -5.1995  -4.7477
    -4.4863  -4.3808  -4.3348  -4.1607  -4.0075  -3.8810  -3.8362  -3.7428
    -3.6825  -3.6583  -3.5873  -3.5296  -3.4756  -3.4313  -3.4264  -3.3395
    -3.2977  -3.2812  -3.2612  -3.2355  -3.1998  -3.1693  -3.1345  -3.0979
    -3.0618  -2.9934  -2.9461  -2.8572  -2.8407  -2.8131  -2.7766  -2.7162
    -2.6663  -2.6376  -2.5965  -2.5649  -2.5122  -2.4798  -2.4308  -2.3811
    -2.3534  -2.3177  -2.2428  -2.2350  -2.1922  -2.1546  -2.1261  -2.0988
    -2.0585  -2.0320  -1.9420  -1.9331  -1.8930  -1.8651  -1.8112  -1.7495
    -1.7261  -1.7011  -1.6692  -1.6454  -1.5776  -1.5306  -1.4885  -1.4769
    -1.4207  -1.3951  -1.3576  -1.3345  -1.3181  -1.2806  -1.2239  -1.1866
    -1.1503  -1.1404  -1.1270  -1.0767  -1.0588  -1.0353  -1.0102  -0.9747
    -0.9523  -0.9433  -0.9217  -0.8976  -0.8744  -0.8625  -0.8392  -0.8110
    -0.7908  -0.7465  -0.7359  -0.6951  -0.6831  -0.6373  -0.5905  -0.5670
    -0.5574  -0.5318  -0.5038  -0.4779  -0.4632  -0.4003  -0.3684  -0.3379
    -0.2968  -0.2678  -0.2573  -0.2237  -0.1899  -0.1778  -0.1262  -0.0368
    -0.0266   0.0126   0.0548   0.0713   0.0996   0.1245   0.1393   0.1643
     0.1930   0.2185   0.2528   0.2725   0.2851   0.3337   0.3672   0.4050
     0.4357   0.4456   0.4702   0.5565   0.6030   0.6613   0.7037   0.7114
     0.7868   0.8196   0.8841   0.9042   0.9238   0.9540   0.9970   1.0238
     1.0531   1.0768   1.0966   1.1405   1.1600   1.1783   1.2347   1.2494
     1.2941   1.3076   1.3307   1.3893   1.4335   1.4595   1.4856   1.5446
     1.5879   1.6284   1.6779   1.7071   1.7194   1.7363   1.7905   1.8070
     1.8404   1.8642   1.9039   1.9576   1.9720   2.0036   2.0226   2.0416
     2.0671   2.1084   2.1239   2.1480   2.2508   2.2831   2.3058   2.3191
     2.3294   2.3800   2.4402   2.5609   2.6363   2.7570   2.9121   3.1259
     3.3207   3.3737   3.5037   3.6583   3.7340   3.9555   4.1217   4.2641
     4.4870   4.5939   4.6570   4.7346   4.8963   4.9295   5.0923   5.1716
     5.3264   5.7028   5.8053   6.1256   6.2242   6.4523   6.5999   6.8404

          k = 0.4000-0.6928 0.0000 ( 87940 PWs)   bands (ev):

   -14.3166 -11.5000  -7.0137  -5.7565  -5.7149  -5.3078  -5.2539  -5.0388
    -4.5818  -4.3994  -4.2274  -3.9862  -3.8702  -3.8187  -3.7849  -3.6990
    -3.6370  -3.6058  -3.5304  -3.5069  -3.4787  -3.4225  -3.3924  -3.3847
    -3.3621  -3.3480  -3.2690  -3.2313  -3.2023  -3.1659  -3.1483  -3.1138
    -3.0705  -3.0000  -2.9575  -2.9268  -2.8954  -2.8215  -2.7917  -2.7538
    -2.7329  -2.6680  -2.6345  -2.5651  -2.5221  -2.4126  -2.3875  -2.3685
    -2.3401  -2.2956  -2.2236  -2.1939  -2.1685  -2.0853  -2.0427  -2.0258
    -2.0019  -1.9437  -1.9158  -1.8964  -1.8528  -1.8422  -1.8343  -1.7755
    -1.7582  -1.7310  -1.7065  -1.6558  -1.6441  -1.6233  -1.5648  -1.5411
    -1.5020  -1.4660  -1.4317  -1.4106  -1.3616  -1.3242  -1.3117  -1.2827
    -1.2425  -1.2019  -1.1776  -1.1502  -1.1335  -1.0772  -1.0579  -1.0418
    -0.9857  -0.9401  -0.9106  -0.8984  -0.8801  -0.8581  -0.8124  -0.7755
    -0.7361  -0.6987  -0.6785  -0.6609  -0.6334  -0.6087  -0.5966  -0.5763
    -0.5673  -0.5392  -0.5332  -0.4863  -0.4666  -0.4522  -0.4361  -0.4229
    -0.4178  -0.3828  -0.3624  -0.2912  -0.2182  -0.1894  -0.1274  -0.0706
    -0.0377   0.0018   0.0261   0.0536   0.0948   0.1122   0.1313   0.1678
     0.1851   0.2061   0.2482   0.2638   0.3019   0.3233   0.3839   0.4174
     0.4380   0.4912   0.5233   0.5602   0.5844   0.6888   0.7055   0.7370
     0.7669   0.8076   0.8162   0.8310   0.8671   0.8982   0.9402   0.9641
     0.9873   1.0075   1.0383   1.0807   1.1012   1.1239   1.1924   1.2203
     1.2743   1.3197   1.4135   1.4442   1.5061   1.5344   1.5521   1.6264
     1.6413   1.6957   1.7323   1.7540   1.7964   1.8151   1.8486   1.8734
     1.9005   1.9302   1.9799   1.9968   2.0041   2.0290   2.0535   2.0819
     2.0971   2.1299   2.1812   2.2291   2.2724   2.3094   2.3218   2.3336
     2.3581   2.3858   2.5132   2.5809   2.6700   2.9409   3.2674   3.4634
     3.4801   3.6440   3.7128   3.8659   3.8974   4.1036   4.1968   4.3208
     4.4846   4.6236   4.8836   4.9348   5.0450   5.0946   5.2027   5.3597
     5.4209   5.5393   5.6588   5.7799   5.8786   6.0543   6.4680   6.5168

          k = 0.4000-0.4619 0.0000 ( 87940 PWs)   bands (ev):

   -14.3166 -11.4995  -6.9960  -5.7901  -5.7080  -5.3074  -5.2326  -5.0499
    -4.5884  -4.4274  -4.2268  -3.9712  -3.8701  -3.7954  -3.7808  -3.7067
    -3.6311  -3.6026  -3.5484  -3.5294  -3.4809  -3.4221  -3.4085  -3.3889
    -3.3638  -3.3352  -3.2768  -3.2455  -3.2014  -3.1681  -3.1587  -3.1447
    -3.0679  -3.0136  -2.9445  -2.9124  -2.8971  -2.8086  -2.7831  -2.7622
    -2.7395  -2.6473  -2.6123  -2.5589  -2.5356  -2.4376  -2.3872  -2.3611
    -2.3239  -2.2771  -2.2471  -2.1910  -2.1253  -2.0907  -2.0670  -2.0338
    -2.0066  -1.9315  -1.9104  -1.8955  -1.8691  -1.8345  -1.8140  -1.7821
    -1.7398  -1.7295  -1.6944  -1.6810  -1.6600  -1.6144  -1.5859  -1.5481
    -1.4994  -1.4595  -1.4258  -1.3865  -1.3445  -1.3251  -1.3149  -1.2796
    -1.2625  -1.2143  -1.1673  -1.1387  -1.1007  -1.0698  -1.0549  -1.0295
    -0.9820  -0.9322  -0.9137  -0.9000  -0.8790  -0.8675  -0.8020  -0.7737
    -0.7282  -0.7027  -0.6755  -0.6544  -0.6277  -0.6124  -0.5988  -0.5848
    -0.5662  -0.5574  -0.5160  -0.4965  -0.4577  -0.4475  -0.4341  -0.4245
    -0.4049  -0.3809  -0.3545  -0.2931  -0.2396  -0.2105  -0.1422  -0.0942
    -0.0263   0.0152   0.0255   0.0337   0.0755   0.1157   0.1278   0.1592
     0.1968   0.2247   0.2682   0.2854   0.3074   0.3372   0.3687   0.4280
     0.4534   0.4928   0.5071   0.5702   0.6161   0.6615   0.7146   0.7278
     0.7803   0.7918   0.8010   0.8429   0.8625   0.9080   0.9323   0.9773
     0.9917   1.0029   1.0237   1.0785   1.1019   1.1231   1.1857   1.2344
     1.2696   1.3280   1.4134   1.4489   1.4873   1.5375   1.5641   1.6095
     1.6491   1.6992   1.7255   1.7592   1.7996   1.8346   1.8448   1.8690
     1.8940   1.9402   1.9682   1.9965   2.0085   2.0323   2.0429   2.0839
     2.1040   2.1447   2.1913   2.2256   2.2505   2.2999   2.3211   2.3453
     2.3726   2.3966   2.4822   2.5540   2.6582   2.9633   3.1546   3.4443
     3.5399   3.6471   3.7323   3.8305   3.8895   4.0220   4.1523   4.3109
     4.5534   4.6081   4.7701   4.9872   5.0645   5.1426   5.1890   5.3785
     5.4029   5.4922   5.6565   5.8056   5.9648   6.1446   6.4103   6.5196

     the Fermi energy is     2.1181 ev

!    total energy              =  -27813.58811877 Ry

     total all-electron energy =  -1326873.645822 Ry
     estimated scf accuracy    <       0.00000043 Ry
     smearing contrib. (-TS)   =       0.00188307 Ry
     internal energy E=F+TS    =  -27813.59000185 Ry

     The total energy is F=E-TS. E is the sum of the following terms:
     one-electron contribution =  -26507.98420769 Ry
     hartree contribution      =   13559.92337027 Ry
     xc contribution           =    -905.95309224 Ry
     ewald contribution        =   11534.10344965 Ry
     one-center paw contrib.   =  -25493.67952183 Ry

     convergence has been achieved in  20 iterations

     negative rho (up, down):  1.262E-02 0.000E+00

     Forces acting on atoms (cartesian axes, Ry/au):

     atom    1 type  1   force =     0.00054681    0.00062192   -0.00376677
     atom    2 type  1   force =     0.00214042   -0.00164958   -0.00567254
     atom    3 type  1   force =    -0.00044974   -0.00027757   -0.00378994
     atom    4 type  1   force =    -0.00066870    0.00125908   -0.00639841
     atom    5 type  1   force =    -0.00023270   -0.00037448   -0.00363478
     atom    6 type  1   force =     0.00065562   -0.00006600   -0.00378843
     atom    7 type  1   force =     0.00008158   -0.00006586   -0.00320978
     atom    8 type  1   force =     0.00088824   -0.00093194   -0.00516035
     atom    9 type  1   force =     0.00007099   -0.00015622   -0.00442444
     atom   10 type  1   force =    -0.00295484   -0.00339501   -0.00014457
     atom   11 type  1   force =     0.00070804   -0.00120800    0.00360231
     atom   12 type  1   force =     0.00072606   -0.00073103    0.00941609
     atom   13 type  1   force =    -0.00024077   -0.00040043   -0.00158788
     atom   14 type  1   force =    -0.00055778    0.00204038    0.00748079
     atom   15 type  1   force =    -0.00020232   -0.00299446    0.00107684
     atom   16 type  1   force =     0.00040390    0.00273394    0.00758880
     atom   17 type  1   force =    -0.00281821    0.00194144    0.00488358
     atom   18 type  1   force =     0.00055222    0.00336049    0.00721008
     atom   19 type  1   force =     0.00034678   -0.00007538    0.00012645
     atom   20 type  1   force =     0.00011564   -0.00012514   -0.00011185
     atom   21 type  1   force =    -0.00009220    0.00004920   -0.00005282
     atom   22 type  1   force =    -0.00016819    0.00011948   -0.00022541
     atom   23 type  1   force =     0.00026198    0.00001514    0.00034270
     atom   24 type  1   force =     0.00000158    0.00023777    0.00005939
     atom   25 type  1   force =    -0.00015518   -0.00003211    0.00002476
     atom   26 type  1   force =     0.00038412    0.00017755   -0.00034155
     atom   27 type  1   force =    -0.00002441    0.00010408    0.00009348
     atom   28 type  1   force =    -0.00002678    0.00014060    0.00021983
     atom   29 type  1   force =     0.00018854   -0.00004733   -0.00002895
     atom   30 type  1   force =     0.00017363    0.00028110    0.00032644
     atom   31 type  1   force =    -0.00022302   -0.00006090   -0.00012758
     atom   32 type  1   force =    -0.00003843    0.00012732   -0.00035621
     atom   33 type  1   force =    -0.00005935    0.00004066    0.00021938
     atom   34 type  1   force =     0.00009879    0.00001249   -0.00000830
     atom   35 type  1   force =    -0.00000449    0.00032432    0.00029016
     atom   36 type  1   force =    -0.00018456    0.00018803    0.00019140
     atom   37 type  2   force =     0.00376196   -0.00096347    0.00025642
     atom   38 type  2   force =    -0.00159134   -0.00084669    0.00146191
     atom   39 type  2   force =     0.00231423    0.00283967    0.00089663
     atom   40 type  3   force =    -0.00016319   -0.00041517    0.00005534
     atom   41 type  3   force =    -0.00356497   -0.00179789   -0.00299221

     Total force =     0.007850     Total SCF correction =     0.002398
     SCF correction compared to forces is large: reduce conv_thr to get better values

     negative rho (up, down):  1.262E-02 0.000E+00

     negative rho (up, down):  1.262E-02 0.000E+00

     negative rho (up, down):  1.262E-02 0.000E+00

     negative rho (up, down):  1.262E-02 0.000E+00

     negative rho (up, down):  1.262E-02 0.000E+00

     negative rho (up, down):  1.262E-02 0.000E+00

     negative rho (up, down):  1.262E-02 0.000E+00

     negative rho (up, down):  1.262E-02 0.000E+00

     negative rho (up, down):  1.262E-02 0.000E+00

     negative rho (up, down):  1.262E-02 0.000E+00

     negative rho (up, down):  1.262E-02 0.000E+00

     negative rho (up, down):  1.262E-02 0.000E+00

     negative rho (up, down):  1.262E-02 0.000E+00

     negative rho (up, down):  1.262E-02 0.000E+00

     negative rho (up, down):  1.262E-02 0.000E+00

     negative rho (up, down):  1.262E-02 0.000E+00

     negative rho (up, down):  1.262E-02 0.000E+00

     negative rho (up, down):  1.262E-02 0.000E+00

     negative rho (up, down):  1.262E-02 0.000E+00

     negative rho (up, down):  1.262E-02 0.000E+00

     negative rho (up, down):  1.262E-02 0.000E+00

     negative rho (up, down):  1.262E-02 0.000E+00

     negative rho (up, down):  1.262E-02 0.000E+00

     negative rho (up, down):  1.262E-02 0.000E+00

     negative rho (up, down):  1.262E-02 0.000E+00

     negative rho (up, down):  1.262E-02 0.000E+00

     negative rho (up, down):  1.262E-02 0.000E+00

     negative rho (up, down):  1.262E-02 0.000E+00

     negative rho (up, down):  1.262E-02 0.000E+00

     negative rho (up, down):  1.262E-02 0.000E+00

     negative rho (up, down):  1.262E-02 0.000E+00

     negative rho (up, down):  1.262E-02 0.000E+00

     negative rho (up, down):  1.262E-02 0.000E+00

     negative rho (up, down):  1.262E-02 0.000E+00
 BEEFens 2000 ensemble energies
             -0.606222374296354E+02
             -0.361780562827954E+01
             -0.158368148636586E+02
              0.428995961101588E+02
             -0.220867196899385E+02
             -0.205232545210536E+02
             -0.351759386385040E+02
             -0.864221045954207E+02
             -0.465004089099937E+02
             -0.472596448098124E+02
             -0.368997012340162E+02
              0.224597485750206E+01
              0.407775635144597E+01
              0.762982750271152E+01
              0.265856888844624E+01
              0.474548075486330E+02
             -0.208775298354541E+02
             -0.230517181343347E+02
              0.192915672401143E+02
             -0.112288872036430E+03
              0.535862309499800E+02
             -0.289675994428521E+02
             -0.334286611773057E+01
             -0.113952438870986E+02
             -0.886380250533978E+01
             -0.466727893494954E+01
              0.882085845939950E+02
             -0.186535668189551E+02
             -0.901855961738693E+01
             -0.518091570213308E+02
              0.815391377378323E+02
             -0.187543152134736E+02
             -0.374822939692637E+02
              0.249310264239968E+02
             -0.283427119528432E+01
              0.163756110326129E+02
             -0.485871541560903E+01
              0.108140107555442E+02
              0.287750546743355E+02
             -0.103224087476135E+03
              0.557786516321359E+02
              0.142236993399868E+02
             -0.168221261128554E+01
             -0.361485022396422E+02
              0.123068236982206E+02
             -0.146254054448491E+02
              0.398077036556131E+02
              0.364599215860344E+02
             -0.308057909829969E+02
             -0.275017170286163E+02
             -0.328209852347245E+02
             -0.351686917065346E+02
              0.135777091781826E+02
             -0.490663903848184E+02
              0.115335374571780E+02
              0.622526178642852E+02
              0.634584029558371E+02
              0.355435429454449E+02
              0.154100910548040E+02
              0.270016811310164E+02
              0.890476455459935E+02
              0.212846729128769E+02
             -0.548169924848589E+02
             -0.157053244239760E+02
             -0.235648426785699E+02
              0.629570547277400E+02
             -0.773024924409141E+02
             -0.671174658552762E+02
             -0.258816441839272E+02
             -0.640453998061980E+01
             -0.470978585798723E+02
              0.270408544807972E+02
              0.800141758194388E+01
              0.866793485663936E+01
             -0.396659692989596E+02
             -0.346615640168939E+02
             -0.541320734241314E+02
              0.390352686323066E+02
             -0.295573772743734E+02
              0.264628089834268E+02
             -0.712160478260816E+01
             -0.317932844275214E+02
             -0.576126517562940E+02
             -0.176722144622201E+02
             -0.906161885061033E+01
             -0.124867171528348E+02
              0.411715647819798E+02
              0.681770160550834E+02
             -0.385187727356947E+02
             -0.794186874016812E+02
             -0.219459200258404E+02
              0.111434748332118E+03
             -0.591692586449539E+02
              0.355964656365724E+02
             -0.957046487044818E+01
             -0.662857368787968E+02
              0.254232994451637E+02
              0.397931730318336E+02
             -0.198661894494500E+02
              0.400026579911852E+02
             -0.295949130921342E+02
             -0.477504213515379E+02
              0.864986926749731E+02
              0.453833441641580E+02
              0.336281943320203E+02
              0.146501292783712E+02
              0.205305235138136E+02
              0.855926657010463E+02
             -0.256357303275831E+02
              0.786272618138636E+01
             -0.142310479654554E+03
              0.181147431802988E+02
             -0.715811656680917E+02
              0.150699966903395E+02
              0.204365087734603E+02
             -0.332513099260198E+02
             -0.556821204545421E+02
              0.655567324331389E+01
             -0.303829806170447E+02
              0.307670768658999E+02
             -0.529432513220299E+02
              0.172414081280999E+01
             -0.356694277351175E+02
             -0.424617699955940E+01
             -0.104994206013711E+01
              0.180700312925582E+02
              0.143070836465336E+01
             -0.651523487140196E+01
              0.589573125020577E+02
              0.907422057766796E+02
              0.483721843978124E+02
              0.830015086390921E+02
             -0.114924929621642E+02
              0.143277239243851E+02
              0.540585675979810E+02
             -0.111046265600132E+02
             -0.734867144963325E+02
             -0.383442134579977E+02
             -0.521168347196647E+02
             -0.276399581871719E+02
              0.326917022840342E+02
             -0.116691827537496E+03
             -0.187030167013922E+02
              0.413757504556398E+02
             -0.385961000594817E+02
             -0.365236243105721E+02
              0.543412276285735E+02
              0.400391476633831E+02
             -0.353537591078378E+02
              0.137106127242384E+02
             -0.272822895660775E+02
              0.342875329818540E+02
              0.446928525913421E+01
              0.211194067441401E+02
             -0.883954651277061E+02
             -0.479774981652629E+02
             -0.992465931775359E+01
              0.325673458596660E+01
             -0.366307538844746E+02
              0.105927016798132E+03
             -0.230791415225069E+02
             -0.398258942710252E+02
              0.388764555878588E+02
             -0.494005868206550E+02
             -0.362955641094905E+02
              0.324540199478113E+02
              0.124393493561631E+02
              0.164216015408361E+02
              0.116289968796056E+02
             -0.132782822273643E+02
              0.225055838730055E+02
              0.589745517873135E+02
             -0.311544945401586E+02
              0.162396165593111E+02
              0.933548388664701E+02
              0.340406894647922E+02
             -0.728665739962230E+01
             -0.188399273195191E+02
              0.153213632450728E+03
             -0.163850507271900E+02
              0.362789314527097E+02
              0.194131885334216E+02
              0.361603636468167E+02
              0.891463330034487E+02
              0.542689916582540E+02
             -0.241652181549377E+01
              0.227506791257897E+02
              0.484544644974649E+02
              0.363294546790016E+02
             -0.524917611012563E+02
              0.935101611925694E+02
             -0.824683416300645E+02
             -0.198183874656205E+02
              0.582480958047887E+02
              0.672178282011920E+01
              0.791131430701603E+01
              0.340800479934837E+02
              0.298957571201422E+02
              0.353377831884989E+02
             -0.637248475693035E+02
              0.288195340634923E+01
             -0.297323294739176E+02
             -0.872516624502445E+01
             -0.145705688985208E+01
             -0.720754163066692E+01
             -0.413807691535453E+01
              0.858474394838968E+02
             -0.101030089173667E+02
             -0.276161722041536E+02
             -0.496186969764246E+01
              0.139859691006146E+02
             -0.563592200966696E+02
             -0.406496902016465E+02
             -0.381824372864234E+02
             -0.629780918376715E+02
             -0.169716786132194E+02
             -0.447184347677872E+02
              0.163274643315575E+02
             -0.240591395747924E+01
             -0.104203401205993E+02
             -0.933961084732456E+01
              0.807148924558356E+01
             -0.242852760580591E+02
              0.688603626319577E+02
             -0.806234203557202E+02
             -0.140935957197858E+02
             -0.173987883168689E+02
              0.181719293982413E+02
              0.214083265504323E+02
             -0.463519847031175E+02
             -0.202068179948283E+02
              0.440426182894209E+02
             -0.275928610300114E+02
              0.186756330251857E+02
              0.382500899560819E+02
             -0.322655079635024E+01
              0.114067397685502E+03
             -0.230313727602279E+02
             -0.340843754090126E+02
              0.578810874355077E+01
             -0.227890983133440E+02
              0.527264255056926E+02
             -0.336670080894370E+02
              0.106380314608026E+02
              0.640400653714829E+02
             -0.126089483812768E+02
              0.120130349667318E+03
              0.125754788627306E+03
             -0.649173703061404E+02
              0.590045909404249E+02
              0.166273673286879E+02
             -0.517217402404366E+02
              0.216203970730644E+02
              0.353285513454132E+02
              0.362226498564409E+02
              0.135419410384668E+01
              0.159354996237240E+02
              0.694763059307506E+02
             -0.246763663264009E+02
              0.181058790593748E+02
              0.738453562182865E+02
             -0.372267766681731E+02
             -0.129277591459326E+02
              0.507934921920759E+02
              0.297126045944133E+02
              0.780009672680817E+02
              0.222231549023062E+02
              0.622134936351063E+01
              0.280288153294225E+02
              0.382813442135211E+02
             -0.470910073304661E+02
              0.329849028924298E+01
              0.129214940900048E+02
              0.113642248109746E+02
              0.220189734806213E+02
             -0.574075662294921E+02
              0.365999257809126E+02
             -0.443630216482180E+02
             -0.347023800113971E+02
              0.177606464579927E+02
             -0.181358760253063E+02
              0.554556626236104E+02
             -0.256245766620864E+02
              0.266546555619054E+02
              0.368176380873949E+02
              0.828606802149213E+02
              0.574116826505073E+02
              0.461082309163247E+02
             -0.105888343137506E+02
             -0.390343463673787E+01
             -0.331579491193420E+02
              0.749838647425934E+02
              0.796554790641835E+02
              0.361579801487121E+02
             -0.191660574918294E+02
              0.511516170523927E+02
             -0.162883551964091E+02
              0.214751003434966E+02
              0.613779933381634E+02
              0.215332844568434E+01
             -0.104221631838598E+02
             -0.282994937849658E+02
             -0.510776636796597E+02
              0.944515527455173E+02
              0.439024510515183E+02
             -0.558542045253728E+02
             -0.961994814170689E+01
              0.249752958466972E+02
             -0.995652102491809E+01
              0.591604615264629E+02
              0.152229302301051E+02
              0.798720214163068E+02
              0.279012141797803E+02
             -0.264120026769142E+02
              0.249135104626596E+02
             -0.502302023854656E+01
             -0.323668457388629E+02
              0.133218130425287E+02
              0.205814110006647E+02
              0.931827117934409E+02
              0.796723208175441E+02
              0.550405865007236E+02
              0.730389369598468E+02
              0.798151695465805E+01
             -0.273437009904727E+02
              0.163085437897167E+02
             -0.367828769773280E+02
             -0.475670817751772E+02
             -0.563224858673954E+02
             -0.266289780041473E+02
             -0.109603940670287E+03
             -0.291029225840471E+02
             -0.836395046351230E+02
              0.209827802531225E+02
             -0.476551875326146E+02
              0.396352670187774E+02
             -0.940323868910055E+02
             -0.329877841815536E+02
              0.548457441410320E+02
              0.207612573542810E+02
             -0.829863219122222E+02
              0.630821515077430E+02
             -0.256485555054360E+02
              0.511985821032016E+02
             -0.242648810908474E+02
             -0.750660189465785E+02
              0.111961381447431E+02
             -0.610823828040378E+02
             -0.168213528808927E+02
             -0.146611656398778E+01
              0.418026457413943E+02
              0.126904554398281E+03
             -0.461454881189411E+02
             -0.362553607997396E+02
             -0.969894952871698E+00
             -0.130102003640134E+02
             -0.821999787794161E+02
             -0.596336139490938E+02
              0.516929794991078E+02
             -0.288860954093815E+02
              0.169090603329555E+02
             -0.489076821419530E+02
             -0.131753750285918E+02
             -0.437023858572191E+02
              0.565192960946124E+02
              0.151291781269156E+02
             -0.231436862141513E+02
             -0.126640049649474E+02
              0.665460818668768E+01
             -0.618073529095159E+01
              0.441336702027864E+02
             -0.251841855974867E+02
              0.272457612865662E+01
              0.338827240797575E+02
              0.171372663361722E+02
             -0.159380022822240E+02
              0.156155933409345E+03
              0.537202186013166E+02
              0.116981386317769E+01
              0.161830416302823E+02
             -0.614038661297598E+02
              0.314803721170618E+02
             -0.721210185099049E+02
             -0.251971930450179E+02
             -0.522126763523778E+02
             -0.219862300088997E+02
              0.568681749792836E+02
             -0.536486354171579E+02
              0.160560651928870E+02
             -0.407041981131943E+01
              0.388645015515144E+01
             -0.433644239258708E+02
             -0.478100390107538E+02
             -0.398075026185143E+01
             -0.424903803818601E+02
             -0.217216304594070E+02
             -0.438080317900451E+02
             -0.119283323600593E+02
             -0.358664653700530E+02
             -0.516134343297545E+02
              0.212554706271270E+02
             -0.209326443160656E+02
              0.187577246531787E+02
              0.973804464102135E+01
             -0.737351825717148E+02
             -0.547782957591064E+02
             -0.397595589535277E+02
              0.354018437877226E+02
              0.271023742898231E+01
             -0.626261679541084E+02
              0.585039624268270E+02
             -0.400794893929626E+02
              0.544296079396221E+02
             -0.289159836220191E+02
             -0.445654610582735E+02
              0.298598029899869E+02
             -0.657249719627741E+02
             -0.379502110067174E+02
              0.672145582971575E+02
              0.203717342511105E+02
             -0.359424069889369E+02
              0.488727938353214E+02
             -0.173756283187952E+02
             -0.322322314997408E+02
             -0.301496460078731E+02
             -0.500253133766250E+02
              0.249038566502742E+02
             -0.932208023750152E+02
             -0.839566867021216E+02
             -0.733178823891842E+01
             -0.306659668326802E+02
             -0.575014265452892E+02
              0.721354229832726E+02
              0.131425492300900E+03
             -0.360787551911224E+02
             -0.255392633387964E+01
             -0.636478582409860E+02
              0.650193802997194E+02
              0.170476076553607E+02
             -0.181127967844990E+02
             -0.409773644044250E+02
              0.148633089248797E+02
             -0.585793785842705E+02
             -0.197468692075270E+02
             -0.904105212942994E+02
              0.336622184885248E+02
              0.168949090599394E+02
              0.183929446223578E+01
             -0.703538981041515E+01
             -0.329020584155260E+02
             -0.756327044052574E+01
              0.125388717737030E+03
             -0.199063618302023E+02
             -0.436728931123373E+02
             -0.683380530087796E+02
              0.109003560978999E+02
             -0.341704344348198E+02
              0.588583271799553E+01
              0.261213183582501E+02
              0.101980273425199E+02
              0.277519067114375E+02
              0.119616348073072E+02
              0.629196112431088E+02
              0.316769646997861E+02
             -0.326191383040456E+02
              0.355071759917707E+02
              0.379301202388756E+02
              0.120860076320295E+02
              0.486465289658117E+02
             -0.224441632499839E+02
              0.765232579539477E+02
              0.172176045281229E+02
             -0.271950100683891E+02
             -0.720835828871953E+01
             -0.186169540391332E+02
              0.261831403950200E+02
             -0.234596574960645E+02
             -0.105214061863762E+00
             -0.847044566842499E+01
              0.809325504776776E+02
              0.499558986912569E+02
             -0.686866255327332E+02
             -0.473989442692519E+01
             -0.555158707029328E+02
             -0.159638283248137E+02
             -0.267929294670837E+02
              0.374340751126169E+01
              0.573833228646984E+00
             -0.257176002827345E+02
              0.812432777386729E+01
             -0.602310453816750E+01
             -0.128488190716652E+02
              0.858481062334687E+02
              0.181825131966062E+02
             -0.806189089580784E+02
             -0.457978763257770E+02
              0.944079813877798E+02
              0.277521834004726E+02
             -0.106785943728494E+02
              0.104463770589294E+03
             -0.195033148260222E+02
             -0.123061565973481E+02
             -0.537185977368904E+01
              0.107175933869394E+02
              0.272008494936523E+02
              0.779985454423144E+01
              0.305190946844702E+02
             -0.188043541165368E+02
             -0.303232908754072E+02
             -0.417340191607795E+02
             -0.476419657025842E+02
              0.463639183212989E+02
              0.126812609273378E+02
              0.387195331426356E+02
              0.133267420319115E+02
              0.854880045980231E+02
              0.156364185832572E+02
             -0.845434389699972E+02
             -0.334143079080186E+02
              0.133838713821442E+02
             -0.302645149450325E+02
              0.626007339185837E+02
             -0.885079421333671E+01
              0.148789316603148E+02
              0.496848374191543E+02
             -0.706784849656077E+02
              0.149626157884134E+03
              0.208465601348446E+02
              0.271248810703001E+02
              0.347244470769629E+02
              0.103559744732410E+02
             -0.158753474077565E+01
              0.358288965325239E+02
             -0.356578518707111E+02
              0.772484540566250E+02
              0.684113572730733E+02
             -0.405565774229094E+02
              0.149185149738216E+02
              0.669666226678702E+02
             -0.223911772384296E+02
              0.154185582897409E+02
              0.434940419783113E+02
              0.422074906187008E+02
             -0.784090873791947E+02
             -0.152590441659569E+02
             -0.356051401129318E+02
             -0.147099246928093E+01
             -0.763056305956952E+01
             -0.547448077572290E+01
             -0.180766455614815E+02
             -0.293257688878723E+02
              0.630701345209229E+01
              0.111746905326011E+02
              0.535166090766435E+02
             -0.389816521180554E+02
              0.373815050461263E+02
              0.437980910284296E+02
             -0.186758537180879E+02
              0.871717958160422E+02
             -0.697417300932386E+02
             -0.103104064846643E+03
             -0.658629260277648E+01
             -0.267257252212266E+01
              0.386367583721517E+01
              0.788760216956094E+02
             -0.107093855981713E+02
              0.416319023959950E+02
              0.443023774359487E+02
              0.385165194226696E+02
             -0.993839440946647E+01
              0.627370817311008E+02
             -0.133542766201459E+02
             -0.307056263920896E+02
             -0.479064425403260E+02
              0.587032383858096E+01
              0.369421559701295E+02
             -0.603113991571669E+01
              0.392943572485578E+02
             -0.177161214181331E+01
              0.654979400017437E+02
              0.187485821808064E+02
              0.998423736501857E+01
             -0.121702815089549E+02
              0.331958420900556E+02
              0.362548957004777E+02
              0.232725136864725E+02
             -0.519478424377837E+00
             -0.550074861710604E+02
              0.260550994768665E+02
              0.175078309327714E+02
              0.402430800210199E+02
              0.272078003752147E+02
              0.372329028316626E+02
             -0.605981697200704E+01
              0.250585273607765E+02
             -0.298393258269584E+02
             -0.196055604316496E+01
             -0.568850961954902E+02
             -0.308007402116976E+02
              0.378496783918342E+02
             -0.934904638803049E+02
              0.294297360105600E+02
              0.183801977399213E+02
              0.839425848178300E+02
             -0.300656546626512E+02
              0.329007356531752E+02
             -0.137793164316211E+02
             -0.463720443615564E+02
             -0.761414092094417E+02
             -0.523559783545582E+01
             -0.859092891154983E+02
              0.199801680679287E+02
             -0.247269607043081E+02
              0.305594884686382E+02
              0.236619134089639E+02
             -0.240692673535982E+02
             -0.264861169994930E+02
              0.390768078425181E+02
             -0.587531773312342E+02
             -0.116415155429515E+02
             -0.195966375472598E+02
              0.212325291269626E+02
             -0.893291295072737E+01
              0.363193015618086E+01
             -0.200542201417468E+02
              0.558420056908926E+02
             -0.438772378016702E+02
              0.786101646349903E+01
              0.584675776220821E+02
             -0.323005471533401E+02
              0.359340711714694E+01
             -0.882840438775668E+01
             -0.669024841224012E+02
             -0.482550076026879E+02
             -0.861714760046610E+01
              0.240501562042640E+02
              0.302099076537655E+02
              0.857162278065294E+01
             -0.415290448562928E+01
              0.151848287352443E+02
             -0.439732381031282E+02
              0.334751961756967E+01
             -0.530647257157524E+02
             -0.324580146417078E+02
              0.474402253603681E+02
             -0.294971777625387E+02
              0.621793924509414E+02
             -0.214237676142820E+02
              0.353643087177111E+02
              0.241439810544159E+02
             -0.643584763091010E+02
             -0.280398875494315E+02
              0.932839019435556E+01
             -0.371339802302594E+02
             -0.339434397067037E+02
             -0.829454145557308E+02
             -0.538943808614040E+02
             -0.510094762820688E+02
             -0.415297551105186E+02
             -0.987166024769778E+00
              0.994580871779209E+01
              0.101066775694488E+01
              0.152965119191758E+02
             -0.548964610277361E+02
              0.141560200889018E+02
              0.256107254366020E+02
             -0.666335845215191E+02
             -0.701605539494867E+02
             -0.430884032582841E+02
             -0.171582589364744E+02
              0.178458914554721E+02
              0.455332028034763E+01
             -0.425977881526740E+02
              0.366187812607824E+02
             -0.215963215879813E+02
              0.517154681731931E+02
             -0.886654420539359E+02
              0.597122539726941E+02
             -0.210757117375969E+01
             -0.367962836243641E+02
             -0.216447640141340E+02
              0.471989132212053E+01
              0.374440684676877E+02
             -0.755668226062663E+02
             -0.120824689999375E+02
             -0.216410836501234E+02
              0.510774746620414E+02
              0.864134483149302E+02
             -0.964365619318176E+02
              0.943499579026086E+02
              0.467692970464420E+02
             -0.725011745389313E+02
             -0.366408685149936E+02
              0.751277676446046E+02
              0.631633928767593E+02
             -0.180628707412496E+02
             -0.463821926139212E+01
              0.730310800123875E+01
              0.648467085996645E+02
             -0.507979920190718E+02
              0.158348256516223E+02
             -0.471916985890338E+01
              0.347681056463553E+02
             -0.746426478051335E+02
             -0.648180389395989E+01
             -0.350929112770482E+02
              0.460359444048512E+02
              0.468616376677522E+02
             -0.861195214241690E+02
             -0.486727908468099E+02
             -0.256152582979933E+02
             -0.338974418652080E+02
             -0.109287427038844E+02
             -0.242829047073055E+02
              0.426996264792516E+02
              0.401010036020971E+02
             -0.565593524666565E+01
             -0.415888481687794E+02
             -0.849705838530056E+02
              0.442832239355193E+02
             -0.523012484626428E+02
             -0.312723448592753E+02
              0.546797193671448E+01
             -0.322197574378235E+02
             -0.397738088611898E+02
             -0.239802073095608E+02
             -0.384788188031332E+02
             -0.270818691757301E+02
             -0.482234053900991E+02
              0.563571229630911E+02
              0.637776908249016E+02
[...]
              0.283306070145595E+02
              0.141712382210287E+03
              0.241913718041217E+02
              0.122439653677769E+02
             -0.464236872512597E+02
             -0.637408286056357E+02
             -0.188702057695070E+02
              0.329049448462453E+02
             -0.425955271055136E+01
              0.189418172840353E+02
              0.335836135471596E+02
             -0.586423634368626E+02
              0.222066734999930E+02
              0.582064077581974E+02
              0.552713895735259E+02
             -0.420608567670001E+01
             -0.138214486769266E+01
             -0.992465612725982E+01
             -0.481938201526044E+02
             -0.674439184253742E+02
              0.784952779864287E+02
             -0.523550059755874E+01
             -0.587433620814985E+02
              0.170573827178876E+01
             -0.204989399542692E+02
              0.937629080333967E+02
             -0.216274941393350E+02
             -0.353306185994805E+02
              0.334713365799068E+02
             -0.145510563593854E+02
              0.389216283842514E+02
             -0.240257433191567E+01
              0.101016031146666E+03
              0.489193394507273E+02
             -0.511929826909704E+01
             -0.321642786225115E+02
              0.231951553320004E+02
             -0.528053457230812E+02
             -0.127945854575386E+02
              0.585176081225370E+02
             -0.287396306177926E+02
             -0.438083954146575E+02
             -0.223035385275463E+02
              0.518420368158905E+02
              0.124863949719347E+02
             -0.848164077815949E+02
              0.303478994909220E+02
              0.151888838112462E+02
              0.574531698204208E+01
             -0.512998029894196E+02
             -0.377849970988035E+01
              0.322919668943267E+02
              0.512464117757287E+02
              0.631816940761266E+02
              0.228645466533894E+02
              0.786067942996510E+00
             -0.497407920965850E+02
             -0.509468887119482E+02
             -0.747455586790707E+02
             -0.611883915922510E+01
              0.308560497023253E+02
             -0.377179988049511E+01
              0.546484301477203E+02
             -0.317626716993553E+02
              0.166593760240565E+02
             -0.102249485979343E+02
             -0.289078906265500E+02
              0.584925050602904E+02
              0.791723323437878E+01
              0.603486735369053E+02
              0.506969796491285E+01
              0.264891027903529E+02
             -0.192605682858328E+02
              0.585661073644654E+02
             -0.110981477412829E+02
             -0.146517258395285E+00
             -0.789425934820682E+02
             -0.128292225542531E+02
              0.718448228381282E+02
              0.672718131200781E+02
              0.251525885809761E+02
             -0.130337276498991E+02
              0.341643890591081E+01
             -0.173242628790944E+02
             -0.203147203184687E+01
              0.906786314635492E+02
              0.123987037779477E+01
             -0.190122741530909E+02
             -0.110667163342039E+03
             -0.552428376896167E+02
             -0.374506800182321E+02
             -0.658142423241824E+02
             -0.554816758202688E+02
             -0.682004029016936E+02
             -0.446563664586693E+02
             -0.410663348939589E+02
             -0.451469792217281E+02
              0.482956459754742E+02
             -0.294172046003256E+02
             -0.995057325896853E+02
              0.418383124202006E+02
             -0.259577101150540E+02
             -0.790254852861640E+02
              0.943037700306415E+02
             -0.219438689484589E+02
              0.228018657636636E+02
              0.454787331284270E+02
             -0.138378338492146E+01
              0.254058529665043E+02
              0.469541202642171E+01
              0.424697305350836E+00
             -0.150219331460395E+02
             -0.714707962267035E+02
              0.133010646749145E+02
             -0.129277654181015E+03
              0.623193397831720E+02
             -0.440143090571880E+02
             -0.162844241820520E+02
             -0.158153513084122E+02
              0.710845498059589E+01
             -0.227576122095823E+02
              0.297024400170620E+02
             -0.520113966425162E+02
              0.366873878417395E+02
              0.370116248360581E+02
              0.168573371858097E+02
              0.100166018577928E+02
              0.197591682288184E+02
              0.620272067508461E+01
              0.310217138138904E+02
             -0.797195112384725E+01
             -0.591277824369532E+02
              0.756249453135149E+01
             -0.152337995147658E+02
             -0.191395007593684E+01
              0.505396733626538E+02
             -0.826037286882205E+02
             -0.152565362639018E+01
              0.567970280529266E+00
              0.994314911075753E+01
              0.318234576491996E+02
             -0.123465543686035E+02
              0.835132456224139E+02
              0.487478236024317E+02
             -0.183205063740484E+02
             -0.958346469155720E+01
              0.105214172037844E+01
              0.768959787295826E+02
             -0.585923248926550E+02
             -0.105669985772080E+03
              0.308769186307698E+02
             -0.162786587933141E+02
             -0.139041878060660E+02
              0.130469038790793E+02
              0.767817023909923E+02
              0.463691902925794E+02
             -0.153334752465992E+02
             -0.502446056302374E+02
             -0.548195114723244E+01
              0.306150243943714E+02
             -0.111349075148094E+02
             -0.755023587749988E+02
             -0.269067829657757E+01
             -0.888914613078424E+02
             -0.475166501749358E+02
              0.767506187768784E+02
             -0.482921397621000E+02
             -0.635723478103421E+02
             -0.513717048124467E+02
             -0.349341836995751E+02
              0.340247749587307E+02
              0.820665303014204E+02
             -0.353941430544586E+01
              0.276348488417241E+02
             -0.183436689246257E+02
             -0.693270259032330E+02
              0.464454095709094E+02
             -0.444395856423278E+02
              0.321606603250988E+02
              0.376033628769987E+02
             -0.653433955875977E+01
              0.390340247527749E+02
              0.438049954901405E+02
              0.100528241800895E+03
             -0.156035054485101E+02
             -0.455348321068626E+02
             -0.612246532278897E+02
             -0.123845674807960E+02
             -0.232374671460517E+02
              0.102923881337971E+03
             -0.448345260630176E+02
              0.105151157519619E+02
              0.972891925148281E+01
             -0.264455633706290E+02
             -0.797639080553893E+02
             -0.697624939437623E+01
              0.978764950087944E+02
              0.935788215245606E+01
              0.808769563786473E+01
             -0.526263057060975E+02
             -0.604960171590785E+02
             -0.561911753982562E+01
              0.500020286701676E+02
             -0.221541655466673E+02
              0.107875346308672E+03
             -0.434662981368431E+02
              0.146160832655138E+02
             -0.224236766648113E+02
             -0.717772469805388E+02
              0.167872456362136E+01
             -0.501154273392008E+02
             -0.759912570385100E+02
              0.613303454891923E+01
              0.237564307845824E+01
              0.513556191410997E+02
              0.186994922455266E+02
             -0.323111627755061E+02
              0.229810006255631E+02
             -0.809746399994693E+02
             -0.521427265711167E+02
              0.900819509369121E+02
              0.142502461612401E+02
             -0.188054566958253E+02
             -0.352125464019177E+02
             -0.268074478719188E+01
             -0.586105901609005E+01
              0.828717886748430E+02
              0.417053932896321E+02
             -0.166129656641110E+02
             -0.122031017893295E+02
             -0.427248644678526E+02
             -0.200597269742745E+02
             -0.669484171517645E+02
              0.458966176324315E+02
              0.544596535388385E+01
              0.144813057795176E+02
              0.155823291802996E+02
             -0.555174211247806E+00
             -0.168155497605135E+02
             -0.310946622804743E+01
             -0.100312974781472E+03
             -0.229594447072819E+02
             -0.761727256398336E+01
             -0.947656844996595E+01
              0.546257523562459E+02
              0.622981196559246E+02
              0.164685138938661E+02
             -0.969593513083700E+02
              0.647043473961380E+02
             -0.214846472602194E+02
             -0.376655005932371E+02
             -0.863296380924003E+02
             -0.386667276493372E+02
              0.563625118515837E+02
              0.243557748064115E+02
              0.510699762106475E+01
              0.291875929248317E+02
             -0.564300416585123E+02
             -0.421770691580651E+02
              0.514560699089695E+02
              0.386860218400380E+02
              0.518504150258919E+02
             -0.125664534119113E+01
              0.682551474885713E+01
              0.568914621603255E+02
              0.961674178043006E+02
             -0.300118441362041E+02
              0.322255663121266E+02
             -0.117871857562009E+02
             -0.411615866016184E+02
             -0.313754782890165E+02
             -0.299598732483959E+02
             -0.131244166396970E+02
             -0.523031172044942E+02
             -0.217116987972047E+02
             -0.141014635349246E+03
              0.368375446669052E+02
              0.206635956363153E+02
             -0.392785113296131E+01
             -0.379616604019602E+02
             -0.204103944110206E+02
             -0.526216768108333E+02
              0.150941009213114E+02
              0.819141712468278E+02
             -0.251982276604042E+02
             -0.162763301828937E+02
              0.237822237680466E+02
             -0.488589392478023E+02
              0.879581076277921E+02
              0.154291778064719E+02
              0.226284227217178E+02
              0.489896861972842E+02
              0.323118498850585E+01
              0.541628602189406E+02
              0.142791074225588E+02
             -0.106516386463824E+02
              0.732425034154338E+01
              0.833449708555065E+00
              0.726724952622694E+02
              0.100802738266656E+02
              0.120154172562981E+02
             -0.129761591645234E+02
              0.132045645359120E+02
             -0.910263717489207E+02
             -0.325428597995226E+02
             -0.456862039986956E+02
              0.484916974431974E+02
             -0.290764633525685E+02
             -0.657912915704138E+02
              0.537763321774130E+02
             -0.121966824468539E+02
              0.439627950657979E+02
             -0.897748525144713E+02
              0.231832148832700E+02
              0.858255324704660E+01
              0.582167349497820E+01
             -0.831501216057444E+01
             -0.902436407523021E+01
              0.478756476505837E+02
              0.199957439693242E+01
             -0.474443178722852E+02
             -0.175790217840843E+02
              0.276550948147928E+02
             -0.117789647316662E+03
             -0.928840545819903E+02
              0.397225635915703E+01
              0.117451053938182E+02
             -0.412440015573086E+02
             -0.387911524226610E+01
              0.112011532598943E+03
              0.306465618607153E+02
             -0.570971122972910E+02
              0.924742405338966E+01
             -0.964254928074348E+01
              0.105265504335485E+02
             -0.337068949761626E+02
              0.195009173085035E+02
              0.284313409950985E+02
             -0.300779964029869E+01
              0.108053721454504E+03
             -0.140151589737155E+02
             -0.315612112309972E+02
              0.142692382212452E+02
              0.466115494325658E+02
             -0.355432509140349E+02
             -0.318085793073276E+01
              0.963563712349977E+02
             -0.465273891070626E+01
              0.620973868000074E+02
              0.135219353688930E+02
             -0.903742933156049E+01
             -0.305140360969918E+02
              0.566172072267107E+02
             -0.513678593381725E+02
             -0.220613601468472E+01
             -0.169849263793791E+02
             -0.404754040117749E+02
              0.184571097530613E+02
              0.238686978375519E+02
              0.115994233496511E+02
              0.728169495141060E+00
             -0.384088911391506E+02
              0.215478862875298E+02
             -0.673977496126943E+01
             -0.246471353856334E+02
             -0.210448397589758E+02
              0.203385842342035E+02
             -0.594371787785519E+01
             -0.348743927974579E+02
             -0.106482708690759E+03
              0.102769410685866E+02
              0.248617276741704E+02
             -0.386655930160026E+02
             -0.210674601869874E+02
              0.805991725271342E+02
              0.648670766421364E+01
              0.310359848496619E+02
              0.389660704703846E+01
              0.321485622509007E+02
              0.644575939451533E+01
             -0.372600174749242E+02
             -0.228613892327550E+01
              0.875780927463444E+01
              0.273451077585189E+02
              0.781246695401280E+02
              0.506971275910005E+02
              0.168466818308843E+00
              0.168611212331902E+02
              0.612454288330226E+02
              0.235614985135988E+02
             -0.752230910769010E+02
             -0.273355649724610E+02
              0.150864024431188E+02
              0.561581294294405E+01
              0.254908122501611E+02
             -0.547286432372060E+02
              0.899434912926424E+01
              0.385230785999796E+02
              0.497590859857473E+02
             -0.434584451649856E+02
             -0.691702726389099E+01
             -0.207770740463747E+01
             -0.133690053480528E+02
             -0.365509213371197E+02
             -0.215133396665156E+02
             -0.199259247907898E+01
              0.790938558679409E+01
              0.420843282709650E+02
             -0.308133823339979E+02
              0.825229693401616E+02
              0.327222214400633E+02
              0.219273859502430E+02
              0.332379080322235E+02
              0.322993520250473E+02
              0.345491040709996E+02
              0.536665189056679E+02
             -0.433352496498479E+02
              0.618831264118627E+02
             -0.112119165970092E+03
              0.307146830926276E+02
             -0.106421106919131E+03
              0.853921481088431E+02
              0.689774142415065E+02
             -0.109833642992905E+02
             -0.492810167060310E+02
             -0.428953224072990E+02
             -0.622961868644403E+02
             -0.627994293462749E+02
              0.550994314467283E+02
              0.405145423475764E+02
              0.236667215206972E+02
              0.373681205590467E+02
              0.402634663234465E+02
             -0.381716130383961E+02
             -0.197728295208817E+02
              0.585751905121509E+02
             -0.115735410862077E+02
              0.551033516713618E+02
              0.698603108269363E+02
             -0.552469156394453E+01
             -0.705464077638389E+02
             -0.935260844056415E+00
             -0.245675676573821E+01
             -0.882069824457665E+01
             -0.178019183574651E+01
             -0.652315721033655E+02
             -0.210889351890703E+02
              0.536827869094562E+01
              0.894981884380013E+01
              0.468355223847717E+02
             -0.397384312591452E+02
              0.657027858002502E+02
             -0.424919100862760E+02
              0.209962087134099E+02
              0.349959717261785E+02
 
 BEEF-vdW xc energy contributions
           1 :   -782.354123719432     
           2 :    719.026047999844     
           3 :   -609.168970649329     
           4 :    479.529921358532     
           5 :   -357.515956689923     
           6 :    263.043516396738     
           7 :   -203.923966703668     
           8 :    175.753532263945     
           9 :   -165.902074793330     
          10 :    159.686243140196     
          11 :   -146.194255352903     
          12 :    121.560998699447     
          13 :   -88.8364480810465     
          14 :    55.0720969892378     
          15 :   -27.3086202330558     
          16 :    9.29164110205693     
          17 :  -0.194994166094261     
          18 :   -4.40039666817211     
          19 :    9.99880943416633     
          20 :   -20.4792038161750     
          21 :    36.4255065648780     
          22 :   -55.1518576432549     
          23 :    72.2389790652317     
          24 :   -83.7408408973739     
          25 :    87.9775636225830     
          26 :   -86.1295085545647     
          27 :    81.4577267001491     
          28 :   -77.6218010021502     
          29 :    76.9419208606193     
          30 :   -79.4272442875525     
          31 :   -85.7980047729096     
          32 :   -65.8303082138686     

     Writing output data file ./pwscf.save/
 
     init_run     :    299.83s CPU    304.14s WALL (       1 calls)
     electrons    :  12160.75s CPU  12288.33s WALL (       1 calls)
     forces       :     95.27s CPU     96.50s WALL (       1 calls)

     Called by init_run:
     wfcinit      :    252.76s CPU    256.13s WALL (       1 calls)
     potinit      :     44.24s CPU     44.55s WALL (       1 calls)
     hinit0       :      1.10s CPU      1.13s WALL (       1 calls)

     Called by electrons:
     c_bands      :  10181.55s CPU  10281.30s WALL (      21 calls)
     sum_band     :   1379.75s CPU   1392.01s WALL (      21 calls)
     v_of_rho     :    105.61s CPU    109.86s WALL (      21 calls)
     newd         :     30.41s CPU     41.91s WALL (      21 calls)
     PAW_pot      :    145.35s CPU    145.36s WALL (      21 calls)
     mix_rho      :    362.96s CPU    363.61s WALL (      21 calls)
     vdW_kernel   :     33.60s CPU     33.60s WALL (       1 calls)

     Called by c_bands:
     init_us_2    :     78.64s CPU     78.93s WALL (     572 calls)
     cegterg      :   9381.66s CPU   9481.04s WALL (     273 calls)

     Called by *egterg:
     cdiaghg      :    106.07s CPU    106.09s WALL (    1556 calls)
     h_psi        :   5833.23s CPU   5867.56s WALL (    1582 calls)
     s_psi        :   1056.61s CPU   1056.61s WALL (    1582 calls)
     g_psi        :     16.78s CPU     16.78s WALL (    1296 calls)

     Called by h_psi:
     h_psi:calbec :    993.90s CPU    994.08s WALL (    1582 calls)
     vloc_psi     :   3755.38s CPU   3756.35s WALL (    1582 calls)
     add_vuspsi   :   1057.31s CPU   1057.41s WALL (    1582 calls)

     General routines
     calbec       :   1460.94s CPU   1461.15s WALL (    1907 calls)
     fft          :     46.21s CPU     46.23s WALL (    3281 calls)
     ffts         :    112.70s CPU    112.72s WALL (    9086 calls)
     fftw         :   3889.42s CPU   3889.92s WALL (  347256 calls)
 
     Parallel routines
 
     PWSCF        :      3h31m CPU      3h33m WALL

 
   This run was terminated on:  20: 7:36  20May2022            

=------------------------------------------------------------------------------=
   JOB DONE.
=------------------------------------------------------------------------------=
