
     Program PWSCF v.6.7MaX starts on  3Jan2023 at 22:24:16 

     This program is part of the open-source Quantum ESPRESSO suite
     for quantum simulation of materials; please cite
         "P. Giannozzi et al., J. Phys.:Condens. Matter 21 395502 (2009);
         "P. Giannozzi et al., J. Phys.:Condens. Matter 29 465901 (2017);
          URL http://www.quantum-espresso.org", 
     in publications or presentations arising from this work. More details at
     http://www.quantum-espresso.org/quote

     Parallel version (MPI), running on     1 processors

     MPI processes distributed on     1 nodes
     Reading input from ccch3-ensemble.in
Warning: card &CELL ignored
Warning: card / ignored

     Current dimensions of program PWSCF are:
     Max number of different atomic species (ntypx) = 10
     Max number of k-points (npk) =  40000
     Max angular momentum in pseudopotentials (lmaxx) =  3
     file Pt.pbe-n-kjpaw_psl.1.0.0.UPF: wavefunction(s)  6S 5D renormalized
     file C.pbe-n-kjpaw_psl.1.0.0.UPF: wavefunction(s)  2S 2P renormalized
     file H.pbe-kjpaw_psl.1.0.0.UPF: wavefunction(s)  1S renormalized

     **************************************************************************
     Initializing libbeef V0.1.2 with the BEEF-vdW functional.
     Citation: Wellendorff et al., PRB 85, 235149 (2012).
     **************************************************************************


     IMPORTANT: XC functional enforced from input :
     Exchange-correlation= BEEF-VDW
                           (   1   4  43  14   2   0   0)
     Any further DFT definition will be discarded
     Please, verify this is what you really want


     Subspace diagonalization in iterative solution of the eigenvalue problem:
     a serial algorithm will be used

 
     G-vector sticks info
     --------------------
     sticks:   dense  smooth     PW     G-vecs:    dense   smooth      PW
     Sum        4267    4267   1159               739923   739923  104253
 


     bravais-lattice index     =            0
     lattice parameter (alat)  =      16.0349  a.u.
     unit-cell volume          =   11779.4823 (a.u.)^3
     number of atoms/cell      =           42
     number of atomic types    =            3
     number of electrons       =       375.00
     number of Kohn-Sham states=          226
     kinetic-energy cutoff     =      60.0000  Ry
     charge density cutoff     =     240.0000  Ry
     scf convergence threshold =      1.0E-06
     mixing beta               =       0.7000
     number of iterations used =            8  local-TF  mixing
     Exchange-correlation= BEEF-VDW
                           (   1   4  43  14   2   0   0)

     celldm(1)=  16.034858  celldm(2)=   0.000000  celldm(3)=   0.000000
     celldm(4)=   0.000000  celldm(5)=   0.000000  celldm(6)=   0.000000

     crystal axes: (cart. coord. in units of alat)
               a(1) = (   1.000000   0.000000   0.000000 )  
               a(2) = (   0.500000   0.866025   0.000000 )  
               a(3) = (   0.000000   0.000000   3.299136 )  

     reciprocal axes: (cart. coord. in units 2 pi/alat)
               b(1) = (  1.000000 -0.577350  0.000000 )  
               b(2) = (  0.000000  1.154701  0.000000 )  
               b(3) = (  0.000000  0.000000  0.303110 )  


     PseudoPot. # 1 for Pt read from file:
     /users/bkreitz1/quantum-espresso/potentials/Pt.pbe-n-kjpaw_psl.1.0.0.UPF
     MD5 check sum: 04dc8a03c51ece93fc7b5889c2958091
     Pseudo is Projector augmented-wave + core cor, Zval = 10.0
     Generated using 'atomic' code by A. Dal Corso  v.6.7MaX
     Shape of augmentation charge: PSQ
     Using radial grid of 1277 points,  6 beta functions with: 
                l(1) =   0
                l(2) =   0
                l(3) =   1
                l(4) =   1
                l(5) =   2
                l(6) =   2
     Q(r) pseudized with 0 coefficients 


     PseudoPot. # 2 for C  read from file:
     /users/bkreitz1/quantum-espresso/potentials/C.pbe-n-kjpaw_psl.1.0.0.UPF
     MD5 check sum: a169b0ebad56f5ec0d79c4633f80bf22
     Pseudo is Projector augmented-wave + core cor, Zval =  4.0
     Generated using 'atomic' code by A. Dal Corso  v.6.7MaX
     Shape of augmentation charge: PSQ
     Using radial grid of 1073 points,  4 beta functions with: 
                l(1) =   0
                l(2) =   0
                l(3) =   1
                l(4) =   1
     Q(r) pseudized with 0 coefficients 


     PseudoPot. # 3 for H  read from file:
     /users/bkreitz1/quantum-espresso/potentials/H.pbe-kjpaw_psl.1.0.0.UPF
     MD5 check sum: ae98473e6dc62675f0d0baffdab24f65
     Pseudo is Projector augmented-wave, Zval =  1.0
     Generated using 'atomic' code by A. Dal Corso  v.6.7MaX
     Shape of augmentation charge: PSQ
     Using radial grid of  929 points,  2 beta functions with: 
                l(1) =   0
                l(2) =   0
     Q(r) pseudized with 0 coefficients 


     atomic species   valence    mass     pseudopotential
        Pt            10.00   195.08400     Pt( 1.00)
        C              4.00    12.01100     C ( 1.00)
        H              1.00     1.00800     H ( 1.00)

     No symmetry found



   Cartesian axes

     site n.     atom                  positions (alat units)
         1           Pt  tau(   1) = (   0.0000000   0.0000000   1.0017346  )
         2           Pt  tau(   2) = (   0.3333333   0.0000000   1.0017346  )
         3           Pt  tau(   3) = (   0.6666667   0.0000000   1.0017346  )
         4           Pt  tau(   4) = (   0.1666667   0.2886751   1.0017346  )
         5           Pt  tau(   5) = (   0.5000000   0.2886751   1.0017346  )
         6           Pt  tau(   6) = (   0.8333333   0.2886751   1.0017346  )
         7           Pt  tau(   7) = (   0.3333333   0.5773503   1.0017346  )
         8           Pt  tau(   8) = (   0.6666667   0.5773503   1.0017346  )
         9           Pt  tau(   9) = (   1.0000000   0.5773503   1.0017346  )
        10           Pt  tau(  10) = (   0.1666667   0.0962250   1.2739001  )
        11           Pt  tau(  11) = (   0.5000000   0.0962250   1.2739001  )
        12           Pt  tau(  12) = (   0.8333333   0.0962250   1.2739001  )
        13           Pt  tau(  13) = (   0.3333333   0.3849002   1.2739001  )
        14           Pt  tau(  14) = (   0.6666667   0.3849002   1.2739001  )
        15           Pt  tau(  15) = (   1.0000000   0.3849002   1.2739001  )
        16           Pt  tau(  16) = (   0.5000000   0.6735753   1.2739001  )
        17           Pt  tau(  17) = (   0.8333333   0.6735753   1.2739001  )
        18           Pt  tau(  18) = (   1.1666667   0.6735753   1.2739001  )
        19           Pt  tau(  19) = (  -0.0021039   0.1954171   1.5448897  )
        20           Pt  tau(  20) = (   0.3354377   0.1954234   1.5448804  )
        21           Pt  tau(  21) = (   0.6666471   0.1946610   1.5451030  )
        22           Pt  tau(  22) = (   0.1666691   0.4824463   1.5411143  )
        23           Pt  tau(  23) = (   0.5009589   0.4820767   1.5463166  )
        24           Pt  tau(  24) = (   0.8323499   0.4820867   1.5463346  )
        25           Pt  tau(  25) = (   0.3336627   0.7711831   1.5420204  )
        26           Pt  tau(  26) = (   0.6666605   0.7679518   1.5480863  )
        27           Pt  tau(  27) = (   0.9996547   0.7711933   1.5420236  )
        28           Pt  tau(  28) = (  -0.0009995   0.0054562   1.8180614  )
        29           Pt  tau(  29) = (   0.3343177   0.0054626   1.8180406  )
        30           Pt  tau(  30) = (   0.6666435  -0.0029737   1.8161382  )
        31           Pt  tau(  31) = (   0.1666654   0.2914813   1.8170280  )
        32           Pt  tau(  32) = (   0.4910412   0.2826985   1.8281812  )
        33           Pt  tau(  33) = (   0.8422770   0.2826932   1.8281836  )
        34           Pt  tau(  34) = (   0.3302939   0.5802444   1.8149176  )
        35           Pt  tau(  35) = (   0.6666583   0.5996136   1.8312653  )
        36           Pt  tau(  36) = (   1.0030171   0.5802523   1.8149172  )
        37           C   tau(  37) = (   0.6666579   0.3712018   1.9604154  )
        38           C   tau(  38) = (   0.6666992   0.5016668   2.0487849  )
        39           C   tau(  39) = (   0.6667651   0.5657214   2.2092310  )
        40           H   tau(  40) = (   0.6667692   0.4717353   2.2971221  )
        41           H   tau(  41) = (   0.7702842   0.6406938   2.2259544  )
        42           H   tau(  42) = (   0.5632932   0.6407462   2.2271994  )

     number of k points=    13  Marzari-Vanderbilt smearing, width (Ry)=  0.0200
                       cart. coord. in units 2pi/alat
        k(    1) = (   0.0000000   0.0000000   0.0000000), wk =   0.0800000
        k(    2) = (   0.0000000   0.2309401   0.0000000), wk =   0.1600000
        k(    3) = (   0.0000000   0.4618802   0.0000000), wk =   0.1600000
        k(    4) = (   0.2000000  -0.1154701   0.0000000), wk =   0.1600000
        k(    5) = (   0.2000000   0.1154701   0.0000000), wk =   0.1600000
        k(    6) = (   0.2000000   0.3464102   0.0000000), wk =   0.1600000
        k(    7) = (   0.2000000  -0.5773503   0.0000000), wk =   0.1600000
        k(    8) = (   0.2000000  -0.3464102   0.0000000), wk =   0.1600000
        k(    9) = (   0.4000000  -0.2309401   0.0000000), wk =   0.1600000
        k(   10) = (   0.4000000  -0.0000000   0.0000000), wk =   0.1600000
        k(   11) = (   0.4000000   0.2309401   0.0000000), wk =   0.1600000
        k(   12) = (   0.4000000  -0.6928203   0.0000000), wk =   0.1600000
        k(   13) = (   0.4000000  -0.4618802   0.0000000), wk =   0.1600000

     Dense  grid:   739923 G-vectors     FFT dimensions: (  80,  80, 270)

     Estimated max dynamical RAM per process >       8.98 GB

     Check: negative core charge=   -0.000002

     Initial potential from superposition of free atoms

     starting charge  374.99374, renormalised to  375.00000

     negative rho (up, down):  1.191E-02 0.000E+00


     %%%%%%%%%%%%%%%%%%%%%%%%%%%%%%%%%%%%%%%%%%%%%%%%%%%%%%%%%%%%%%%%%%%%%%%%
     %                                                                      %
     % You are using vdW-DF, which was implemented by the Thonhauser group. %
     % Please cite the following two papers that made this development      %
     % possible and the two reviews that describe the various versions:     %
     %                                                                      %
     %   T. Thonhauser et al., PRL 115, 136402 (2015).                      %
     %   T. Thonhauser et al., PRB 76, 125112 (2007).                       %
     %   K. Berland et al., Rep. Prog. Phys. 78, 066501 (2015).             %
     %   D.C. Langreth et al., J. Phys.: Condens. Matter 21, 084203 (2009). %
     %                                                                      %
     %                                                                      %
     % If you are calculating the stress with vdW-DF, please also cite:     %
     %                                                                      %
     %   R. Sabatini et al., J. Phys.: Condens. Matter 24, 424209 (2012).   %
     %                                                                      %
     %%%%%%%%%%%%%%%%%%%%%%%%%%%%%%%%%%%%%%%%%%%%%%%%%%%%%%%%%%%%%%%%%%%%%%%%


     Starting wfcs are  339 randomized atomic wfcs
     Checking if some PAW data can be deallocated... 

     total cpu time spent up to now is      395.0 secs

     Self-consistent Calculation

     iteration #  1     ecut=    60.00 Ry     beta= 0.70
     Davidson diagonalization with overlap
     ethr =  1.00E-02,  avg # of iterations =  2.2

     Threshold (ethr) on eigenvalues was too large:
     Diagonalizing with lowered threshold

     Davidson diagonalization with overlap
     ethr =  9.68E-04,  avg # of iterations =  2.3

     negative rho (up, down):  1.196E-02 0.000E+00

     total cpu time spent up to now is     1860.3 secs

     total energy              =  -27814.43623253 Ry
     estimated scf accuracy    <       3.88555932 Ry

     iteration #  2     ecut=    60.00 Ry     beta= 0.70
     Davidson diagonalization with overlap
     ethr =  1.04E-03,  avg # of iterations =  2.0

     negative rho (up, down):  1.002E-02 0.000E+00

     total cpu time spent up to now is     2556.6 secs

     total energy              =  -27814.72673643 Ry
     estimated scf accuracy    <       1.16780610 Ry

     iteration #  3     ecut=    60.00 Ry     beta= 0.70
     Davidson diagonalization with overlap
     ethr =  3.11E-04,  avg # of iterations =  8.8

     negative rho (up, down):  8.074E-03 0.000E+00

     total cpu time spent up to now is     3322.3 secs

     total energy              =  -27814.80058347 Ry
     estimated scf accuracy    <       0.58508948 Ry

     iteration #  4     ecut=    60.00 Ry     beta= 0.70
     Davidson diagonalization with overlap
     ethr =  1.56E-04,  avg # of iterations =  5.4

     negative rho (up, down):  5.638E-03 0.000E+00

     total cpu time spent up to now is     4048.7 secs

     total energy              =  -27814.83712026 Ry
     estimated scf accuracy    <       0.13585944 Ry

     iteration #  5     ecut=    60.00 Ry     beta= 0.70
     Davidson diagonalization with overlap
     ethr =  3.62E-05,  avg # of iterations = 13.5

     negative rho (up, down):  4.085E-03 0.000E+00

     total cpu time spent up to now is     5097.2 secs

     total energy              =  -27814.86011282 Ry
     estimated scf accuracy    <       0.11948609 Ry

     iteration #  6     ecut=    60.00 Ry     beta= 0.70
     Davidson diagonalization with overlap
     ethr =  3.19E-05,  avg # of iterations =  1.4

     negative rho (up, down):  3.273E-03 0.000E+00

     total cpu time spent up to now is     5739.1 secs

     total energy              =  -27814.86395233 Ry
     estimated scf accuracy    <       0.00926846 Ry

     iteration #  7     ecut=    60.00 Ry     beta= 0.70
     Davidson diagonalization with overlap
     c_bands:  3 eigenvalues not converged
     c_bands:  3 eigenvalues not converged
     c_bands:  2 eigenvalues not converged
     c_bands:  1 eigenvalues not converged
     ethr =  2.47E-06,  avg # of iterations = 16.1

     negative rho (up, down):  3.018E-03 0.000E+00

     total cpu time spent up to now is     6887.5 secs

     total energy              =  -27814.86669723 Ry
     estimated scf accuracy    <       0.00734791 Ry

     iteration #  8     ecut=    60.00 Ry     beta= 0.70
     Davidson diagonalization with overlap
     ethr =  1.96E-06,  avg # of iterations =  5.3

     negative rho (up, down):  3.008E-03 0.000E+00

     total cpu time spent up to now is     7590.0 secs

     total energy              =  -27814.86725578 Ry
     estimated scf accuracy    <       0.00237529 Ry

     iteration #  9     ecut=    60.00 Ry     beta= 0.70
     Davidson diagonalization with overlap
     c_bands:  1 eigenvalues not converged
     ethr =  6.33E-07,  avg # of iterations =  8.2

     negative rho (up, down):  3.421E-03 0.000E+00

     total cpu time spent up to now is     8343.1 secs

     total energy              =  -27814.86748120 Ry
     estimated scf accuracy    <       0.00196260 Ry

     iteration # 10     ecut=    60.00 Ry     beta= 0.70
     Davidson diagonalization with overlap
     c_bands:  1 eigenvalues not converged
     ethr =  5.23E-07,  avg # of iterations =  6.5

     negative rho (up, down):  4.844E-03 0.000E+00

     total cpu time spent up to now is     9068.7 secs

     total energy              =  -27814.86756389 Ry
     estimated scf accuracy    <       0.00184602 Ry

     iteration # 11     ecut=    60.00 Ry     beta= 0.70
     Davidson diagonalization with overlap
     c_bands:  1 eigenvalues not converged
     c_bands:  1 eigenvalues not converged
     ethr =  4.92E-07,  avg # of iterations = 10.2

     negative rho (up, down):  8.431E-03 0.000E+00

     total cpu time spent up to now is     9827.5 secs

     total energy              =  -27814.86751678 Ry
     estimated scf accuracy    <       0.00149091 Ry

     iteration # 12     ecut=    60.00 Ry     beta= 0.70
     Davidson diagonalization with overlap
     ethr =  3.98E-07,  avg # of iterations =  5.5

     negative rho (up, down):  9.542E-03 0.000E+00

     total cpu time spent up to now is    10513.1 secs

     total energy              =  -27814.86749309 Ry
     estimated scf accuracy    <       0.00108489 Ry

     iteration # 13     ecut=    60.00 Ry     beta= 0.70
     Davidson diagonalization with overlap
     ethr =  2.89E-07,  avg # of iterations =  1.1

     negative rho (up, down):  1.309E-02 0.000E+00

     total cpu time spent up to now is    11136.7 secs

     total energy              =  -27814.86748078 Ry
     estimated scf accuracy    <       0.00048731 Ry

     iteration # 14     ecut=    60.00 Ry     beta= 0.70
     Davidson diagonalization with overlap
     ethr =  1.30E-07,  avg # of iterations =  3.7

     negative rho (up, down):  1.330E-02 0.000E+00

     total cpu time spent up to now is    11827.6 secs

     total energy              =  -27814.86750673 Ry
     estimated scf accuracy    <       0.00008493 Ry

     iteration # 15     ecut=    60.00 Ry     beta= 0.70
     Davidson diagonalization with overlap
     ethr =  2.26E-08,  avg # of iterations =  2.9

     negative rho (up, down):  1.409E-02 0.000E+00

     total cpu time spent up to now is    12563.0 secs

     total energy              =  -27814.86750954 Ry
     estimated scf accuracy    <       0.00008345 Ry

     iteration # 16     ecut=    60.00 Ry     beta= 0.70
     Davidson diagonalization with overlap
     c_bands:  1 eigenvalues not converged
     ethr =  2.23E-08,  avg # of iterations =  5.0

     negative rho (up, down):  1.371E-02 0.000E+00

     total cpu time spent up to now is    13270.9 secs

     total energy              =  -27814.86751563 Ry
     estimated scf accuracy    <       0.00000398 Ry

     iteration # 17     ecut=    60.00 Ry     beta= 0.70
     Davidson diagonalization with overlap
     ethr =  1.06E-09,  avg # of iterations =  6.7

     negative rho (up, down):  1.367E-02 0.000E+00

     total cpu time spent up to now is    14872.8 secs

     total energy              =  -27814.86752042 Ry
     estimated scf accuracy    <       0.00000343 Ry

     iteration # 18     ecut=    60.00 Ry     beta= 0.70
     Davidson diagonalization with overlap
     c_bands:  1 eigenvalues not converged
     ethr =  9.15E-10,  avg # of iterations =  2.7

     negative rho (up, down):  1.349E-02 0.000E+00

     total cpu time spent up to now is    15497.3 secs

     End of self-consistent calculation

          k = 0.0000 0.0000 0.0000 ( 92567 PWs)   bands (ev):

   -14.3241 -11.9833  -7.2445  -6.8429  -5.6675  -5.2249  -5.1122  -4.9787
    -4.5376  -4.5240  -4.5008  -4.4949  -4.4632  -4.4465  -4.4339  -4.3629
    -4.1156  -3.9646  -3.9627  -3.9548  -3.9294  -3.8613  -3.7941  -3.6562
    -3.5262  -3.5070  -3.4683  -3.3703  -3.3327  -3.3127  -3.2828  -3.2823
    -3.2573  -3.2269  -3.1662  -3.1436  -3.1276  -3.0881  -3.0416  -3.0267
    -3.0237  -2.9989  -2.9745  -2.9692  -2.9515  -2.8740  -2.7104  -2.6018
    -2.5269  -2.4611  -2.4318  -2.4297  -2.3959  -2.3855  -2.3515  -2.3382
    -2.3149  -2.2088  -2.1610  -2.1375  -2.0854  -1.9530  -1.8988  -1.7382
    -1.7008  -1.6311  -1.6296  -1.5859  -1.5489  -1.5041  -1.4802  -1.4717
    -1.4126  -1.4123  -1.3969  -1.3932  -1.3767  -1.3726  -1.3522  -1.3231
    -1.3180  -1.3075  -1.3000  -1.2848  -1.2569  -1.2359  -1.2218  -1.2004
    -1.1985  -1.1770  -1.0438  -1.0356  -1.0124  -0.9939  -0.9763  -0.9643
    -0.9410  -0.9409  -0.9202  -0.8713  -0.8664  -0.8639  -0.7850  -0.7814
    -0.7347  -0.7321  -0.7120  -0.7054  -0.6727  -0.6365  -0.6172  -0.5787
    -0.5656  -0.5589  -0.4395  -0.2722  -0.2423  -0.1622  -0.1466  -0.1336
    -0.0663  -0.0601  -0.0532  -0.0163   0.0366   0.0885   0.0888   0.1196
     0.1479   0.1561   0.1685   0.1832   0.1886   0.2788   0.3401   0.3683
     0.4186   0.4302   0.4424   0.4597   0.5290   0.5646   0.6472   0.6826
     0.6906   0.7261   0.7322   0.7389   0.7560   0.7985   0.8270   0.8515
     0.9160   0.9395   0.9429   0.9799   1.0412   1.0467   1.1149   1.1189
     1.1229   1.1309   1.1353   1.1380   1.1507   1.1613   1.1634   1.2077
     1.2306   1.2484   1.2514   1.2598   1.3244   1.3264   1.3478   1.3543
     1.3608   1.4025   1.4085   1.4401   1.4403   1.4908   1.4933   1.4976
     1.5178   1.5296   1.5332   1.5815   1.5816   1.5967   1.6117   1.6394
     1.6550   1.7267   1.7353   1.8404   1.8854   1.8968   1.9380   1.9483
     1.9583   1.9609   2.0401   2.4014   2.6835   2.7653   2.8085   2.8268
     3.0334   3.3128   4.5537   4.6216   5.0521   5.1133   5.1343   5.2373
     5.5662   5.6664   5.9859   6.3882   6.6326   6.7322   6.7515   6.7806
     6.8104   6.8354

          k = 0.0000 0.2309 0.0000 ( 92426 PWs)   bands (ev):

   -14.3238 -11.9828  -7.2252  -6.7131  -5.5563  -5.2615  -5.0782  -4.9706
    -4.9143  -4.5989  -4.5712  -4.3784  -4.3443  -4.2764  -4.2616  -4.2311
    -4.0566  -4.0496  -3.9697  -3.8988  -3.8882  -3.8451  -3.7144  -3.5906
    -3.5539  -3.4771  -3.4233  -3.4068  -3.3587  -3.3574  -3.3314  -3.2670
    -3.2666  -3.2322  -3.1905  -3.1463  -3.1313  -3.1084  -3.0594  -3.0560
    -3.0257  -2.9739  -2.8739  -2.8490  -2.8372  -2.8021  -2.6765  -2.6080
    -2.5804  -2.5639  -2.4900  -2.4834  -2.4264  -2.4181  -2.3701  -2.3204
    -2.2635  -2.2152  -2.1721  -2.0950  -2.0905  -2.0213  -1.9585  -1.8301
    -1.8041  -1.7616  -1.7546  -1.7405  -1.6706  -1.6702  -1.6343  -1.6194
    -1.5606  -1.5349  -1.4813  -1.4686  -1.4353  -1.4104  -1.3965  -1.3723
    -1.3377  -1.3006  -1.2575  -1.2516  -1.2217  -1.2110  -1.1638  -1.1613
    -1.1459  -1.0954  -1.0871  -1.0599  -1.0193  -1.0077  -0.9885  -0.9689
    -0.9444  -0.9356  -0.9212  -0.9142  -0.8486  -0.8412  -0.8215  -0.7873
    -0.7733  -0.7700  -0.7461  -0.7244  -0.7088  -0.6684  -0.6164  -0.6003
    -0.5429  -0.5278  -0.5247  -0.4642  -0.4634  -0.4445  -0.4200  -0.2747
    -0.2605  -0.1540  -0.1207  -0.0890  -0.0841  -0.0420  -0.0107   0.0020
     0.0297   0.1195   0.1794   0.2118   0.2450   0.2612   0.3056   0.3300
     0.3534   0.3607   0.3881   0.3958   0.4878   0.5182   0.5531   0.5723
     0.5734   0.5959   0.6878   0.7119   0.7176   0.7624   0.7642   0.8021
     0.8474   0.9039   0.9228   0.9333   0.9578   0.9728   1.0063   1.0617
     1.0708   1.1229   1.1327   1.1499   1.1720   1.2208   1.2526   1.2892
     1.3002   1.3470   1.3486   1.4044   1.4288   1.4642   1.4792   1.4937
     1.5061   1.5661   1.5739   1.5823   1.6043   1.6145   1.6450   1.6524
     1.6837   1.7175   1.7874   1.8146   1.8429   1.8600   1.8706   1.9005
     1.9053   1.9395   1.9551   1.9586   2.0307   2.0653   2.0892   2.1171
     2.1763   2.2461   2.2537   2.4944   2.6102   2.7787   3.2805   3.4263
     3.4367   3.5697   4.4446   4.5231   4.6573   5.1750   5.2795   5.5864
     5.6106   5.6591   5.8333   5.9646   6.0694   6.5005   6.5960   6.6157
     6.7125   6.9214

          k = 0.0000 0.4619 0.0000 ( 92456 PWs)   bands (ev):

   -14.3233 -11.9821  -7.2015  -6.3184  -5.7165  -5.3156  -5.1788  -4.9578
    -4.8931  -4.6232  -4.6009  -4.4517  -4.2488  -4.1055  -4.0352  -3.9908
    -3.9627  -3.9086  -3.8733  -3.7727  -3.7352  -3.7003  -3.6803  -3.5926
    -3.5867  -3.5520  -3.5190  -3.4804  -3.4454  -3.4109  -3.3897  -3.3675
    -3.3212  -3.3112  -3.2025  -3.1372  -3.1011  -3.0768  -3.0567  -2.9861
    -2.9414  -2.8967  -2.8666  -2.8267  -2.8130  -2.7232  -2.6945  -2.6390
    -2.5670  -2.5325  -2.4793  -2.4701  -2.4182  -2.4146  -2.3592  -2.3313
    -2.3137  -2.3069  -2.2198  -2.1723  -2.1574  -2.1101  -2.0884  -2.0014
    -1.9763  -1.9403  -1.9399  -1.8884  -1.7988  -1.7485  -1.7484  -1.7376
    -1.6724  -1.6214  -1.5864  -1.5769  -1.5568  -1.5266  -1.4444  -1.4432
    -1.3828  -1.3805  -1.3653  -1.2951  -1.2852  -1.2690  -1.2663  -1.2272
    -1.1855  -1.1782  -1.1675  -1.1434  -1.1399  -1.0911  -1.0598  -1.0244
    -1.0043  -0.9945  -0.9758  -0.9469  -0.8933  -0.8844  -0.8627  -0.8155
    -0.7818  -0.7693  -0.7492  -0.7188  -0.7130  -0.6641  -0.6491  -0.5583
    -0.5345  -0.4967  -0.4823  -0.4696  -0.4121  -0.3642  -0.3297  -0.3209
    -0.2347  -0.2279  -0.1624  -0.1602  -0.1511  -0.0864  -0.0693  -0.0650
    -0.0206  -0.0127   0.0026   0.0231   0.0495   0.0691   0.1360   0.1421
     0.2088   0.2228   0.2503   0.2874   0.2937   0.4312   0.4587   0.5072
     0.5246   0.5616   0.6334   0.6595   0.7045   0.7108   0.7932   0.8122
     0.8151   0.8378   0.8552   0.8909   0.9067   0.9722   1.0005   1.0270
     1.0704   1.0896   1.0953   1.1329   1.1659   1.2210   1.2930   1.3208
     1.3363   1.3472   1.4667   1.4875   1.4989   1.5006   1.5320   1.5512
     1.6093   1.6392   1.6485   1.6895   1.7447   1.7479   1.7990   1.8161
     1.8180   1.8413   1.8738   1.9019   1.9326   1.9849   2.0362   2.0742
     2.0800   2.1215   2.1901   2.1927   2.3306   2.4962   2.6908   2.7602
     2.9790   3.1291   3.1529   3.3782   3.5082   3.7100   3.7852   4.0691
     4.2335   4.2684   4.4085   4.4447   4.5117   4.6547   4.7058   4.9487
     5.0978   5.4154   5.5300   5.5526   5.8916   6.1087   6.1893   6.2582
     6.5652   6.7574

          k = 0.2000-0.1155 0.0000 ( 92426 PWs)   bands (ev):

   -14.3239 -11.9829  -7.2126  -6.7180  -5.5584  -5.2377  -5.1011  -5.0330
    -4.8771  -4.5895  -4.5685  -4.3763  -4.3447  -4.2874  -4.2553  -4.2121
    -4.1303  -4.0411  -3.9594  -3.8938  -3.8735  -3.7964  -3.7608  -3.6152
    -3.5470  -3.4673  -3.4344  -3.4143  -3.3748  -3.3417  -3.3089  -3.2840
    -3.2565  -3.2203  -3.1907  -3.1527  -3.1242  -3.1129  -3.0707  -3.0576
    -3.0241  -2.9329  -2.8850  -2.8601  -2.8060  -2.7833  -2.7144  -2.6333
    -2.5858  -2.5281  -2.5008  -2.4889  -2.4555  -2.4269  -2.3624  -2.2972
    -2.2393  -2.1946  -2.1760  -2.1411  -2.0935  -1.9746  -1.9596  -1.8385
    -1.7997  -1.7584  -1.7493  -1.7298  -1.6800  -1.6609  -1.6253  -1.6081
    -1.5692  -1.5542  -1.4808  -1.4743  -1.4264  -1.4173  -1.3878  -1.3577
    -1.3314  -1.2982  -1.2806  -1.2366  -1.2148  -1.2020  -1.1653  -1.1558
    -1.1390  -1.0980  -1.0826  -1.0540  -1.0292  -1.0093  -0.9915  -0.9694
    -0.9605  -0.9398  -0.9168  -0.8841  -0.8550  -0.8452  -0.8227  -0.8122
    -0.7822  -0.7674  -0.7536  -0.7342  -0.7135  -0.6735  -0.6071  -0.5757
    -0.5557  -0.5389  -0.5197  -0.4673  -0.4632  -0.4606  -0.4009  -0.3381
    -0.2318  -0.1472  -0.1194  -0.0871  -0.0600  -0.0451  -0.0169  -0.0038
     0.0629   0.1311   0.1717   0.2056   0.2425   0.2659   0.2834   0.3238
     0.3541   0.3637   0.3838   0.4007   0.4419   0.5207   0.5458   0.5699
     0.5796   0.5979   0.6606   0.7054   0.7266   0.7529   0.7715   0.8261
     0.8512   0.9141   0.9292   0.9388   0.9594   0.9776   1.0002   1.0593
     1.0709   1.1108   1.1375   1.1536   1.1751   1.2155   1.2454   1.2913
     1.3028   1.3477   1.3684   1.4127   1.4328   1.4568   1.4731   1.4898
     1.5033   1.5633   1.5748   1.5767   1.6037   1.6191   1.6423   1.6599
     1.6969   1.7214   1.7926   1.8112   1.8437   1.8556   1.8751   1.8940
     1.9087   1.9305   1.9456   1.9813   2.0086   2.0644   2.0790   2.1465
     2.1993   2.2456   2.2569   2.4378   2.6067   2.9173   3.2051   3.3606
     3.5007   3.5844   4.2103   4.5564   4.9080   5.1379   5.3506   5.4569
     5.5829   5.6698   5.7716   5.9382   6.0915   6.5072   6.5392   6.6445
     6.8139   6.8880

          k = 0.2000 0.1155 0.0000 ( 92426 PWs)   bands (ev):

   -14.3239 -11.9829  -7.2126  -6.7180  -5.5584  -5.2373  -5.1048  -5.0269
    -4.8806  -4.5886  -4.5685  -4.3760  -4.3443  -4.2884  -4.2548  -4.2124
    -4.1314  -4.0407  -3.9581  -3.8938  -3.8735  -3.7961  -3.7618  -3.6150
    -3.5471  -3.4674  -3.4345  -3.4142  -3.3746  -3.3416  -3.3089  -3.2840
    -3.2565  -3.2203  -3.1907  -3.1528  -3.1242  -3.1128  -3.0708  -3.0577
    -3.0242  -2.9331  -2.8849  -2.8601  -2.8060  -2.7837  -2.7140  -2.6333
    -2.5858  -2.5281  -2.5008  -2.4888  -2.4555  -2.4267  -2.3623  -2.2972
    -2.2394  -2.1947  -2.1760  -2.1411  -2.0935  -1.9745  -1.9597  -1.8385
    -1.7997  -1.7585  -1.7494  -1.7298  -1.6801  -1.6608  -1.6252  -1.6081
    -1.5691  -1.5542  -1.4808  -1.4744  -1.4265  -1.4173  -1.3878  -1.3576
    -1.3314  -1.2982  -1.2806  -1.2366  -1.2148  -1.2020  -1.1654  -1.1558
    -1.1390  -1.0981  -1.0826  -1.0540  -1.0292  -1.0093  -0.9915  -0.9694
    -0.9606  -0.9397  -0.9168  -0.8841  -0.8549  -0.8452  -0.8225  -0.8122
    -0.7822  -0.7674  -0.7537  -0.7341  -0.7135  -0.6735  -0.6071  -0.5756
    -0.5557  -0.5390  -0.5197  -0.4674  -0.4632  -0.4606  -0.4010  -0.3380
    -0.2318  -0.1472  -0.1194  -0.0871  -0.0600  -0.0451  -0.0168  -0.0038
     0.0629   0.1311   0.1717   0.2057   0.2425   0.2659   0.2834   0.3238
     0.3542   0.3637   0.3837   0.4008   0.4419   0.5207   0.5457   0.5699
     0.5796   0.5979   0.6606   0.7054   0.7267   0.7530   0.7715   0.8260
     0.8512   0.9141   0.9292   0.9388   0.9594   0.9776   1.0002   1.0593
     1.0708   1.1107   1.1376   1.1536   1.1751   1.2155   1.2454   1.2913
     1.3028   1.3477   1.3684   1.4127   1.4328   1.4567   1.4731   1.4898
     1.5033   1.5633   1.5747   1.5767   1.6037   1.6190   1.6423   1.6599
     1.6968   1.7215   1.7926   1.8112   1.8437   1.8556   1.8751   1.8940
     1.9086   1.9305   1.9456   1.9813   2.0086   2.0644   2.0790   2.1466
     2.1993   2.2456   2.2569   2.4377   2.6067   2.9174   3.2050   3.3606
     3.5007   3.5844   4.2102   4.5566   4.9079   5.1377   5.3508   5.4570
     5.5829   5.6696   5.7717   5.9382   6.0915   6.5072   6.5391   6.6446
     6.8139   6.8880

          k = 0.2000 0.3464 0.0000 ( 92454 PWs)   bands (ev):

   -14.3235 -11.9823  -7.1939  -6.4514  -5.4103  -5.3372  -5.2799  -5.0561
    -4.9596  -4.8895  -4.2620  -4.2050  -4.1731  -4.1669  -4.1185  -4.0968
    -4.0751  -4.0210  -3.9985  -3.9345  -3.8181  -3.6490  -3.6039  -3.5868
    -3.5716  -3.5447  -3.5026  -3.4234  -3.3904  -3.3734  -3.3427  -3.2854
    -3.2477  -3.2362  -3.2123  -3.1817  -3.1461  -3.1101  -3.0977  -3.0658
    -3.0308  -3.0121  -2.9177  -2.7619  -2.7417  -2.7078  -2.6317  -2.6207
    -2.5635  -2.5443  -2.5214  -2.4771  -2.4266  -2.3861  -2.3567  -2.3293
    -2.2757  -2.2364  -2.1966  -2.1501  -2.1172  -2.0911  -2.0506  -2.0122
    -1.9178  -1.8917  -1.8770  -1.8391  -1.7947  -1.7555  -1.7252  -1.7084
    -1.6833  -1.6548  -1.5635  -1.5266  -1.5088  -1.4975  -1.4739  -1.4338
    -1.4130  -1.3823  -1.3342  -1.2912  -1.2824  -1.2269  -1.2080  -1.1961
    -1.1691  -1.1519  -1.1246  -1.1094  -1.0723  -1.0620  -1.0496  -1.0276
    -0.9811  -0.9601  -0.9396  -0.9135  -0.8827  -0.8693  -0.8320  -0.8097
    -0.7971  -0.7775  -0.7544  -0.7457  -0.7413  -0.7084  -0.6737  -0.6365
    -0.6036  -0.5640  -0.5432  -0.5126  -0.4551  -0.4361  -0.3989  -0.3627
    -0.3378  -0.2230  -0.2056  -0.1682  -0.1342  -0.0814  -0.0426  -0.0283
     0.0095   0.0322   0.0641   0.0840   0.1123   0.1511   0.1669   0.1982
     0.2598   0.2880   0.3431   0.3561   0.3735   0.4393   0.5035   0.5296
     0.5397   0.5720   0.6051   0.6445   0.6822   0.7108   0.7393   0.7758
     0.8112   0.8702   0.8798   0.8914   0.9170   0.9311   0.9492   0.9677
     0.9877   1.0262   1.0945   1.1193   1.1846   1.2490   1.2846   1.3686
     1.4390   1.4539   1.4694   1.5001   1.5482   1.5891   1.6021   1.6262
     1.6425   1.6653   1.6869   1.6948   1.7098   1.7396   1.7485   1.7894
     1.8054   1.8273   1.8780   1.8968   1.9128   1.9370   2.0116   2.0614
     2.1005   2.1272   2.1510   2.2174   2.2379   2.3011   2.3493   2.4570
     2.7586   2.8240   2.9711   3.2202   3.3496   3.4464   3.5648   3.8747
     4.0661   4.1025   4.2724   4.3842   4.4499   4.8132   5.2006   5.3446
     5.5120   5.6052   5.7043   5.8578   5.9529   6.1718   6.2246   6.3291
     6.4001   6.5768

          k = 0.2000-0.5774 0.0000 ( 92454 PWs)   bands (ev):

   -14.3232 -11.9819  -7.1844  -5.9698  -5.9127  -5.3987  -5.1938  -5.1680
    -4.9106  -4.6786  -4.5558  -4.2347  -4.1497  -4.0264  -4.0143  -3.9312
    -3.8837  -3.8585  -3.7961  -3.7695  -3.7365  -3.6572  -3.6427  -3.6259
    -3.6088  -3.5962  -3.5426  -3.4657  -3.4518  -3.4438  -3.4053  -3.3992
    -3.3326  -3.3036  -3.2691  -3.1759  -3.1457  -3.0908  -3.0623  -3.0403
    -2.9980  -2.9651  -2.8813  -2.8455  -2.8005  -2.7148  -2.6361  -2.6146
    -2.5647  -2.5142  -2.4926  -2.4327  -2.4160  -2.3208  -2.2868  -2.2696
    -2.2358  -2.2134  -2.1910  -2.1143  -2.1113  -2.0882  -2.0564  -2.0380
    -1.9933  -1.9913  -1.9342  -1.9227  -1.9022  -1.8682  -1.8249  -1.7726
    -1.7324  -1.7053  -1.6581  -1.6198  -1.6143  -1.5656  -1.5298  -1.5141
    -1.5022  -1.4570  -1.4191  -1.3887  -1.3476  -1.3350  -1.2856  -1.2847
    -1.1998  -1.1701  -1.1446  -1.1421  -1.1342  -1.0817  -1.0320  -1.0162
    -0.9537  -0.9393  -0.9302  -0.8934  -0.8620  -0.8555  -0.8330  -0.8128
    -0.8036  -0.7902  -0.7476  -0.7462  -0.7237  -0.7009  -0.6878  -0.6685
    -0.6514  -0.6373  -0.6182  -0.5314  -0.4825  -0.4085  -0.3717  -0.3342
    -0.2722  -0.2228  -0.2037  -0.1762  -0.1514  -0.1156  -0.0985  -0.0836
    -0.0599  -0.0260  -0.0119   0.0259   0.0825   0.1156   0.1637   0.1844
     0.1873   0.2265   0.3089   0.3260   0.3530   0.3926   0.4851   0.5162
     0.5376   0.5459   0.6027   0.6180   0.6192   0.6432   0.7103   0.7319
     0.7334   0.7933   0.8215   0.8352   0.8497   0.8994   0.9330   0.9983
     1.0441   1.1168   1.1520   1.1666   1.2687   1.2923   1.3113   1.3268
     1.3852   1.4409   1.4807   1.5193   1.5680   1.5989   1.6210   1.6532
     1.6758   1.7034   1.7194   1.7560   1.7788   1.8017   1.8185   1.8301
     1.8686   1.8912   1.9077   1.9643   1.9912   2.0406   2.0832   2.1037
     2.1176   2.1531   2.1766   2.2782   2.3287   2.4389   3.0471   3.2266
     3.2553   3.4175   3.4898   3.5316   3.5802   3.7667   3.9198   4.0694
     4.2734   4.3515   4.5829   4.6632   4.8310   4.8833   4.9287   5.0029
     5.1475   5.2012   5.3066   5.4783   5.6296   5.7776   5.9523   6.1953
     6.3106   6.3604

          k = 0.2000-0.3464 0.0000 ( 92454 PWs)   bands (ev):

   -14.3235 -11.9823  -7.1939  -6.4514  -5.4097  -5.3375  -5.2805  -5.0551
    -4.9622  -4.8878  -4.2614  -4.2050  -4.1731  -4.1668  -4.1188  -4.0967
    -4.0752  -4.0208  -3.9987  -3.9345  -3.8190  -3.6483  -3.6038  -3.5869
    -3.5716  -3.5448  -3.5027  -3.4233  -3.3905  -3.3734  -3.3427  -3.2852
    -3.2476  -3.2362  -3.2123  -3.1816  -3.1464  -3.1099  -3.0976  -3.0657
    -3.0305  -3.0119  -2.9176  -2.7616  -2.7417  -2.7081  -2.6317  -2.6208
    -2.5636  -2.5443  -2.5214  -2.4770  -2.4267  -2.3861  -2.3566  -2.3294
    -2.2760  -2.2364  -2.1966  -2.1501  -2.1171  -2.0911  -2.0506  -2.0122
    -1.9177  -1.8917  -1.8770  -1.8391  -1.7947  -1.7555  -1.7252  -1.7084
    -1.6833  -1.6548  -1.5637  -1.5266  -1.5088  -1.4975  -1.4739  -1.4338
    -1.4129  -1.3823  -1.3343  -1.2912  -1.2823  -1.2269  -1.2080  -1.1961
    -1.1690  -1.1519  -1.1245  -1.1094  -1.0723  -1.0621  -1.0497  -1.0276
    -0.9811  -0.9601  -0.9397  -0.9134  -0.8827  -0.8692  -0.8320  -0.8097
    -0.7971  -0.7775  -0.7544  -0.7457  -0.7414  -0.7084  -0.6737  -0.6366
    -0.6035  -0.5640  -0.5432  -0.5126  -0.4551  -0.4361  -0.3989  -0.3627
    -0.3378  -0.2231  -0.2056  -0.1682  -0.1342  -0.0814  -0.0426  -0.0282
     0.0094   0.0322   0.0641   0.0840   0.1122   0.1511   0.1669   0.1982
     0.2598   0.2880   0.3431   0.3561   0.3735   0.4394   0.5035   0.5296
     0.5397   0.5720   0.6052   0.6445   0.6822   0.7108   0.7393   0.7759
     0.8111   0.8703   0.8798   0.8914   0.9170   0.9311   0.9492   0.9677
     0.9877   1.0262   1.0945   1.1193   1.1846   1.2489   1.2846   1.3687
     1.4390   1.4539   1.4694   1.5001   1.5482   1.5891   1.6021   1.6263
     1.6426   1.6653   1.6869   1.6947   1.7098   1.7396   1.7485   1.7894
     1.8055   1.8273   1.8780   1.8968   1.9128   1.9370   2.0116   2.0614
     2.1006   2.1272   2.1510   2.2174   2.2379   2.3011   2.3493   2.4570
     2.7587   2.8240   2.9711   3.2201   3.3496   3.4464   3.5647   3.8748
     4.0661   4.1025   4.2724   4.3842   4.4500   4.8130   5.2005   5.3450
     5.5120   5.6053   5.7044   5.8579   5.9529   6.1718   6.2244   6.3291
     6.3997   6.5768

          k = 0.4000-0.2309 0.0000 ( 92456 PWs)   bands (ev):

   -14.3235 -11.9822  -7.1697  -6.3306  -5.7305  -5.2997  -5.1852  -5.0325
    -4.8555  -4.6177  -4.5915  -4.4776  -4.2658  -4.1395  -4.0689  -3.9778
    -3.9471  -3.8973  -3.8563  -3.7692  -3.7320  -3.6999  -3.6733  -3.6358
    -3.5808  -3.5464  -3.5220  -3.4976  -3.4630  -3.4340  -3.3964  -3.3813
    -3.3326  -3.3022  -3.1467  -3.1104  -3.0846  -3.0711  -3.0259  -2.9853
    -2.9248  -2.8835  -2.8438  -2.8307  -2.7952  -2.7515  -2.6759  -2.6309
    -2.5622  -2.5326  -2.5092  -2.4664  -2.4403  -2.3867  -2.3682  -2.3504
    -2.3260  -2.3090  -2.2173  -2.1646  -2.1533  -2.1263  -2.0554  -2.0018
    -1.9657  -1.9401  -1.9252  -1.9056  -1.8110  -1.7718  -1.7366  -1.7226
    -1.6667  -1.6274  -1.6015  -1.5800  -1.5604  -1.4737  -1.4512  -1.4257
    -1.3932  -1.3677  -1.3348  -1.3084  -1.2783  -1.2606  -1.2412  -1.2253
    -1.1901  -1.1845  -1.1694  -1.1493  -1.1444  -1.1004  -1.0731  -1.0407
    -1.0090  -0.9932  -0.9701  -0.9415  -0.9077  -0.8667  -0.8263  -0.8110
    -0.7890  -0.7756  -0.7462  -0.7151  -0.6716  -0.6598  -0.6363  -0.5841
    -0.5535  -0.5352  -0.4973  -0.4865  -0.4526  -0.3748  -0.3535  -0.2862
    -0.2406  -0.1938  -0.1774  -0.1592  -0.1239  -0.1108  -0.0813  -0.0411
    -0.0236  -0.0080   0.0043   0.0117   0.0473   0.0670   0.1221   0.1700
     0.2099   0.2207   0.2500   0.2719   0.2834   0.3909   0.4594   0.4824
     0.5241   0.5548   0.6368   0.6694   0.7058   0.7398   0.7733   0.8004
     0.8276   0.8412   0.8686   0.8942   0.9143   0.9786   0.9987   1.0258
     1.0717   1.0867   1.0961   1.1248   1.1862   1.2360   1.2936   1.3213
     1.3341   1.3755   1.4378   1.4805   1.4922   1.5019   1.5195   1.5391
     1.6074   1.6285   1.6500   1.6816   1.7331   1.7427   1.8019   1.8130
     1.8274   1.8444   1.8861   1.9073   1.9266   1.9922   2.0532   2.0785
     2.0881   2.1221   2.1697   2.2570   2.3325   2.5020   2.7173   2.8689
     2.9416   3.1113   3.1680   3.3474   3.5226   3.5915   3.8168   4.0443
     4.2166   4.3455   4.3585   4.4318   4.5588   4.6207   4.7986   4.8803
     5.0988   5.2457   5.5325   5.5838   5.9240   5.9664   6.2226   6.3125
     6.6031   6.7369

          k = 0.4000-0.0000 0.0000 ( 92454 PWs)   bands (ev):

   -14.3236 -11.9824  -7.1732  -6.4621  -5.4168  -5.3081  -5.2942  -5.0933
    -4.9751  -4.8697  -4.2955  -4.1867  -4.1755  -4.1620  -4.1342  -4.0988
    -4.0685  -4.0166  -3.9929  -3.9777  -3.7804  -3.6247  -3.6064  -3.5893
    -3.5815  -3.5613  -3.4998  -3.4826  -3.3842  -3.3715  -3.3294  -3.2727
    -3.2433  -3.2313  -3.2095  -3.1807  -3.1330  -3.1163  -3.1039  -3.0877
    -3.0031  -2.9616  -2.9454  -2.7727  -2.7386  -2.6765  -2.6357  -2.6072
    -2.5686  -2.5548  -2.5231  -2.4848  -2.4374  -2.4121  -2.3534  -2.3313
    -2.2496  -2.2291  -2.1940  -2.1461  -2.1343  -2.0831  -2.0549  -1.9887
    -1.9431  -1.8825  -1.8483  -1.8301  -1.7993  -1.7257  -1.7185  -1.6944
    -1.6611  -1.6493  -1.5931  -1.5358  -1.5069  -1.4896  -1.4799  -1.4411
    -1.3866  -1.3584  -1.3312  -1.2964  -1.2744  -1.2372  -1.2168  -1.1900
    -1.1700  -1.1380  -1.1250  -1.1155  -1.0941  -1.0609  -1.0586  -1.0312
    -0.9988  -0.9649  -0.9177  -0.8979  -0.8893  -0.8731  -0.8459  -0.8353
    -0.7934  -0.7778  -0.7595  -0.7544  -0.7342  -0.7055  -0.6703  -0.6637
    -0.6252  -0.5614  -0.5477  -0.4938  -0.4797  -0.4283  -0.4095  -0.3592
    -0.2935  -0.2503  -0.1948  -0.1482  -0.1176  -0.0979  -0.0650  -0.0268
     0.0008   0.0344   0.0511   0.0900   0.1046   0.1307   0.1880   0.2060
     0.2237   0.3115   0.3268   0.3593   0.3906   0.4368   0.5102   0.5331
     0.5641   0.5896   0.5970   0.6022   0.6637   0.6773   0.7168   0.7911
     0.8292   0.8539   0.8876   0.9071   0.9212   0.9264   0.9500   0.9736
     0.9842   1.0256   1.0944   1.1339   1.2124   1.2386   1.2954   1.4038
     1.4198   1.4401   1.4724   1.4823   1.5561   1.5936   1.6113   1.6272
     1.6396   1.6574   1.6833   1.7024   1.7050   1.7433   1.7542   1.7868
     1.7988   1.8395   1.8754   1.8932   1.9130   1.9620   1.9764   2.0819
     2.1306   2.1350   2.1626   2.1837   2.2280   2.3304   2.3540   2.5387
     2.6428   2.8401   2.9532   3.2073   3.3974   3.4586   3.6737   3.7806
     4.0021   4.1785   4.2166   4.3505   4.4419   4.7720   5.2595   5.3481
     5.4488   5.6055   5.7287   5.8648   5.9237   6.1737   6.2117   6.2762
     6.4325   6.6047

          k = 0.4000 0.2309 0.0000 ( 92456 PWs)   bands (ev):

   -14.3235 -11.9822  -7.1697  -6.3306  -5.7306  -5.2997  -5.1851  -5.0314
    -4.8568  -4.6165  -4.5916  -4.4787  -4.2663  -4.1397  -4.0683  -3.9776
    -3.9466  -3.8975  -3.8552  -3.7695  -3.7326  -3.6999  -3.6733  -3.6361
    -3.5806  -3.5466  -3.5219  -3.4976  -3.4631  -3.4340  -3.3963  -3.3814
    -3.3327  -3.3020  -3.1467  -3.1104  -3.0850  -3.0715  -3.0261  -2.9850
    -2.9254  -2.8836  -2.8438  -2.8306  -2.7952  -2.7516  -2.6756  -2.6309
    -2.5620  -2.5327  -2.5088  -2.4663  -2.4402  -2.3868  -2.3682  -2.3504
    -2.3260  -2.3090  -2.2172  -2.1646  -2.1534  -2.1262  -2.0554  -2.0019
    -1.9658  -1.9401  -1.9252  -1.9056  -1.8109  -1.7718  -1.7365  -1.7226
    -1.6667  -1.6273  -1.6015  -1.5800  -1.5604  -1.4737  -1.4512  -1.4257
    -1.3932  -1.3677  -1.3349  -1.3083  -1.2783  -1.2606  -1.2411  -1.2254
    -1.1902  -1.1845  -1.1694  -1.1493  -1.1443  -1.1003  -1.0732  -1.0406
    -1.0090  -0.9932  -0.9701  -0.9415  -0.9077  -0.8667  -0.8263  -0.8109
    -0.7889  -0.7756  -0.7462  -0.7151  -0.6715  -0.6598  -0.6363  -0.5841
    -0.5533  -0.5351  -0.4973  -0.4865  -0.4526  -0.3749  -0.3536  -0.2861
    -0.2405  -0.1939  -0.1774  -0.1592  -0.1239  -0.1108  -0.0812  -0.0411
    -0.0236  -0.0081   0.0043   0.0118   0.0473   0.0670   0.1221   0.1700
     0.2099   0.2207   0.2500   0.2719   0.2833   0.3909   0.4594   0.4825
     0.5241   0.5548   0.6367   0.6694   0.7058   0.7398   0.7733   0.8004
     0.8276   0.8412   0.8686   0.8942   0.9144   0.9786   0.9987   1.0258
     1.0717   1.0867   1.0961   1.1248   1.1862   1.2360   1.2936   1.3213
     1.3341   1.3755   1.4378   1.4805   1.4922   1.5019   1.5195   1.5391
     1.6074   1.6285   1.6500   1.6816   1.7331   1.7427   1.8019   1.8130
     1.8274   1.8444   1.8860   1.9073   1.9265   1.9922   2.0532   2.0785
     2.0881   2.1220   2.1696   2.2571   2.3325   2.5020   2.7173   2.8690
     2.9416   3.1112   3.1680   3.3474   3.5226   3.5914   3.8168   4.0444
     4.2165   4.3455   4.3585   4.4319   4.5588   4.6206   4.7987   4.8802
     5.0988   5.2456   5.5323   5.5837   5.9241   5.9662   6.2227   6.3125
     6.6025   6.7365

          k = 0.4000-0.6928 0.0000 ( 92454 PWs)   bands (ev):

   -14.3234 -11.9820  -7.1647  -5.9760  -5.9283  -5.4025  -5.1970  -5.1094
    -4.9789  -4.6636  -4.5919  -4.2077  -4.1586  -4.0615  -4.0213  -3.9156
    -3.8883  -3.8530  -3.8030  -3.7729  -3.7022  -3.6650  -3.6504  -3.6278
    -3.6091  -3.5848  -3.5501  -3.5308  -3.4507  -3.4357  -3.4271  -3.4052
    -3.3403  -3.2877  -3.1871  -3.1692  -3.1583  -3.1004  -3.0456  -3.0210
    -2.9906  -2.9430  -2.8894  -2.8453  -2.8149  -2.7008  -2.6234  -2.6041
    -2.5903  -2.5252  -2.4899  -2.4426  -2.3954  -2.3350  -2.3075  -2.2738
    -2.2278  -2.1876  -2.1533  -2.1308  -2.1079  -2.0927  -2.0644  -2.0388
    -2.0144  -1.9757  -1.9565  -1.9151  -1.8978  -1.8765  -1.8403  -1.7753
    -1.7155  -1.7034  -1.6712  -1.6143  -1.5673  -1.5566  -1.5242  -1.5098
    -1.4822  -1.4702  -1.4149  -1.3844  -1.3473  -1.3147  -1.2921  -1.2862
    -1.2243  -1.1764  -1.1602  -1.1438  -1.1282  -1.0750  -1.0466  -1.0010
    -0.9731  -0.9451  -0.9174  -0.8894  -0.8702  -0.8509  -0.8294  -0.8198
    -0.8027  -0.7847  -0.7709  -0.7236  -0.7055  -0.6957  -0.6732  -0.6670
    -0.6547  -0.6235  -0.6060  -0.5507  -0.4945  -0.4376  -0.3952  -0.3289
    -0.3104  -0.2386  -0.2126  -0.1681  -0.1291  -0.1163  -0.1054  -0.0735
    -0.0613  -0.0314  -0.0105   0.0273   0.0691   0.1113   0.1750   0.1901
     0.2141   0.2162   0.2889   0.3334   0.3887   0.4042   0.4733   0.4978
     0.5379   0.5569   0.5990   0.6108   0.6242   0.6381   0.7078   0.7200
     0.7458   0.7776   0.8221   0.8399   0.8449   0.9016   0.9242   0.9885
     1.0228   1.1059   1.1552   1.1828   1.2717   1.2940   1.3221   1.3655
     1.3840   1.4392   1.4668   1.5059   1.5728   1.5874   1.6290   1.6526
     1.6737   1.7082   1.7162   1.7430   1.7776   1.8043   1.8193   1.8444
     1.8705   1.8809   1.9137   1.9656   1.9996   2.0414   2.0834   2.1064
     2.1248   2.1572   2.1790   2.2751   2.3514   2.5074   2.9896   3.2384
     3.2719   3.3743   3.4393   3.5257   3.6631   3.7176   3.9457   4.1391
     4.2840   4.3746   4.5334   4.6252   4.7701   4.8603   4.9371   5.0127
     5.0955   5.1628   5.3295   5.5173   5.6140   5.7973   5.9720   6.1895
     6.2832   6.3479

          k = 0.4000-0.4619 0.0000 ( 92454 PWs)   bands (ev):

   -14.3234 -11.9820  -7.1647  -5.9760  -5.9284  -5.4027  -5.1955  -5.1103
    -4.9800  -4.6645  -4.5894  -4.2092  -4.1585  -4.0612  -4.0214  -3.9158
    -3.8880  -3.8526  -3.8032  -3.7729  -3.7023  -3.6650  -3.6503  -3.6278
    -3.6090  -3.5848  -3.5504  -3.5307  -3.4507  -3.4356  -3.4269  -3.4052
    -3.3405  -3.2877  -3.1868  -3.1692  -3.1581  -3.1004  -3.0455  -3.0207
    -2.9905  -2.9427  -2.8896  -2.8456  -2.8149  -2.7008  -2.6234  -2.6041
    -2.5903  -2.5253  -2.4899  -2.4428  -2.3957  -2.3349  -2.3075  -2.2737
    -2.2278  -2.1875  -2.1532  -2.1309  -2.1079  -2.0928  -2.0644  -2.0388
    -2.0144  -1.9757  -1.9565  -1.9151  -1.8978  -1.8764  -1.8403  -1.7753
    -1.7155  -1.7034  -1.6712  -1.6142  -1.5673  -1.5566  -1.5242  -1.5099
    -1.4823  -1.4701  -1.4149  -1.3843  -1.3473  -1.3146  -1.2922  -1.2862
    -1.2244  -1.1765  -1.1602  -1.1438  -1.1282  -1.0750  -1.0466  -1.0010
    -0.9731  -0.9451  -0.9174  -0.8894  -0.8701  -0.8509  -0.8294  -0.8198
    -0.8027  -0.7847  -0.7710  -0.7236  -0.7054  -0.6957  -0.6732  -0.6670
    -0.6548  -0.6235  -0.6059  -0.5508  -0.4945  -0.4375  -0.3952  -0.3288
    -0.3104  -0.2387  -0.2126  -0.1682  -0.1291  -0.1164  -0.1054  -0.0735
    -0.0613  -0.0314  -0.0105   0.0272   0.0691   0.1113   0.1750   0.1901
     0.2140   0.2162   0.2889   0.3334   0.3888   0.4043   0.4733   0.4978
     0.5379   0.5569   0.5990   0.6108   0.6242   0.6381   0.7078   0.7200
     0.7458   0.7776   0.8221   0.8399   0.8449   0.9016   0.9242   0.9884
     1.0229   1.1059   1.1551   1.1829   1.2717   1.2940   1.3221   1.3655
     1.3840   1.4393   1.4668   1.5059   1.5727   1.5874   1.6290   1.6526
     1.6737   1.7082   1.7162   1.7430   1.7776   1.8043   1.8193   1.8445
     1.8705   1.8809   1.9137   1.9656   1.9995   2.0414   2.0834   2.1064
     2.1248   2.1572   2.1790   2.2752   2.3515   2.5073   2.9895   3.2384
     3.2719   3.3745   3.4392   3.5258   3.6630   3.7176   3.9457   4.1391
     4.2841   4.3746   4.5334   4.6252   4.7702   4.8603   4.9369   5.0128
     5.0955   5.1627   5.3298   5.5174   5.6140   5.7976   5.9719   6.1895
     6.2827   6.3479

     the Fermi energy is     1.8877 ev

!    total energy              =  -27814.86752047 Ry

     total all-electron energy =  -1326874.925220 Ry
     estimated scf accuracy    <       0.00000060 Ry
     smearing contrib. (-TS)   =       0.00092594 Ry
     internal energy E=F+TS    =  -27814.86844642 Ry

     The total energy is F=E-TS. E is the sum of the following terms:
     one-electron contribution =  -29260.14941882 Ry
     hartree contribution      =   14933.25427664 Ry
     xc contribution           =    -906.73968888 Ry
     ewald contribution        =   12912.43464893 Ry
     one-center paw contrib.   =  -25493.66826429 Ry

     convergence has been achieved in  18 iterations

     negative rho (up, down):  1.349E-02 0.000E+00

     Forces acting on atoms (cartesian axes, Ry/au):

     atom    1 type  1   force =    -0.00106423   -0.00080856   -0.00447460
     atom    2 type  1   force =     0.00110839   -0.00076979   -0.00446849
     atom    3 type  1   force =     0.00003143   -0.00046336   -0.00416264
     atom    4 type  1   force =     0.00004748    0.00190921   -0.00653969
     atom    5 type  1   force =    -0.00096801   -0.00057211   -0.00334885
     atom    6 type  1   force =     0.00098567   -0.00060520   -0.00338947
     atom    7 type  1   force =    -0.00068061   -0.00037201   -0.00464861
     atom    8 type  1   force =    -0.00000684    0.00036003   -0.00308214
     atom    9 type  1   force =     0.00076295   -0.00035938   -0.00469669
     atom   10 type  1   force =     0.00005735   -0.00046006    0.00481683
     atom   11 type  1   force =    -0.00234515    0.00131069    0.00292938
     atom   12 type  1   force =     0.00234834    0.00126205    0.00292701
     atom   13 type  1   force =     0.00023121   -0.00195012    0.00170855
     atom   14 type  1   force =    -0.00004136    0.00162977    0.00938045
     atom   15 type  1   force =    -0.00013704   -0.00193597    0.00172827
     atom   16 type  1   force =     0.00315516    0.00155789    0.00602926
     atom   17 type  1   force =    -0.00313669    0.00160489    0.00604368
     atom   18 type  1   force =     0.00004519    0.00107455    0.00025195
     atom   19 type  1   force =     0.00021993   -0.00026477   -0.00004953
     atom   20 type  1   force =    -0.00017361   -0.00026296   -0.00005710
     atom   21 type  1   force =     0.00004149   -0.00033566   -0.00011310
     atom   22 type  1   force =     0.00001619   -0.00058478    0.00002748
     atom   23 type  1   force =     0.00032267   -0.00017218   -0.00015105
     atom   24 type  1   force =    -0.00026575   -0.00019580   -0.00016807
     atom   25 type  1   force =     0.00021697    0.00003950   -0.00021350
     atom   26 type  1   force =     0.00002347    0.00063704   -0.00006309
     atom   27 type  1   force =    -0.00016975    0.00003795   -0.00022759
     atom   28 type  1   force =     0.00012594   -0.00029565    0.00033296
     atom   29 type  1   force =    -0.00008129   -0.00031221    0.00034283
     atom   30 type  1   force =     0.00004430    0.00034189    0.00054144
     atom   31 type  1   force =     0.00001917   -0.00046807    0.00035099
     atom   32 type  1   force =     0.00096662    0.00039925    0.00019425
     atom   33 type  1   force =    -0.00097575    0.00042732    0.00021208
     atom   34 type  1   force =     0.00016268   -0.00029743    0.00023324
     atom   35 type  1   force =     0.00005342    0.00040065   -0.00034372
     atom   36 type  1   force =    -0.00011665   -0.00030238    0.00023169
     atom   37 type  2   force =     0.00023615    0.00078958    0.00046506
     atom   38 type  2   force =    -0.00092665   -0.00187253   -0.00073477
     atom   39 type  2   force =    -0.00196391    0.00099356    0.00384805
     atom   40 type  3   force =     0.00067590   -0.00072338   -0.00045981
     atom   41 type  3   force =    -0.00008121    0.00014487    0.00036254
     atom   42 type  3   force =     0.00123645   -0.00053634   -0.00156547

     Total force =     0.006063     Total SCF correction =     0.002536
     SCF correction compared to forces is large: reduce conv_thr to get better values

     negative rho (up, down):  1.349E-02 0.000E+00

     negative rho (up, down):  1.349E-02 0.000E+00

     negative rho (up, down):  1.349E-02 0.000E+00

     negative rho (up, down):  1.349E-02 0.000E+00

     negative rho (up, down):  1.349E-02 0.000E+00

     negative rho (up, down):  1.349E-02 0.000E+00

     negative rho (up, down):  1.349E-02 0.000E+00

     negative rho (up, down):  1.349E-02 0.000E+00

     negative rho (up, down):  1.349E-02 0.000E+00

     negative rho (up, down):  1.349E-02 0.000E+00

     negative rho (up, down):  1.349E-02 0.000E+00

     negative rho (up, down):  1.349E-02 0.000E+00

     negative rho (up, down):  1.349E-02 0.000E+00

     negative rho (up, down):  1.349E-02 0.000E+00

     negative rho (up, down):  1.349E-02 0.000E+00

     negative rho (up, down):  1.349E-02 0.000E+00

     negative rho (up, down):  1.349E-02 0.000E+00

     negative rho (up, down):  1.349E-02 0.000E+00

     negative rho (up, down):  1.349E-02 0.000E+00

     negative rho (up, down):  1.349E-02 0.000E+00

     negative rho (up, down):  1.349E-02 0.000E+00

     negative rho (up, down):  1.349E-02 0.000E+00

     negative rho (up, down):  1.349E-02 0.000E+00

     negative rho (up, down):  1.349E-02 0.000E+00

     negative rho (up, down):  1.349E-02 0.000E+00

     negative rho (up, down):  1.349E-02 0.000E+00

     negative rho (up, down):  1.349E-02 0.000E+00

     negative rho (up, down):  1.349E-02 0.000E+00

     negative rho (up, down):  1.349E-02 0.000E+00

     negative rho (up, down):  1.349E-02 0.000E+00

     negative rho (up, down):  1.349E-02 0.000E+00

     negative rho (up, down):  1.349E-02 0.000E+00

     negative rho (up, down):  1.349E-02 0.000E+00

     negative rho (up, down):  1.349E-02 0.000E+00
 BEEFens 2000 ensemble energies
             -0.606922560516567E+02
             -0.361109224745630E+01
             -0.158432105330812E+02
              0.429328503597404E+02
             -0.221103313048690E+02
             -0.205361919300155E+02
             -0.352304466794046E+02
             -0.865167744811572E+02
             -0.465331637677247E+02
             -0.472821456877857E+02
             -0.369249482600323E+02
              0.226000833211820E+01
              0.408148264770605E+01
              0.762145309494002E+01
              0.265830813342845E+01
              0.475017403831198E+02
             -0.208924009501153E+02
             -0.230495424429774E+02
              0.193118241517088E+02
             -0.112404596414297E+03
              0.536359589373449E+02
             -0.289798544491750E+02
             -0.334109125555922E+01
             -0.114030144682666E+02
             -0.885117899977831E+01
             -0.466837581757196E+01
              0.883016817875810E+02
             -0.186771692017497E+02
             -0.902190574491783E+01
             -0.518633276488694E+02
              0.815943081082501E+02
             -0.187494616819315E+02
             -0.375138651775934E+02
              0.249409135268787E+02
             -0.283296932794610E+01
              0.164051344433267E+02
             -0.485862931688126E+01
              0.108087974171738E+02
              0.288227884117148E+02
             -0.103313748251193E+03
              0.558391134114942E+02
              0.142386409178343E+02
             -0.170156634261463E+01
             -0.361701098552952E+02
              0.123205712748328E+02
             -0.146408997555047E+02
              0.398518694335361E+02
              0.364936913316794E+02
             -0.308208707330081E+02
             -0.275277965691049E+02
             -0.328421722549548E+02
             -0.352168523187571E+02
              0.136214874282973E+02
             -0.491107998610519E+02
              0.115503273557940E+02
              0.623219839060850E+02
              0.635329339500071E+02
              0.355774714092567E+02
              0.154294048033060E+02
              0.270450659141306E+02
              0.891489332167663E+02
              0.212916164453128E+02
             -0.548651611543509E+02
             -0.157193956604840E+02
             -0.235960477724617E+02
              0.630108267078239E+02
             -0.773730698410243E+02
             -0.671771245742607E+02
             -0.259244108775572E+02
             -0.644553415477094E+01
             -0.471268091064997E+02
              0.270721824985282E+02
              0.801947378644945E+01
              0.868197738223733E+01
             -0.397143083192951E+02
             -0.346915183519728E+02
             -0.541909912706337E+02
              0.390512031297532E+02
             -0.295853137857281E+02
              0.265104604839809E+02
             -0.714179464112176E+01
             -0.318200499412129E+02
             -0.576484364067394E+02
             -0.176783549939745E+02
             -0.907196401399722E+01
             -0.124890728462412E+02
              0.412204755504852E+02
              0.682652188671840E+02
             -0.385661853785238E+02
             -0.794886192902463E+02
             -0.219698807206222E+02
              0.111534159149039E+03
             -0.592286015083107E+02
              0.356215030918067E+02
             -0.957883789469122E+01
             -0.663480376143412E+02
              0.254596859008130E+02
              0.398223732949990E+02
             -0.198741283198925E+02
              0.400310545550747E+02
             -0.296183848729702E+02
             -0.478150592933482E+02
              0.865984829016971E+02
              0.454133636444903E+02
              0.336461167232132E+02
              0.146516694308297E+02
              0.205490464937991E+02
              0.856770553141970E+02
             -0.256751283869254E+02
              0.786828868778770E+01
             -0.142449275782069E+03
              0.181321406495074E+02
             -0.716436329179971E+02
              0.150842109107954E+02
              0.204590471744516E+02
             -0.332911384648008E+02
             -0.557291125373908E+02
              0.654808141400747E+01
             -0.304173342372476E+02
              0.308050710796767E+02
             -0.529843141926456E+02
              0.171338641164186E+01
             -0.357111950355050E+02
             -0.424186933533821E+01
             -0.103233748801327E+01
              0.181016792735146E+02
              0.142399827609995E+01
             -0.652394275120196E+01
              0.590329344899228E+02
              0.908339049461041E+02
              0.484202974400690E+02
              0.830574090045402E+02
             -0.115129204616145E+02
              0.143124448582207E+02
              0.541072515203973E+02
             -0.110869894534793E+02
             -0.735653725176982E+02
             -0.383962924675361E+02
             -0.521698358449575E+02
             -0.276714761292815E+02
              0.327247332163656E+02
             -0.116810131554805E+03
             -0.187066696562937E+02
              0.414158392437441E+02
             -0.386451873152007E+02
             -0.365380657981902E+02
              0.544116766251599E+02
              0.400912835548826E+02
             -0.353834517585943E+02
              0.137607722631061E+02
             -0.273109223018021E+02
              0.343245047155680E+02
              0.447846607548200E+01
              0.211326166569018E+02
             -0.884793901851230E+02
             -0.480290015738441E+02
             -0.994393593924315E+01
              0.324301564984219E+01
             -0.366781417578273E+02
              0.106042763927618E+03
             -0.230869275205646E+02
             -0.398574416569876E+02
              0.389077384614934E+02
             -0.494407161805265E+02
             -0.363388673588466E+02
              0.324919643898214E+02
              0.124512147868267E+02
              0.164473290687686E+02
              0.116488931209946E+02
             -0.132882466863225E+02
              0.225159783683416E+02
              0.590385671308724E+02
             -0.311752331820010E+02
              0.162648888777163E+02
              0.934473696368957E+02
              0.340683225662835E+02
             -0.728689494357241E+01
             -0.188522524566230E+02
              0.153364479792200E+03
             -0.164130726596977E+02
              0.363247769036393E+02
              0.194478725061809E+02
              0.361800518147193E+02
              0.892342325696702E+02
              0.543080934012797E+02
             -0.241658762997487E+01
              0.227702257805912E+02
              0.484958099641678E+02
              0.363512601706704E+02
             -0.525557516130298E+02
              0.936110532785564E+02
             -0.825635628644801E+02
             -0.198157590638142E+02
              0.583010327378918E+02
              0.674400750541017E+01
              0.790766973403402E+01
              0.341029729864651E+02
              0.299107621574379E+02
              0.353640476362526E+02
             -0.637794350189193E+02
              0.288055216029466E+01
             -0.297566031455502E+02
             -0.871325121839064E+01
             -0.145286467027358E+01
             -0.722114221966157E+01
             -0.414391759025790E+01
              0.859396595129900E+02
             -0.101091502419899E+02
             -0.276404237127966E+02
             -0.496408710357998E+01
              0.140032696561949E+02
             -0.564132969884942E+02
             -0.407122852414936E+02
             -0.382173208819469E+02
             -0.630275535097742E+02
             -0.169805248913274E+02
             -0.447583160296301E+02
              0.163386880416032E+02
             -0.239867301455003E+01
             -0.104399756375228E+02
             -0.934516517800589E+01
              0.807886617694373E+01
             -0.243017590911923E+02
              0.689296971026439E+02
             -0.807177267958940E+02
             -0.141005437108809E+02
             -0.174166246626452E+02
              0.181972832030898E+02
              0.214338479082651E+02
             -0.463988393179995E+02
             -0.202035472410873E+02
              0.440936794077453E+02
             -0.276194730742652E+02
              0.186870502814617E+02
              0.382891172158314E+02
             -0.321793272585728E+01
              0.114166163936055E+03
             -0.230272828322181E+02
             -0.341157661550559E+02
              0.577978650806108E+01
             -0.228236820316394E+02
              0.527733572121027E+02
             -0.337306707240293E+02
              0.106637169366631E+02
              0.640673310262883E+02
             -0.126288796802754E+02
              0.120236496329210E+03
              0.125871621686448E+03
             -0.649923214293203E+02
              0.590576492179345E+02
              0.166559018958164E+02
             -0.517780957111870E+02
              0.216394699320797E+02
              0.353807145107109E+02
              0.362748167348831E+02
              0.135628939339540E+01
              0.159737689182608E+02
              0.695635664255474E+02
             -0.247005522943940E+02
              0.181180824973373E+02
              0.739051051864332E+02
             -0.372624927033943E+02
             -0.129600646000384E+02
              0.508581885867980E+02
              0.297465002168609E+02
              0.780671425334008E+02
              0.222710590227771E+02
              0.624691483035093E+01
              0.280550664107436E+02
              0.383292256848231E+02
             -0.471552319730649E+02
              0.331263030946025E+01
              0.129568356705176E+02
              0.113601922975190E+02
              0.220501366595622E+02
             -0.574806013120358E+02
              0.366221845885508E+02
             -0.443970690428439E+02
             -0.347365506152642E+02
              0.177869045509108E+02
             -0.181497534483563E+02
              0.555117649737082E+02
             -0.256217212221695E+02
              0.266775194603587E+02
              0.368438543608248E+02
              0.829336004836008E+02
              0.574640215473115E+02
              0.461724416767845E+02
             -0.105820019649991E+02
             -0.391032628610554E+01
             -0.331982738997497E+02
              0.750714311463904E+02
              0.797370980510331E+02
              0.361895533663768E+02
             -0.191975538574122E+02
              0.511971746597275E+02
             -0.162879792750404E+02
              0.214890816038155E+02
              0.614573585150087E+02
              0.213700148708386E+01
             -0.104428613144541E+02
             -0.283174811729624E+02
             -0.511496635383770E+02
              0.945373812870520E+02
              0.439624692873749E+02
             -0.559161360847919E+02
             -0.963377381625000E+01
              0.249965835523186E+02
             -0.997244835468999E+01
              0.592200224163468E+02
              0.152351014787345E+02
              0.799460275469144E+02
              0.279351693121451E+02
             -0.264160736387468E+02
              0.249095399471262E+02
             -0.503210700976172E+01
             -0.323767789696489E+02
              0.133326100744457E+02
              0.205907944768550E+02
              0.932785176277480E+02
              0.797432587554817E+02
              0.551069574548080E+02
              0.731011231766811E+02
              0.799854543527601E+01
             -0.273675313364583E+02
              0.163160657149668E+02
             -0.368198558206128E+02
             -0.476263816963443E+02
             -0.563718441404212E+02
             -0.266702256698771E+02
             -0.109718751416647E+03
             -0.291421439116264E+02
             -0.837274654270337E+02
              0.209967867469923E+02
             -0.477083688768501E+02
              0.396965132683308E+02
             -0.941361537498620E+02
             -0.330069481257828E+02
              0.548742736668214E+02
              0.207737749291593E+02
             -0.830701093391342E+02
              0.631197099238110E+02
             -0.256821235160858E+02
              0.512606649459767E+02
             -0.242893809784313E+02
             -0.751330337748321E+02
              0.112224867071290E+02
             -0.611487335137974E+02
             -0.168224693721230E+02
             -0.147862141209716E+01
              0.418428405656987E+02
              0.127029961748716E+03
             -0.461836481853862E+02
             -0.362859352489259E+02
             -0.988397623354899E+00
             -0.130195114432234E+02
             -0.822711681628537E+02
             -0.596972532166751E+02
              0.517390250183408E+02
             -0.289016039915668E+02
              0.169268558730194E+02
             -0.489582800997754E+02
             -0.131939924162531E+02
             -0.437478754334908E+02
              0.565618538688824E+02
              0.151263012707684E+02
             -0.231676615031625E+02
             -0.126896113766977E+02
              0.667086516891287E+01
             -0.619878042755067E+01
              0.441656231979447E+02
             -0.252151955222151E+02
              0.275211828327315E+01
              0.339128164691257E+02
              0.171417193882253E+02
             -0.159721274714137E+02
              0.156303336809146E+03
              0.537928547099116E+02
              0.117619700572816E+01
              0.161844426185907E+02
             -0.614724415613898E+02
              0.315152538093286E+02
             -0.721883113266633E+02
             -0.252283191629821E+02
             -0.522704517014591E+02
             -0.220045587663527E+02
              0.569249563407656E+02
             -0.537070215045920E+02
              0.160871065233385E+02
             -0.407463909571402E+01
              0.388593639766015E+01
             -0.433963090237594E+02
             -0.478441552360302E+02
             -0.400433783997232E+01
             -0.425120379188967E+02
             -0.217323338475696E+02
             -0.438482606715787E+02
             -0.119287657768622E+02
             -0.358978558486873E+02
             -0.516573215728811E+02
              0.212840407637388E+02
             -0.209438497381415E+02
              0.187859925958404E+02
              0.974827196333686E+01
             -0.738083685883930E+02
             -0.548248263012731E+02
             -0.398208059540933E+02
              0.354342378833162E+02
              0.270430994060234E+01
             -0.626889802520639E+02
              0.585652222324346E+02
             -0.401200646440577E+02
              0.544819077177155E+02
             -0.289527215065835E+02
             -0.446130435439397E+02
              0.298749514563784E+02
             -0.657918666083514E+02
             -0.379787934768843E+02
              0.672873979349664E+02
              0.203965471233544E+02
             -0.359938656401391E+02
              0.489421230198600E+02
             -0.173973544876523E+02
             -0.322670311228698E+02
             -0.301836033375336E+02
             -0.500799120366246E+02
              0.249401947474463E+02
             -0.933121924189529E+02
             -0.840348673640382E+02
             -0.733417960269571E+01
             -0.306903315990530E+02
             -0.575770522854037E+02
              0.722092577107094E+02
              0.131562535448144E+03
             -0.360922023918962E+02
             -0.255479030166219E+01
             -0.637180049991867E+02
              0.650738845555778E+02
              0.170772034994608E+02
             -0.181507136545273E+02
             -0.410141048106585E+02
              0.148695243571321E+02
             -0.586350448547555E+02
             -0.197542972590248E+02
             -0.904989452927004E+02
              0.336964078219878E+02
              0.169138746051021E+02
              0.183211268943103E+01
             -0.705228067045903E+01
             -0.329575191300034E+02
             -0.758032372364687E+01
              0.125534627823196E+03
             -0.199121409779740E+02
             -0.437281945159144E+02
             -0.684089795850592E+02
              0.109161613223568E+02
             -0.342107275225012E+02
              0.589764410419143E+01
              0.261543016699712E+02
              0.102091014935259E+02
              0.277951062714205E+02
              0.119888092905446E+02
              0.629758340848894E+02
              0.316915417463128E+02
             -0.326535877972734E+02
              0.355583976273718E+02
              0.379689821339825E+02
              0.121016043215905E+02
              0.486940779042562E+02
             -0.224745967024948E+02
              0.765992871081976E+02
              0.172503382362981E+02
             -0.272291284944604E+02
             -0.722565694442817E+01
             -0.186276765870309E+02
              0.261891239307809E+02
             -0.234710794990780E+02
             -0.124027512431468E+00
             -0.848911914837549E+01
              0.809940490807668E+02
              0.500197416259261E+02
             -0.687486759126062E+02
             -0.475994676024999E+01
             -0.555698392468277E+02
             -0.159654033917366E+02
             -0.268306405140082E+02
              0.375454591058576E+01
              0.575044073537097E+00
             -0.257541308475219E+02
              0.814284941084827E+01
             -0.603351485459677E+01
             -0.128633110712912E+02
              0.859278589990101E+02
              0.181892650177774E+02
             -0.806956239192820E+02
             -0.458362237816405E+02
              0.945050306475146E+02
              0.277739778176349E+02
             -0.106894536323503E+02
              0.104572717803607E+03
             -0.195110908653676E+02
             -0.123070263901561E+02
             -0.539385482628904E+01
              0.107409485015297E+02
              0.272360578530162E+02
              0.781249707834624E+01
              0.305532516198602E+02
             -0.188055848476436E+02
             -0.303744434881116E+02
             -0.417661724981126E+02
             -0.476959039685977E+02
              0.464039608196358E+02
              0.127007559131492E+02
              0.387638955382773E+02
              0.133477267594079E+02
              0.855788242645519E+02
              0.156565732342459E+02
             -0.846108239660267E+02
             -0.334510645054544E+02
              0.133852647411316E+02
             -0.302988723135507E+02
              0.626698145934886E+02
             -0.886538666266392E+01
              0.148877557474500E+02
              0.497429820007978E+02
             -0.707535904079170E+02
              0.149779217346628E+03
              0.208726921756567E+02
              0.271514074466334E+02
              0.347666127960584E+02
              0.103689190189506E+02
             -0.158427851490228E+01
              0.358616921763396E+02
             -0.357037466640464E+02
              0.773304887528842E+02
              0.684894335205294E+02
             -0.405947447376833E+02
              0.149543348965015E+02
              0.670392880252980E+02
             -0.224104493559382E+02
              0.154402395663882E+02
              0.435208409527600E+02
              0.422453728926895E+02
             -0.784848001082449E+02
             -0.152621391303171E+02
             -0.356245884328643E+02
             -0.148270411453257E+01
             -0.766089718097656E+01
             -0.546148710225100E+01
             -0.180839001501065E+02
             -0.293673619865531E+02
              0.633601131257775E+01
              0.111751099764154E+02
              0.535757995447801E+02
             -0.390305892726298E+02
              0.374335111002044E+02
              0.438611630702219E+02
             -0.186774243053579E+02
              0.872306543022972E+02
             -0.698056104137125E+02
             -0.103198836272544E+03
             -0.658822501803028E+01
             -0.267558868189701E+01
              0.387002414733843E+01
              0.789500514078920E+02
             -0.107117186050283E+02
              0.416771581811218E+02
              0.443763701243454E+02
              0.385480571290743E+02
             -0.993906748801817E+01
              0.627913856525379E+02
             -0.133684330893021E+02
             -0.307501624272082E+02
             -0.479514879996922E+02
              0.588640709575414E+01
              0.369823508938552E+02
             -0.602946888193398E+01
              0.393245066302014E+02
             -0.175065287750067E+01
              0.655438566132217E+02
              0.187513655710138E+02
              0.998507494688657E+01
             -0.121778970246004E+02
              0.332221242014069E+02
              0.362857417961101E+02
              0.232825837881457E+02
             -0.522515890583009E+00
             -0.550685277750003E+02
              0.260749440666129E+02
              0.175243142314098E+02
              0.402798862614395E+02
              0.272335947242985E+02
              0.372665355386605E+02
             -0.606914554650339E+01
              0.250999373141075E+02
             -0.298734019361411E+02
             -0.197125513388505E+01
             -0.569375833959923E+02
             -0.308233888915520E+02
              0.378969759177258E+02
             -0.935825624890663E+02
              0.294515037770658E+02
              0.183983466432196E+02
              0.840321934314238E+02
             -0.300734864576097E+02
              0.329431708183620E+02
             -0.137858252349507E+02
             -0.464118184193746E+02
             -0.762023357753724E+02
             -0.525626326338531E+01
             -0.860123840090442E+02
              0.199857294854190E+02
             -0.247516261611543E+02
              0.305923017712224E+02
              0.236898797880548E+02
             -0.241035257881425E+02
             -0.265315578082993E+02
              0.391215169029578E+02
             -0.588174316277266E+02
             -0.116555655166136E+02
             -0.196059930181363E+02
              0.212679476611552E+02
             -0.892361285490983E+01
              0.362138460872666E+01
             -0.200644322684299E+02
              0.558846768389856E+02
             -0.439501497864696E+02
              0.786788650516871E+01
              0.585293436049402E+02
             -0.323352188572299E+02
              0.359809598620151E+01
             -0.882740815614136E+01
             -0.669652202762846E+02
             -0.482827901332949E+02
             -0.861414832512394E+01
              0.240812043805626E+02
              0.302398726013959E+02
              0.859263989881498E+01
             -0.415280557752430E+01
              0.151913397837063E+02
             -0.440141099090690E+02
              0.333297027404240E+01
             -0.531319912580046E+02
             -0.324851270534916E+02
              0.474843716645511E+02
             -0.295267135466684E+02
              0.622526178900766E+02
             -0.214620903348018E+02
              0.353928746384229E+02
              0.241742643817056E+02
             -0.644214658918835E+02
             -0.280615366797715E+02
              0.933236006325802E+01
             -0.371684617158461E+02
             -0.339909360115065E+02
             -0.830216372923865E+02
             -0.539520580732707E+02
             -0.510512016596539E+02
             -0.415745133795613E+02
             -0.990624247147764E+00
              0.997011452721563E+01
              0.103359940703260E+01
              0.153248586543093E+02
             -0.549517909900005E+02
              0.141697542421286E+02
              0.256592839906826E+02
             -0.667111029690912E+02
             -0.702166174558805E+02
             -0.431299119102624E+02
             -0.171937161380750E+02
              0.178537546608487E+02
              0.454799249239511E+01
             -0.426308429188607E+02
              0.366378223135937E+02
             -0.216259603206690E+02
              0.517733422213008E+02
             -0.887420640418427E+02
              0.597744738501261E+02
             -0.212109705837346E+01
             -0.368579514505698E+02
             -0.216608968278969E+02
              0.471099636991970E+01
              0.374890159698705E+02
             -0.756382476380643E+02
             -0.120850935949036E+02
             -0.216588280719737E+02
              0.511164135992640E+02
              0.864954269837005E+02
             -0.965414616118350E+02
              0.944392148062743E+02
              0.468021513276549E+02
             -0.725764635159808E+02
             -0.366683281270152E+02
              0.752152218224419E+02
              0.632248092371767E+02
             -0.181026891616314E+02
             -0.465408963598111E+01
              0.732964635789487E+01
              0.649306741339002E+02
             -0.508631356297602E+02
              0.158424895490132E+02
             -0.471958731707501E+01
              0.347979052357200E+02
             -0.747080890016158E+02
             -0.647582848771633E+01
             -0.351188265920404E+02
              0.460871187799498E+02
              0.468984367321726E+02
             -0.862044479524883E+02
             -0.487115059459255E+02
             -0.256362841047571E+02
             -0.339457335255490E+02
             -0.109337164341171E+02
             -0.243028149747029E+02
              0.427562785935755E+02
              0.401404782328863E+02
             -0.565264173049542E+01
             -0.416254328979668E+02
             -0.850654582228557E+02
              0.443411078455209E+02
             -0.523437569157872E+02
             -0.313166393814337E+02
              0.547588787510665E+01
             -0.322535432579259E+02
             -0.398036321440916E+02
             -0.240227978310863E+02
             -0.385462081459761E+02
             -0.270919300824909E+02
             -0.482725495172995E+02
              0.564071505523576E+02
              0.638381957988951E+02
             -0.172885870586595E+01
             -0.261343337245607E+02
             -0.625331347191400E+01
              0.441354966206375E+02
             -0.868163167871078E+02
             -0.146322738733959E+02
              0.524007248096598E+02
              0.663677860319084E+02
             -0.244598980312547E+02
              0.915388735724093E+01
              0.523451694104776E+02
              0.198240480019875E+02
             -0.828973923189108E+01
             -0.453169983335297E+02
              0.280456886280319E+02
             -0.352583153749391E+02
             -0.164737959551390E+02
[...]
              0.283594263322173E+02
              0.141828812216085E+03
              0.242391611679971E+02
              0.122606060532034E+02
             -0.464624895039209E+02
             -0.637810400503733E+02
             -0.188937831822661E+02
              0.329481828450803E+02
             -0.426934098143522E+01
              0.189752708546374E+02
              0.336127299124707E+02
             -0.586883627758602E+02
              0.222397346750246E+02
              0.582258725353054E+02
              0.553173722538671E+02
             -0.421235058860958E+01
             -0.137300974776838E+01
             -0.993842353551742E+01
             -0.482361202561081E+02
             -0.675247624970751E+02
              0.785591799933700E+02
             -0.523996383272993E+01
             -0.587881165823075E+02
              0.171210240491868E+01
             -0.205372440411701E+02
              0.938504209989476E+02
             -0.216440023950998E+02
             -0.353674551432112E+02
              0.335215769453231E+02
             -0.145651285510688E+02
              0.389668644121132E+02
             -0.238964407053049E+01
              0.101100627759063E+03
              0.489649434749210E+02
             -0.510957192336542E+01
             -0.321964675127009E+02
              0.232300022651622E+02
             -0.528525497505763E+02
             -0.127870638285012E+02
              0.585824605508774E+02
             -0.287608760881798E+02
             -0.438412368299577E+02
             -0.223225095922861E+02
              0.518857869303672E+02
              0.124900491558877E+02
             -0.849070710442791E+02
              0.303957567091664E+02
              0.151957800358118E+02
              0.576598127118879E+01
             -0.513484610709032E+02
             -0.376446483785622E+01
              0.323172681195609E+02
              0.512955533474942E+02
              0.632461914589736E+02
              0.229023603933801E+02
              0.779030962131884E+00
             -0.498043592022016E+02
             -0.509955120133250E+02
             -0.748043044014378E+02
             -0.613014158946146E+01
              0.308986301266485E+02
             -0.379243283874234E+01
              0.546936322243757E+02
             -0.317968493448982E+02
              0.166595475690220E+02
             -0.102628522321795E+02
             -0.289398078975322E+02
              0.585584367606298E+02
              0.792482079136141E+01
              0.604124199101194E+02
              0.509106007783942E+01
              0.265029540317386E+02
             -0.192674975169398E+02
              0.586190076703242E+02
             -0.111280413926625E+02
             -0.140225545663906E+00
             -0.790201450673216E+02
             -0.128374836573391E+02
              0.719165657547932E+02
              0.673384055508143E+02
              0.251678758794610E+02
             -0.130414163967075E+02
              0.342393732925018E+01
             -0.173504388091801E+02
             -0.205810181949300E+01
              0.907720526988454E+02
              0.125010828343238E+01
             -0.190359322499185E+02
             -0.110765032612737E+03
             -0.552778933131677E+02
             -0.374943365971760E+02
             -0.658654431204741E+02
             -0.555484203757606E+02
             -0.682737329879185E+02
             -0.446988485551223E+02
             -0.410882632432680E+02
             -0.451909346529527E+02
              0.483474808893556E+02
             -0.294285242054912E+02
             -0.995853283814999E+02
              0.418951305373038E+02
             -0.259945967396824E+02
             -0.790879529276386E+02
              0.944064785532063E+02
             -0.219662501053743E+02
              0.228152414709087E+02
              0.455254233009597E+02
             -0.135267565914751E+01
              0.254295956539336E+02
              0.471094011966315E+01
              0.425215046850610E+00
             -0.150450962709458E+02
             -0.715520377627732E+02
              0.133241203644673E+02
             -0.129392799233183E+03
              0.624025576761506E+02
             -0.440536708187699E+02
             -0.162996758640690E+02
             -0.158246850994811E+02
              0.713650588189188E+01
             -0.227757882466893E+02
              0.297302549241731E+02
             -0.520628241721783E+02
              0.367245869640855E+02
              0.370699539853207E+02
              0.168546933305186E+02
              0.100375937027671E+02
              0.197830431522532E+02
              0.620898918754534E+01
              0.310501264865341E+02
             -0.798175223807675E+01
             -0.592108039482357E+02
              0.757375663934215E+01
             -0.152691571267594E+02
             -0.191959184770963E+01
              0.506081000439155E+02
             -0.826891873750195E+02
             -0.151699613698821E+01
              0.570425885924294E+00
              0.995778135332353E+01
              0.318437299405693E+02
             -0.123565140272729E+02
              0.835905277273678E+02
              0.487810832846497E+02
             -0.183352625517342E+02
             -0.958363685484568E+01
              0.106639883912382E+01
              0.769737848478444E+02
             -0.586319817999988E+02
             -0.105775197621808E+03
              0.309179062761820E+02
             -0.162866253821442E+02
             -0.139378821617851E+02
              0.130570425082348E+02
              0.768571137516029E+02
              0.464088050126034E+02
             -0.153451698971633E+02
             -0.502994703406187E+02
             -0.549810288485386E+01
              0.306406453178093E+02
             -0.111574859547416E+02
             -0.755769438577493E+02
             -0.270398121704619E+01
             -0.889863008991437E+02
             -0.475643504385321E+02
              0.768355727149226E+02
             -0.483452346655430E+02
             -0.636441718853131E+02
             -0.514325574492021E+02
             -0.349727968253426E+02
              0.340799280311662E+02
              0.821594045499907E+02
             -0.355445125094542E+01
              0.276574970948334E+02
             -0.183696815442685E+02
             -0.693866137295230E+02
              0.465067590707874E+02
             -0.444916735536676E+02
              0.321879930044780E+02
              0.376235653720367E+02
             -0.655995404070188E+01
              0.390647094193903E+02
              0.438396441251442E+02
              0.100654944089417E+03
             -0.156102814454069E+02
             -0.455940048783875E+02
             -0.612832914347948E+02
             -0.123916307969079E+02
             -0.232922091889497E+02
              0.103013075072637E+03
             -0.448921142506709E+02
              0.105225106930431E+02
              0.972549752483889E+01
             -0.264554556102338E+02
             -0.798575241938947E+02
             -0.699088921213911E+01
              0.979812704509620E+02
              0.938850134100201E+01
              0.809946289421993E+01
             -0.526838361477463E+02
             -0.605345280065603E+02
             -0.563769671863574E+01
              0.500327041225107E+02
             -0.221886733816469E+02
              0.107968135009619E+03
             -0.435326092413565E+02
              0.146334673537199E+02
             -0.224256470086494E+02
             -0.718356391871749E+02
              0.168414969164121E+01
             -0.501738649718559E+02
             -0.760631810636294E+02
              0.614581338550215E+01
              0.236531969913503E+01
              0.514032291903451E+02
              0.187269958565719E+02
             -0.323477165067393E+02
              0.230081989833760E+02
             -0.810726160112669E+02
             -0.521785757598931E+02
              0.901794646779407E+02
              0.142378093575962E+02
             -0.188081718510281E+02
             -0.352357980388934E+02
             -0.268001554984914E+01
             -0.587238925407155E+01
              0.829891111870266E+02
              0.417560678944541E+02
             -0.166119849963291E+02
             -0.122040066751366E+02
             -0.427707996612077E+02
             -0.200691792897085E+02
             -0.670008981994094E+02
              0.459529867986813E+02
              0.545682094102156E+01
              0.144867427891597E+02
              0.156018426118850E+02
             -0.569917359452880E+00
             -0.168429719610484E+02
             -0.309879534725880E+01
             -0.100421351725083E+03
             -0.229659121789553E+02
             -0.763342748839227E+01
             -0.947797540493778E+01
              0.546535507066042E+02
              0.623645991334986E+02
              0.164861066175343E+02
             -0.970516253459327E+02
              0.647580831652784E+02
             -0.215102684279881E+02
             -0.376948277354918E+02
             -0.864119564759578E+02
             -0.386998702625868E+02
              0.564293709734415E+02
              0.244074012015094E+02
              0.514035065920041E+01
              0.292250106580206E+02
             -0.564858721222571E+02
             -0.422280266389916E+02
              0.515230312755530E+02
              0.387278553026433E+02
              0.518876935542168E+02
             -0.124299976885962E+01
              0.683988729779571E+01
              0.569460964502028E+02
              0.962644999132350E+02
             -0.300266353048637E+02
              0.322653603871706E+02
             -0.118315728079989E+02
             -0.412113579400358E+02
             -0.314109382010022E+02
             -0.300005552514206E+02
             -0.131303401980057E+02
             -0.523395441666794E+02
             -0.217254066706049E+02
             -0.141140466078960E+03
              0.368813026720652E+02
              0.206933681869283E+02
             -0.393258406859864E+01
             -0.379861577197740E+02
             -0.204190102657019E+02
             -0.526721834153417E+02
              0.151087932518324E+02
              0.819912047148449E+02
             -0.252253054290945E+02
             -0.162933324989908E+02
              0.237888475309785E+02
             -0.489222210078013E+02
              0.880504470797932E+02
              0.154417083355031E+02
              0.226307823727151E+02
              0.490272724436168E+02
              0.321610054182781E+01
              0.542150576933651E+02
              0.142952397988763E+02
             -0.106491232122749E+02
              0.732602630625348E+01
              0.809526426840819E+00
              0.727381260637477E+02
              0.100977943162924E+02
              0.120439517661020E+02
             -0.129963990948157E+02
              0.132257531761705E+02
             -0.911190662171097E+02
             -0.325745821734579E+02
             -0.457385027599297E+02
              0.485354798670048E+02
             -0.291168291850352E+02
             -0.658463075725048E+02
              0.538262602997553E+02
             -0.122142463471670E+02
              0.439995967559368E+02
             -0.898644480968761E+02
              0.231932947796949E+02
              0.857867066900712E+01
              0.581861097673300E+01
             -0.832923280589677E+01
             -0.902931115283400E+01
              0.479404382654418E+02
              0.201081276878767E+01
             -0.474889952496390E+02
             -0.176119393337618E+02
              0.276694630556973E+02
             -0.117914424659404E+03
             -0.929648561764457E+02
              0.397539136454969E+01
              0.117615187675498E+02
             -0.413037473924273E+02
             -0.387928001193234E+01
              0.112112009908825E+03
              0.306607577134738E+02
             -0.571512926554617E+02
              0.925235385579609E+01
             -0.965146925389638E+01
              0.105527215680993E+02
             -0.337426207269195E+02
              0.195334613787887E+02
              0.284472304842867E+02
             -0.300272614186349E+01
              0.108158029925039E+03
             -0.140287715810717E+02
             -0.315982632555542E+02
              0.143030936621539E+02
              0.466689271286563E+02
             -0.355818186193017E+02
             -0.317142788900978E+01
              0.964639663486119E+02
             -0.466276986109301E+01
              0.621440441854401E+02
              0.135396071025327E+02
             -0.903095202401413E+01
             -0.305192471963718E+02
              0.566503262804046E+02
             -0.514278141012446E+02
             -0.221507065590549E+01
             -0.170115191598325E+02
             -0.405162208813748E+02
              0.184680613706681E+02
              0.238999669763549E+02
              0.115941483562824E+02
              0.729565644265790E+00
             -0.384396197376973E+02
              0.215506244207973E+02
             -0.674997261087475E+01
             -0.246597666461913E+02
             -0.210612777089032E+02
              0.203526704450450E+02
             -0.594901084277728E+01
             -0.349136841346457E+02
             -0.106598839963349E+03
              0.102765095423983E+02
              0.248756483357943E+02
             -0.387087290836417E+02
             -0.210917915164418E+02
              0.806800914030490E+02
              0.650553146085372E+01
              0.310729675635380E+02
              0.389868268059826E+01
              0.321806100352457E+02
              0.645452899335930E+01
             -0.372939104682703E+02
             -0.230944823919481E+01
              0.875650986064682E+01
              0.273812395297387E+02
              0.781898447706868E+02
              0.507473723366318E+02
              0.173844693909473E+00
              0.168797929859303E+02
              0.613082352840295E+02
              0.235845232188203E+02
             -0.752936154321001E+02
             -0.273756353182541E+02
              0.151062150854458E+02
              0.562087362728795E+01
              0.254999199422044E+02
             -0.547837497164406E+02
              0.898486569861325E+01
              0.385676562163950E+02
              0.498041902696941E+02
             -0.434893497149865E+02
             -0.690558001405549E+01
             -0.207709075472718E+01
             -0.133951518559687E+02
             -0.365604622832882E+02
             -0.215145189293424E+02
             -0.201328031800010E+01
              0.792656242459668E+01
              0.421293202628312E+02
             -0.308316317257643E+02
              0.826071705675098E+02
              0.327400129516935E+02
              0.219539331331225E+02
              0.332906246220908E+02
              0.323211577525747E+02
              0.345933847902143E+02
              0.537196843275067E+02
             -0.433870930711715E+02
              0.619471409115980E+02
             -0.112244664013227E+03
              0.307468712277954E+02
             -0.106520409458415E+03
              0.854643195497123E+02
              0.690571465629185E+02
             -0.109847688574848E+02
             -0.493298419653376E+02
             -0.429461943999976E+02
             -0.623512743010025E+02
             -0.628677005079069E+02
              0.551536781959487E+02
              0.405470440891725E+02
              0.236832306300324E+02
              0.373945387006490E+02
              0.403017852911415E+02
             -0.382150315121939E+02
             -0.197839608578807E+02
              0.586293709036502E+02
             -0.115879057439310E+02
              0.551576899224640E+02
              0.699314148818157E+02
             -0.553164359699096E+01
             -0.706206778280596E+02
             -0.920179310686649E+00
             -0.246112403652567E+01
             -0.882691303576769E+01
             -0.178287517544942E+01
             -0.652955834827196E+02
             -0.210867540419482E+02
              0.539335169286072E+01
              0.897424963437999E+01
              0.468817344342215E+02
             -0.397733187592118E+02
              0.657551417586824E+02
             -0.425269015976050E+02
              0.210285180737822E+02
              0.350388600261970E+02
 
 BEEF-vdW xc energy contributions
           1 :   -782.966106935834     
           2 :    719.418072423772     
           3 :   -609.306591795775     
           4 :    479.516012739777     
           5 :   -357.462846801420     
           6 :    263.013860710926     
           7 :   -203.936387211880     
           8 :    175.808903649418     
           9 :   -166.003300087387     
          10 :    159.839760538459     
          11 :   -146.398393737451     
          12 :    121.791819913237     
          13 :   -89.0448491036512     
          14 :    55.1973774521967     
          15 :   -27.3064703326244     
          16 :    9.15887780895673     
          17 :   2.534051488646583E-002
          18 :   -4.63837248755476     
          19 :    10.1901934886389     
          20 :   -20.5923444999246     
          21 :    36.4697604179802     
          22 :   -55.1653672938601     
          23 :    72.2620651690180     
          24 :   -83.7895304452754     
          25 :    88.0337560625351     
          26 :   -86.1531705599805     
          27 :    81.4128531392752     
          28 :   -77.5022200538997     
          29 :    76.7840287260873     
          30 :   -79.3013846773383     
          31 :   -85.8946488929287     
          32 :   -65.8665904581878     

     Writing output data file ./pwscf.save/
 
     init_run     :    389.83s CPU    394.72s WALL (       1 calls)
     electrons    :  14973.93s CPU  15102.42s WALL (       1 calls)
     forces       :    106.74s CPU    108.18s WALL (       1 calls)

     Called by init_run:
     wfcinit      :    341.85s CPU    345.70s WALL (       1 calls)
     potinit      :     44.78s CPU     45.14s WALL (       1 calls)
     hinit0       :      1.15s CPU      1.21s WALL (       1 calls)

     Called by electrons:
     c_bands      :  12588.33s CPU  12689.41s WALL (      19 calls)
     sum_band     :   1755.82s CPU   1768.04s WALL (      19 calls)
     v_of_rho     :    108.97s CPU    113.21s WALL (      19 calls)
     newd         :     31.02s CPU     42.09s WALL (      19 calls)
     PAW_pot      :    129.40s CPU    129.40s WALL (      19 calls)
     mix_rho      :    406.08s CPU    406.84s WALL (      19 calls)
     vdW_kernel   :     33.54s CPU     33.54s WALL (       1 calls)

     Called by c_bands:
     init_us_2    :     79.29s CPU     79.56s WALL (     520 calls)
     cegterg      :  11795.61s CPU  11895.44s WALL (     247 calls)

     Called by *egterg:
     cdiaghg      :    115.66s CPU    115.71s WALL (    1658 calls)
     h_psi        :   7841.08s CPU   7876.53s WALL (    1684 calls)
     s_psi        :   1172.04s CPU   1172.23s WALL (    1684 calls)
     g_psi        :     17.47s CPU     17.49s WALL (    1424 calls)

     Called by h_psi:
     h_psi:calbec :   1081.10s CPU   1081.99s WALL (    1684 calls)
     vloc_psi     :   5558.16s CPU   5560.05s WALL (    1684 calls)
     add_vuspsi   :   1173.50s CPU   1174.27s WALL (    1684 calls)

     General routines
     calbec       :   1561.21s CPU   1562.31s WALL (    1983 calls)
     fft          :     52.32s CPU     52.35s WALL (    3159 calls)
     ffts         :    135.85s CPU    135.87s WALL (    7990 calls)
     fftw         :   5572.08s CPU   5572.93s WALL (  330892 calls)
 
     Parallel routines
 
     PWSCF        :      4h19m CPU      4h22m WALL

 
   This run was terminated on:   2:46:29   4Jan2023            

=------------------------------------------------------------------------------=
   JOB DONE.
=------------------------------------------------------------------------------=
