
     Program PWSCF v.6.7MaX starts on 26Sep2022 at 14: 6: 8 

     This program is part of the open-source Quantum ESPRESSO suite
     for quantum simulation of materials; please cite
         "P. Giannozzi et al., J. Phys.:Condens. Matter 21 395502 (2009);
         "P. Giannozzi et al., J. Phys.:Condens. Matter 29 465901 (2017);
          URL http://www.quantum-espresso.org", 
     in publications or presentations arising from this work. More details at
     http://www.quantum-espresso.org/quote

     Parallel version (MPI), running on     1 processors

     MPI processes distributed on     1 nodes
     Reading input from cch2-ensemble.in
Warning: card &CELL ignored
Warning: card / ignored

     Current dimensions of program PWSCF are:
     Max number of different atomic species (ntypx) = 10
     Max number of k-points (npk) =  40000
     Max angular momentum in pseudopotentials (lmaxx) =  3
     file Pt.pbe-n-kjpaw_psl.1.0.0.UPF: wavefunction(s)  6S 5D renormalized
     file C.pbe-n-kjpaw_psl.1.0.0.UPF: wavefunction(s)  2S 2P renormalized
     file H.pbe-kjpaw_psl.1.0.0.UPF: wavefunction(s)  1S renormalized

     **************************************************************************
     Initializing libbeef V0.1.2 with the BEEF-vdW functional.
     Citation: Wellendorff et al., PRB 85, 235149 (2012).
     **************************************************************************


     IMPORTANT: XC functional enforced from input :
     Exchange-correlation= BEEF-VDW
                           (   1   4  43  14   2   0   0)
     Any further DFT definition will be discarded
     Please, verify this is what you really want


     Subspace diagonalization in iterative solution of the eigenvalue problem:
     a serial algorithm will be used

 
     G-vector sticks info
     --------------------
     sticks:   dense  smooth     PW     G-vecs:    dense   smooth      PW
     Sum        4267    4267   1159               703731   703731   99315
 


     bravais-lattice index     =            0
     lattice parameter (alat)  =      16.0349  a.u.
     unit-cell volume          =   11202.5118 (a.u.)^3
     number of atoms/cell      =           40
     number of atomic types    =            3
     number of electrons       =       370.00
     number of Kohn-Sham states=          222
     kinetic-energy cutoff     =      60.0000  Ry
     charge density cutoff     =     240.0000  Ry
     scf convergence threshold =      1.0E-06
     mixing beta               =       0.7000
     number of iterations used =            8  local-TF  mixing
     Exchange-correlation= BEEF-VDW
                           (   1   4  43  14   2   0   0)

     celldm(1)=  16.034858  celldm(2)=   0.000000  celldm(3)=   0.000000
     celldm(4)=   0.000000  celldm(5)=   0.000000  celldm(6)=   0.000000

     crystal axes: (cart. coord. in units of alat)
               a(1) = (   1.000000   0.000000   0.000000 )  
               a(2) = (   0.500000   0.866025   0.000000 )  
               a(3) = (   0.000000   0.000000   3.137541 )  

     reciprocal axes: (cart. coord. in units 2 pi/alat)
               b(1) = (  1.000000 -0.577350  0.000000 )  
               b(2) = (  0.000000  1.154701  0.000000 )  
               b(3) = (  0.000000  0.000000  0.318721 )  


     PseudoPot. # 1 for Pt read from file:
     /users/bkreitz1/quantum-espresso/potentials/Pt.pbe-n-kjpaw_psl.1.0.0.UPF
     MD5 check sum: 04dc8a03c51ece93fc7b5889c2958091
     Pseudo is Projector augmented-wave + core cor, Zval = 10.0
     Generated using 'atomic' code by A. Dal Corso  v.6.7MaX
     Shape of augmentation charge: PSQ
     Using radial grid of 1277 points,  6 beta functions with: 
                l(1) =   0
                l(2) =   0
                l(3) =   1
                l(4) =   1
                l(5) =   2
                l(6) =   2
     Q(r) pseudized with 0 coefficients 


     PseudoPot. # 2 for C  read from file:
     /users/bkreitz1/quantum-espresso/potentials/C.pbe-n-kjpaw_psl.1.0.0.UPF
     MD5 check sum: a169b0ebad56f5ec0d79c4633f80bf22
     Pseudo is Projector augmented-wave + core cor, Zval =  4.0
     Generated using 'atomic' code by A. Dal Corso  v.6.7MaX
     Shape of augmentation charge: PSQ
     Using radial grid of 1073 points,  4 beta functions with: 
                l(1) =   0
                l(2) =   0
                l(3) =   1
                l(4) =   1
     Q(r) pseudized with 0 coefficients 


     PseudoPot. # 3 for H  read from file:
     /users/bkreitz1/quantum-espresso/potentials/H.pbe-kjpaw_psl.1.0.0.UPF
     MD5 check sum: ae98473e6dc62675f0d0baffdab24f65
     Pseudo is Projector augmented-wave, Zval =  1.0
     Generated using 'atomic' code by A. Dal Corso  v.6.7MaX
     Shape of augmentation charge: PSQ
     Using radial grid of  929 points,  2 beta functions with: 
                l(1) =   0
                l(2) =   0
     Q(r) pseudized with 0 coefficients 


     atomic species   valence    mass     pseudopotential
        Pt            10.00   195.08400     Pt( 1.00)
        C              4.00    12.01100     C ( 1.00)
        H              1.00     1.00800     H ( 1.00)

     No symmetry found



   Cartesian axes

     site n.     atom                  positions (alat units)
         1           Pt  tau(   1) = (   0.0000000   0.0000000   1.0017346  )
         2           Pt  tau(   2) = (   0.3333333   0.0000000   1.0017346  )
         3           Pt  tau(   3) = (   0.6666667   0.0000000   1.0017346  )
         4           Pt  tau(   4) = (   0.1666667   0.2886751   1.0017346  )
         5           Pt  tau(   5) = (   0.5000000   0.2886751   1.0017346  )
         6           Pt  tau(   6) = (   0.8333333   0.2886751   1.0017346  )
         7           Pt  tau(   7) = (   0.3333333   0.5773503   1.0017346  )
         8           Pt  tau(   8) = (   0.6666667   0.5773503   1.0017346  )
         9           Pt  tau(   9) = (   1.0000000   0.5773503   1.0017346  )
        10           Pt  tau(  10) = (   0.1666667   0.0962250   1.2739001  )
        11           Pt  tau(  11) = (   0.5000000   0.0962250   1.2739001  )
        12           Pt  tau(  12) = (   0.8333333   0.0962250   1.2739001  )
        13           Pt  tau(  13) = (   0.3333333   0.3849002   1.2739001  )
        14           Pt  tau(  14) = (   0.6666667   0.3849002   1.2739001  )
        15           Pt  tau(  15) = (   1.0000000   0.3849002   1.2739001  )
        16           Pt  tau(  16) = (   0.5000000   0.6735753   1.2739001  )
        17           Pt  tau(  17) = (   0.8333333   0.6735753   1.2739001  )
        18           Pt  tau(  18) = (   1.1666667   0.6735753   1.2739001  )
        19           Pt  tau(  19) = (  -0.0011516   0.1913504   1.5423362  )
        20           Pt  tau(  20) = (   0.3334423   0.1916236   1.5462122  )
        21           Pt  tau(  21) = (   0.6651033   0.1915533   1.5451994  )
        22           Pt  tau(  22) = (   0.1655732   0.4805046   1.5415548  )
        23           Pt  tau(  23) = (   0.4984718   0.4785944   1.5449175  )
        24           Pt  tau(  24) = (   0.8318095   0.4806881   1.5423383  )
        25           Pt  tau(  25) = (   0.3303520   0.7697806   1.5449262  )
        26           Pt  tau(  26) = (   0.6685848   0.7709133   1.5494686  )
        27           Pt  tau(  27) = (   0.9993467   0.7703141   1.5462202  )
        28           Pt  tau(  28) = (  -0.0077913  -0.0024906   1.8185327  )
        29           Pt  tau(  29) = (   0.3140510  -0.0111299   1.8317071  )
        30           Pt  tau(  30) = (   0.6700335  -0.0044857   1.8309445  )
        31           Pt  tau(  31) = (   0.1613181   0.2886207   1.8149883  )
        32           Pt  tau(  32) = (   0.4977407   0.2939442   1.8308782  )
        33           Pt  tau(  33) = (   0.8341355   0.2891556   1.8169685  )
        34           Pt  tau(  34) = (   0.3294928   0.5751878   1.8180557  )
        35           Pt  tau(  35) = (   0.6605904   0.5718789   1.8185346  )
        36           Pt  tau(  36) = (   0.9972695   0.5727745   1.8150070  )
        37           C   tau(  37) = (   0.5007460   0.0967887   1.9564127  )
        38           C   tau(  38) = (   0.3995350   0.0383873   2.0742513  )
        39           H   tau(  39) = (   0.3206234   0.1182536   2.1356344  )
        40           H   tau(  40) = (   0.9293346   0.7962594   2.1369772  )

     number of k points=    13  Marzari-Vanderbilt smearing, width (Ry)=  0.0200
                       cart. coord. in units 2pi/alat
        k(    1) = (   0.0000000   0.0000000   0.0000000), wk =   0.0800000
        k(    2) = (   0.0000000   0.2309401   0.0000000), wk =   0.1600000
        k(    3) = (   0.0000000   0.4618802   0.0000000), wk =   0.1600000
        k(    4) = (   0.2000000  -0.1154701   0.0000000), wk =   0.1600000
        k(    5) = (   0.2000000   0.1154701   0.0000000), wk =   0.1600000
        k(    6) = (   0.2000000   0.3464102   0.0000000), wk =   0.1600000
        k(    7) = (   0.2000000  -0.5773503   0.0000000), wk =   0.1600000
        k(    8) = (   0.2000000  -0.3464102   0.0000000), wk =   0.1600000
        k(    9) = (   0.4000000  -0.2309401   0.0000000), wk =   0.1600000
        k(   10) = (   0.4000000  -0.0000000   0.0000000), wk =   0.1600000
        k(   11) = (   0.4000000   0.2309401   0.0000000), wk =   0.1600000
        k(   12) = (   0.4000000  -0.6928203   0.0000000), wk =   0.1600000
        k(   13) = (   0.4000000  -0.4618802   0.0000000), wk =   0.1600000

     Dense  grid:   703731 G-vectors     FFT dimensions: (  80,  80, 250)

     Estimated max dynamical RAM per process >       8.45 GB

     Check: negative core charge=   -0.000001

     Initial potential from superposition of free atoms

     starting charge  369.99379, renormalised to  370.00000

     negative rho (up, down):  1.160E-02 0.000E+00


     %%%%%%%%%%%%%%%%%%%%%%%%%%%%%%%%%%%%%%%%%%%%%%%%%%%%%%%%%%%%%%%%%%%%%%%%
     %                                                                      %
     % You are using vdW-DF, which was implemented by the Thonhauser group. %
     % Please cite the following two papers that made this development      %
     % possible and the two reviews that describe the various versions:     %
     %                                                                      %
     %   T. Thonhauser et al., PRL 115, 136402 (2015).                      %
     %   T. Thonhauser et al., PRB 76, 125112 (2007).                       %
     %   K. Berland et al., Rep. Prog. Phys. 78, 066501 (2015).             %
     %   D.C. Langreth et al., J. Phys.: Condens. Matter 21, 084203 (2009). %
     %                                                                      %
     %                                                                      %
     % If you are calculating the stress with vdW-DF, please also cite:     %
     %                                                                      %
     %   R. Sabatini et al., J. Phys.: Condens. Matter 24, 424209 (2012).   %
     %                                                                      %
     %%%%%%%%%%%%%%%%%%%%%%%%%%%%%%%%%%%%%%%%%%%%%%%%%%%%%%%%%%%%%%%%%%%%%%%%


     Starting wfcs are  334 randomized atomic wfcs
     Checking if some PAW data can be deallocated... 

     total cpu time spent up to now is      322.6 secs

     Self-consistent Calculation

     iteration #  1     ecut=    60.00 Ry     beta= 0.70
     Davidson diagonalization with overlap
     ethr =  1.00E-02,  avg # of iterations =  2.0

     Threshold (ethr) on eigenvalues was too large:
     Diagonalizing with lowered threshold

     Davidson diagonalization with overlap
     ethr =  7.19E-04,  avg # of iterations =  3.2

     negative rho (up, down):  1.307E-02 0.000E+00

     total cpu time spent up to now is     1580.0 secs

     total energy              =  -27794.34623181 Ry
     estimated scf accuracy    <       2.93492953 Ry

     iteration #  2     ecut=    60.00 Ry     beta= 0.70
     Davidson diagonalization with overlap
     ethr =  7.93E-04,  avg # of iterations =  2.0

     negative rho (up, down):  1.114E-02 0.000E+00

     total cpu time spent up to now is     2153.7 secs

     total energy              =  -27794.55828978 Ry
     estimated scf accuracy    <       1.23638333 Ry

     iteration #  3     ecut=    60.00 Ry     beta= 0.70
     Davidson diagonalization with overlap
     ethr =  3.34E-04,  avg # of iterations =  2.0

     negative rho (up, down):  8.846E-03 0.000E+00

     total cpu time spent up to now is     2716.5 secs

     total energy              =  -27794.62739253 Ry
     estimated scf accuracy    <       0.48974423 Ry

     iteration #  4     ecut=    60.00 Ry     beta= 0.70
     Davidson diagonalization with overlap
     ethr =  1.32E-04,  avg # of iterations = 12.5

     negative rho (up, down):  7.015E-03 0.000E+00

     total cpu time spent up to now is     3407.5 secs

     total energy              =  -27794.66919923 Ry
     estimated scf accuracy    <       0.16397252 Ry

     iteration #  5     ecut=    60.00 Ry     beta= 0.70
     Davidson diagonalization with overlap
     ethr =  4.43E-05,  avg # of iterations =  7.7

     negative rho (up, down):  5.294E-03 0.000E+00

     total cpu time spent up to now is     4124.0 secs

     total energy              =  -27794.68903863 Ry
     estimated scf accuracy    <       0.05408071 Ry

     iteration #  6     ecut=    60.00 Ry     beta= 0.70
     Davidson diagonalization with overlap
     c_bands:  1 eigenvalues not converged
     c_bands:  1 eigenvalues not converged
     c_bands:  1 eigenvalues not converged
     ethr =  1.46E-05,  avg # of iterations = 13.1

     negative rho (up, down):  4.388E-03 0.000E+00

     total cpu time spent up to now is     4894.7 secs

     total energy              =  -27794.69557551 Ry
     estimated scf accuracy    <       0.00726523 Ry

     iteration #  7     ecut=    60.00 Ry     beta= 0.70
     Davidson diagonalization with overlap
     c_bands:  1 eigenvalues not converged
     c_bands:  1 eigenvalues not converged
     c_bands:  2 eigenvalues not converged
     ethr =  1.96E-06,  avg # of iterations = 13.4

     negative rho (up, down):  4.226E-03 0.000E+00

     total cpu time spent up to now is     5922.9 secs

     total energy              =  -27794.69856382 Ry
     estimated scf accuracy    <       0.00234725 Ry

     iteration #  8     ecut=    60.00 Ry     beta= 0.70
     Davidson diagonalization with overlap
     c_bands:  1 eigenvalues not converged
     ethr =  6.34E-07,  avg # of iterations =  6.3

     negative rho (up, down):  4.330E-03 0.000E+00

     total cpu time spent up to now is     6577.3 secs

     total energy              =  -27794.69890200 Ry
     estimated scf accuracy    <       0.00128415 Ry

     iteration #  9     ecut=    60.00 Ry     beta= 0.70
     Davidson diagonalization with overlap
     c_bands:  1 eigenvalues not converged
     ethr =  3.47E-07,  avg # of iterations =  3.4

     negative rho (up, down):  4.804E-03 0.000E+00

     total cpu time spent up to now is     7156.5 secs

     total energy              =  -27794.69901537 Ry
     estimated scf accuracy    <       0.00082482 Ry

     iteration # 10     ecut=    60.00 Ry     beta= 0.70
     Davidson diagonalization with overlap
     ethr =  2.23E-07,  avg # of iterations =  6.8

     negative rho (up, down):  5.361E-03 0.000E+00

     total cpu time spent up to now is     7752.6 secs

     total energy              =  -27794.69904977 Ry
     estimated scf accuracy    <       0.00068595 Ry

     iteration # 11     ecut=    60.00 Ry     beta= 0.70
     Davidson diagonalization with overlap
     ethr =  1.85E-07,  avg # of iterations =  1.7

     negative rho (up, down):  8.349E-03 0.000E+00

     total cpu time spent up to now is     8276.9 secs

     total energy              =  -27794.69901788 Ry
     estimated scf accuracy    <       0.00050154 Ry

     iteration # 12     ecut=    60.00 Ry     beta= 0.70
     Davidson diagonalization with overlap
     ethr =  1.36E-07,  avg # of iterations =  2.8

     negative rho (up, down):  9.737E-03 0.000E+00

     total cpu time spent up to now is     8838.1 secs

     total energy              =  -27794.69902863 Ry
     estimated scf accuracy    <       0.00019484 Ry

     iteration # 13     ecut=    60.00 Ry     beta= 0.70
     Davidson diagonalization with overlap
     ethr =  5.27E-08,  avg # of iterations =  2.0

     negative rho (up, down):  1.128E-02 0.000E+00

     total cpu time spent up to now is     9412.5 secs

     total energy              =  -27794.69904634 Ry
     estimated scf accuracy    <       0.00006206 Ry

     iteration # 14     ecut=    60.00 Ry     beta= 0.70
     Davidson diagonalization with overlap
     ethr =  1.68E-08,  avg # of iterations =  4.1

     negative rho (up, down):  1.102E-02 0.000E+00

     total cpu time spent up to now is    10113.9 secs

     total energy              =  -27794.69906515 Ry
     estimated scf accuracy    <       0.00003181 Ry

     iteration # 15     ecut=    60.00 Ry     beta= 0.70
     Davidson diagonalization with overlap
     ethr =  8.60E-09,  avg # of iterations =  2.0

     negative rho (up, down):  1.191E-02 0.000E+00

     total cpu time spent up to now is    10679.6 secs

     total energy              =  -27794.69906542 Ry
     estimated scf accuracy    <       0.00001738 Ry

     iteration # 16     ecut=    60.00 Ry     beta= 0.70
     Davidson diagonalization with overlap
     ethr =  4.70E-09,  avg # of iterations =  2.0

     negative rho (up, down):  1.235E-02 0.000E+00

     total cpu time spent up to now is    11257.0 secs

     total energy              =  -27794.69906587 Ry
     estimated scf accuracy    <       0.00000261 Ry

     iteration # 17     ecut=    60.00 Ry     beta= 0.70
     Davidson diagonalization with overlap
     ethr =  7.06E-10,  avg # of iterations =  5.1

     negative rho (up, down):  1.246E-02 0.000E+00

     total cpu time spent up to now is    12237.3 secs

     total energy              =  -27794.69906702 Ry
     estimated scf accuracy    <       0.00000243 Ry

     iteration # 18     ecut=    60.00 Ry     beta= 0.70
     Davidson diagonalization with overlap
     ethr =  6.57E-10,  avg # of iterations =  1.2

     negative rho (up, down):  1.272E-02 0.000E+00

     total cpu time spent up to now is    12737.5 secs

     End of self-consistent calculation

          k = 0.0000 0.0000 0.0000 ( 88025 PWs)   bands (ev):

   -13.2258  -8.3619  -6.7514  -5.5188  -5.1968  -5.0781  -4.4980  -4.3859
    -4.3804  -4.3705  -4.3570  -4.3281  -4.3190  -4.2378  -3.9417  -3.8380
    -3.8264  -3.8156  -3.8135  -3.7321  -3.6409  -3.4908  -3.3843  -3.3580
    -3.3474  -3.2338  -3.1954  -3.1573  -3.1551  -3.1312  -3.1256  -3.0589
    -3.0233  -3.0110  -2.9685  -2.9443  -2.9041  -2.8904  -2.8875  -2.8605
    -2.8429  -2.8348  -2.8142  -2.6949  -2.4154  -2.3892  -2.3318  -2.3100
    -2.2791  -2.2784  -2.2559  -2.2309  -2.2101  -2.1826  -2.0534  -2.0501
    -2.0055  -1.9994  -1.8587  -1.7742  -1.6458  -1.5649  -1.5407  -1.5020
    -1.4810  -1.4572  -1.4276  -1.3703  -1.3396  -1.3118  -1.2836  -1.2764
    -1.2715  -1.2691  -1.2390  -1.2386  -1.2262  -1.1938  -1.1863  -1.1779
    -1.1593  -1.1566  -1.1446  -1.0987  -1.0963  -1.0757  -1.0570  -1.0520
    -0.8908  -0.8906  -0.8642  -0.8352  -0.8309  -0.8240  -0.8042  -0.7985
    -0.7827  -0.7482  -0.7452  -0.6907  -0.6374  -0.6363  -0.5949  -0.5881
    -0.5880  -0.5375  -0.4958  -0.4949  -0.4698  -0.4481  -0.4334  -0.3925
    -0.3177  -0.0902  -0.0449  -0.0308   0.0175   0.0588   0.0653   0.0658
     0.0778   0.1103   0.1571   0.2080   0.2083   0.2617   0.2748   0.2946
     0.3002   0.3152   0.3320   0.4058   0.4497   0.5104   0.5440   0.5471
     0.5705   0.5857   0.6652   0.7243   0.7888   0.8048   0.8130   0.8506
     0.8627   0.8761   0.9236   0.9258   0.9704   0.9886   1.0397   1.0640
     1.0661   1.1049   1.1662   1.1797   1.2382   1.2434   1.2494   1.2559
     1.2586   1.2622   1.2700   1.2859   1.2888   1.3462   1.3547   1.3638
     1.3698   1.3749   1.4444   1.4520   1.4677   1.4773   1.4781   1.5253
     1.5280   1.5593   1.5844   1.6096   1.6126   1.6179   1.6321   1.6405
     1.6520   1.6960   1.7034   1.7124   1.7373   1.7595   1.7739   1.8662
     1.8946   2.0077   2.0092   2.0192   2.0614   2.0634   2.0773   2.1690
     2.5659   2.6157   2.8312   2.9287   2.9345   2.9538   3.4628   3.9409
     4.7807   5.2074   5.2283   5.2545   5.5895   5.6186   5.8862   6.4553
     6.7953   6.8257   6.8451   6.8752   6.8922   7.0058

          k = 0.0000 0.2309 0.0000 ( 87880 PWs)   bands (ev):

   -13.2253  -8.3538  -6.6099  -5.4112  -5.1974  -5.0415  -4.8498  -4.4911
    -4.4554  -4.2934  -4.2383  -4.1690  -4.1183  -4.0845  -3.9894  -3.9052
    -3.8234  -3.7574  -3.7466  -3.6620  -3.6127  -3.4407  -3.4007  -3.3273
    -3.2962  -3.2837  -3.2284  -3.2047  -3.1655  -3.1439  -3.1199  -3.0834
    -3.0369  -3.0185  -2.9883  -2.9708  -2.9331  -2.9172  -2.8530  -2.7804
    -2.7221  -2.7064  -2.6670  -2.6140  -2.4691  -2.4436  -2.4062  -2.3795
    -2.3612  -2.3369  -2.3051  -2.2109  -2.1718  -2.1514  -2.0747  -2.0449
    -2.0124  -1.9735  -1.8670  -1.8136  -1.7517  -1.6919  -1.6544  -1.6233
    -1.6033  -1.5816  -1.5426  -1.5278  -1.4934  -1.4737  -1.4330  -1.4077
    -1.3475  -1.3264  -1.3004  -1.2906  -1.2575  -1.2255  -1.1935  -1.1711
    -1.1312  -1.0930  -1.0847  -1.0632  -1.0351  -1.0202  -0.9986  -0.9538
    -0.9290  -0.9167  -0.8919  -0.8668  -0.8534  -0.8407  -0.8200  -0.7915
    -0.7686  -0.7396  -0.7206  -0.7063  -0.6840  -0.6612  -0.6414  -0.6359
    -0.6105  -0.5911  -0.5502  -0.5060  -0.4673  -0.4455  -0.4178  -0.4058
    -0.3837  -0.3452  -0.3405  -0.3328  -0.2379  -0.1721  -0.0643  -0.0105
     0.0336   0.0483   0.0656   0.0813   0.1117   0.1317   0.2187   0.2693
     0.3194   0.3497   0.3912   0.4104   0.4197   0.4511   0.4859   0.4998
     0.5125   0.5303   0.5775   0.6615   0.6818   0.6929   0.7065   0.7620
     0.8015   0.8368   0.8615   0.8740   0.9002   0.9556   0.9795   1.0479
     1.0534   1.0682   1.0782   1.1109   1.1383   1.1826   1.2080   1.2466
     1.2619   1.2750   1.2984   1.3455   1.3789   1.4159   1.4337   1.4771
     1.4896   1.5498   1.5608   1.5815   1.5922   1.6153   1.6212   1.6802
     1.6936   1.7020   1.7269   1.7394   1.7644   1.7819   1.8241   1.8711
     1.9167   1.9308   1.9657   1.9795   1.9995   2.0239   2.0359   2.0594
     2.0782   2.1274   2.1693   2.1931   2.2495   2.3257   2.3490   2.3750
     2.4404   2.7327   2.9255   3.1633   3.4742   3.6017   3.7162   3.8817
     4.6118   4.9498   5.1689   5.4781   5.6475   5.7462   5.9000   6.0045
     6.1274   6.5186   6.6660   6.8263   6.9233   7.0683

          k = 0.0000 0.4619 0.0000 ( 87922 PWs)   bands (ev):

   -13.2246  -8.3408  -6.2027  -5.5957  -5.2167  -5.0964  -4.8624  -4.5133
    -4.4823  -4.3745  -4.1486  -4.0498  -3.9591  -3.8570  -3.7898  -3.7685
    -3.7273  -3.6369  -3.5970  -3.5570  -3.5425  -3.5034  -3.4300  -3.3955
    -3.3824  -3.3499  -3.3296  -3.3033  -3.2601  -3.2180  -3.1967  -3.1301
    -2.9911  -2.9764  -2.9489  -2.9218  -2.8744  -2.8019  -2.7459  -2.7162
    -2.7046  -2.6791  -2.6125  -2.5354  -2.4990  -2.4590  -2.4151  -2.3776
    -2.3383  -2.3095  -2.2828  -2.2387  -2.2274  -2.2111  -2.1784  -2.1167
    -2.0590  -2.0212  -1.9996  -1.9540  -1.9018  -1.8446  -1.8158  -1.7976
    -1.7846  -1.7595  -1.6513  -1.6213  -1.6011  -1.5837  -1.5270  -1.4779
    -1.4691  -1.4443  -1.4094  -1.3370  -1.3146  -1.2799  -1.2463  -1.2309
    -1.1836  -1.1702  -1.1399  -1.1196  -1.0940  -1.0858  -1.0608  -1.0472
    -1.0370  -1.0193  -1.0054  -0.9498  -0.9277  -0.8946  -0.8733  -0.8580
    -0.8406  -0.8046  -0.7799  -0.7303  -0.6930  -0.6691  -0.6548  -0.6322
    -0.6194  -0.5780  -0.5347  -0.5200  -0.4874  -0.4342  -0.4126  -0.3714
    -0.3644  -0.3297  -0.3026  -0.2168  -0.1695  -0.1389  -0.1099  -0.0630
    -0.0441  -0.0173   0.0203   0.0323   0.0485   0.0967   0.1044   0.1262
     0.1368   0.1450   0.1852   0.2029   0.2531   0.3013   0.3411   0.3580
     0.3833   0.4047   0.4974   0.5221   0.6013   0.6154   0.6729   0.6895
     0.7655   0.7958   0.8309   0.8738   0.8984   0.9240   0.9499   0.9652
     0.9995   1.0271   1.0440   1.0973   1.1307   1.1586   1.1980   1.2129
     1.2288   1.2524   1.3167   1.3779   1.4362   1.4483   1.4651   1.4974
     1.5788   1.6067   1.6154   1.6264   1.6519   1.6933   1.7361   1.7567
     1.7692   1.8014   1.8627   1.9015   1.9255   1.9336   1.9505   1.9665
     2.0076   2.0301   2.1091   2.1578   2.1876   2.2013   2.2174   2.2881
     2.3759   2.4475   2.5499   2.7143   2.8640   3.1043   3.2029   3.2633
     3.4212   3.4854   3.6684   3.8672   4.0300   4.2071   4.4521   4.5020
     4.5474   4.6601   4.6983   4.9010   4.9942   5.1982   5.3477   5.5853
     5.7636   6.0325   6.3029   6.4456   6.7948   6.8410

          k = 0.2000-0.1155 0.0000 ( 87880 PWs)   bands (ev):

   -13.2253  -8.3538  -6.6099  -5.4110  -5.1979  -5.0418  -4.8490  -4.4916
    -4.4552  -4.2933  -4.2383  -4.1690  -4.1183  -4.0844  -3.9888  -3.9052
    -3.8246  -3.7573  -3.7466  -3.6620  -3.6121  -3.4410  -3.4006  -3.3272
    -3.2963  -3.2838  -3.2285  -3.2047  -3.1654  -3.1440  -3.1199  -3.0834
    -3.0370  -3.0183  -2.9883  -2.9709  -2.9332  -2.9171  -2.8530  -2.7804
    -2.7221  -2.7064  -2.6669  -2.6138  -2.4694  -2.4435  -2.4064  -2.3796
    -2.3613  -2.3367  -2.3049  -2.2105  -2.1717  -2.1518  -2.0747  -2.0449
    -2.0122  -1.9735  -1.8672  -1.8139  -1.7511  -1.6921  -1.6543  -1.6235
    -1.6031  -1.5815  -1.5425  -1.5279  -1.4934  -1.4737  -1.4329  -1.4079
    -1.3475  -1.3262  -1.3004  -1.2906  -1.2575  -1.2257  -1.1935  -1.1712
    -1.1312  -1.0930  -1.0847  -1.0633  -1.0351  -1.0201  -0.9985  -0.9539
    -0.9286  -0.9168  -0.8919  -0.8667  -0.8535  -0.8407  -0.8198  -0.7914
    -0.7686  -0.7395  -0.7207  -0.7063  -0.6841  -0.6613  -0.6415  -0.6360
    -0.6105  -0.5912  -0.5503  -0.5054  -0.4674  -0.4455  -0.4179  -0.4060
    -0.3838  -0.3452  -0.3404  -0.3331  -0.2376  -0.1721  -0.0644  -0.0106
     0.0336   0.0481   0.0655   0.0813   0.1118   0.1316   0.2189   0.2693
     0.3196   0.3496   0.3912   0.4104   0.4197   0.4512   0.4858   0.4998
     0.5126   0.5304   0.5774   0.6615   0.6817   0.6929   0.7065   0.7621
     0.8016   0.8368   0.8615   0.8740   0.9002   0.9556   0.9794   1.0479
     1.0534   1.0683   1.0782   1.1110   1.1383   1.1827   1.2081   1.2466
     1.2619   1.2750   1.2984   1.3454   1.3790   1.4159   1.4337   1.4771
     1.4896   1.5499   1.5608   1.5815   1.5922   1.6153   1.6213   1.6802
     1.6936   1.7020   1.7269   1.7394   1.7644   1.7818   1.8241   1.8712
     1.9167   1.9308   1.9658   1.9796   1.9995   2.0240   2.0360   2.0594
     2.0782   2.1274   2.1694   2.1931   2.2496   2.3257   2.3489   2.3750
     2.4397   2.7328   2.9267   3.1625   3.4743   3.6017   3.7162   3.8809
     4.6114   4.9509   5.1691   5.4781   5.6479   5.7465   5.8997   6.0038
     6.1276   6.5186   6.6659   6.8254   6.9236   7.0680

          k = 0.2000 0.1155 0.0000 ( 87880 PWs)   bands (ev):

   -13.2252  -8.3559  -6.6094  -5.4120  -5.1892  -5.0960  -4.7920  -4.4848
    -4.4703  -4.3074  -4.2377  -4.1415  -4.1246  -4.1185  -3.9258  -3.8614
    -3.8259  -3.7737  -3.7456  -3.7365  -3.5573  -3.4288  -3.4057  -3.3371
    -3.2904  -3.2765  -3.2150  -3.2037  -3.1954  -3.1255  -3.1205  -3.0766
    -3.0440  -3.0159  -2.9926  -2.9690  -2.9242  -2.9209  -2.8534  -2.7719
    -2.7487  -2.6951  -2.6856  -2.6520  -2.4696  -2.4357  -2.4100  -2.3881
    -2.3698  -2.3520  -2.2795  -2.2251  -2.2008  -2.1194  -2.0830  -2.0687
    -1.9878  -1.9582  -1.8963  -1.7810  -1.7773  -1.6771  -1.6386  -1.6284
    -1.6203  -1.6119  -1.5409  -1.4991  -1.4871  -1.4806  -1.4323  -1.3957
    -1.3534  -1.3357  -1.3028  -1.2746  -1.2650  -1.2447  -1.1944  -1.1626
    -1.1258  -1.1104  -1.0795  -1.0739  -1.0384  -1.0309  -1.0269  -0.9530
    -0.9452  -0.9016  -0.8874  -0.8598  -0.8514  -0.8358  -0.8093  -0.7944
    -0.7819  -0.7553  -0.7185  -0.6942  -0.6749  -0.6621  -0.6487  -0.6378
    -0.5792  -0.5745  -0.5215  -0.5161  -0.4600  -0.4450  -0.4163  -0.4066
    -0.3851  -0.3450  -0.3418  -0.3160  -0.2653  -0.1543  -0.0641   0.0028
     0.0151   0.0467   0.0639   0.0963   0.1128   0.1586   0.1795   0.2560
     0.3118   0.3511   0.3860   0.4007   0.4326   0.4496   0.4855   0.4857
     0.5170   0.5270   0.6483   0.6594   0.6848   0.6941   0.7212   0.7300
     0.8188   0.8457   0.8725   0.8951   0.9126   0.9340   0.9748   1.0334
     1.0471   1.0593   1.0823   1.0933   1.1450   1.1816   1.2002   1.2399
     1.2616   1.2689   1.2998   1.3461   1.3905   1.4235   1.4317   1.4747
     1.4771   1.5320   1.5622   1.5848   1.6093   1.6112   1.6301   1.6866
     1.6920   1.7027   1.7269   1.7354   1.7585   1.7816   1.8383   1.8531
     1.9220   1.9417   1.9730   1.9746   1.9961   2.0228   2.0301   2.0632
     2.0672   2.1414   2.1465   2.1910   2.2485   2.3117   2.3422   2.3687
     2.6130   2.6241   2.7557   3.3280   3.4508   3.5541   3.6916   4.0491
     4.5770   4.8515   5.1586   5.4488   5.7122   5.7969   5.9497   5.9762
     6.0955   6.5332   6.6955   6.7814   6.9416   7.0504

          k = 0.2000 0.3464 0.0000 ( 87940 PWs)   bands (ev):

   -13.2246  -8.3460  -6.3338  -5.3146  -5.2224  -5.1041  -5.0473  -4.8493
    -4.1997  -4.0652  -4.0443  -4.0361  -4.0019  -3.9768  -3.9514  -3.9007
    -3.8536  -3.8043  -3.6342  -3.4971  -3.4684  -3.4541  -3.4443  -3.3815
    -3.3610  -3.2645  -3.2461  -3.2321  -3.1917  -3.1478  -3.1164  -3.1080
    -3.0769  -3.0296  -2.9976  -2.9781  -2.9512  -2.9221  -2.8739  -2.8031
    -2.7245  -2.6065  -2.5453  -2.5295  -2.4796  -2.4723  -2.4189  -2.4057
    -2.3695  -2.3337  -2.2749  -2.2311  -2.2056  -2.1340  -2.0989  -2.0721
    -2.0285  -2.0049  -1.9658  -1.9387  -1.8882  -1.8419  -1.7609  -1.7437
    -1.7229  -1.6925  -1.6681  -1.6103  -1.5960  -1.5730  -1.5445  -1.5118
    -1.4148  -1.3839  -1.3704  -1.3549  -1.3264  -1.3009  -1.2516  -1.2326
    -1.1962  -1.1580  -1.1315  -1.0850  -1.0691  -1.0438  -1.0282  -1.0216
    -0.9902  -0.9728  -0.9391  -0.9248  -0.9059  -0.8921  -0.8326  -0.8064
    -0.7913  -0.7744  -0.7458  -0.7323  -0.7015  -0.6752  -0.6627  -0.6312
    -0.6218  -0.6139  -0.6103  -0.5806  -0.5486  -0.4991  -0.4580  -0.4203
    -0.4038  -0.3388  -0.3177  -0.3027  -0.2589  -0.2025  -0.1591  -0.0831
    -0.0602  -0.0210   0.0116   0.0617   0.0873   0.1049   0.1340   0.1636
     0.1937   0.2166   0.2431   0.2939   0.3145   0.3403   0.4080   0.4334
     0.4709   0.4865   0.5278   0.5783   0.6281   0.6618   0.6779   0.7069
     0.7559   0.7830   0.8035   0.8369   0.8844   0.9078   0.9380   1.0019
     1.0070   1.0206   1.0427   1.0592   1.0688   1.0892   1.1134   1.1556
     1.2265   1.2728   1.3252   1.3763   1.4504   1.5134   1.5659   1.5772
     1.5982   1.6243   1.6743   1.7142   1.7292   1.7396   1.7740   1.7885
     1.8071   1.8249   1.8356   1.8622   1.8713   1.9207   1.9430   1.9670
     1.9953   2.0217   2.0586   2.1212   2.1635   2.1990   2.2296   2.2605
     2.3038   2.3455   2.3744   2.4694   2.5163   2.8627   2.9256   3.0434
     3.2397   3.4073   3.4887   3.5692   3.9644   4.0619   4.2729   4.3814
     4.4585   4.5203   4.6942   5.2191   5.4231   5.6601   5.7562   5.9429
     6.0145   6.2358   6.3893   6.4749   6.5518   6.5885

          k = 0.2000-0.5774 0.0000 ( 87912 PWs)   bands (ev):

   -13.2243  -8.3379  -5.8502  -5.7882  -5.2864  -5.1585  -4.9969  -4.5986
    -4.5219  -4.1118  -4.0301  -3.9355  -3.8838  -3.8173  -3.7534  -3.7303
    -3.6424  -3.6353  -3.5936  -3.5300  -3.5156  -3.5004  -3.4790  -3.4455
    -3.4152  -3.3335  -3.3169  -3.3060  -3.2764  -3.2711  -3.1703  -3.1504
    -3.0508  -3.0175  -2.9834  -2.9504  -2.9075  -2.8691  -2.8467  -2.7670
    -2.7042  -2.6870  -2.5315  -2.5184  -2.4820  -2.4368  -2.4216  -2.3749
    -2.3191  -2.2842  -2.2346  -2.1824  -2.1675  -2.1382  -2.0902  -2.0386
    -2.0018  -1.9845  -1.9630  -1.9343  -1.9231  -1.8870  -1.8731  -1.8304
    -1.8132  -1.7793  -1.7597  -1.7299  -1.6973  -1.6271  -1.5865  -1.5623
    -1.5297  -1.4459  -1.4340  -1.4109  -1.3791  -1.3678  -1.3466  -1.3200
    -1.2701  -1.2494  -1.2120  -1.1676  -1.1574  -1.1120  -1.0571  -1.0325
    -1.0153  -1.0051  -0.9934  -0.9425  -0.8848  -0.8467  -0.8251  -0.8163
    -0.7822  -0.7595  -0.7353  -0.7240  -0.7038  -0.6893  -0.6617  -0.6560
    -0.6357  -0.5948  -0.5732  -0.5604  -0.5451  -0.5336  -0.5265  -0.5001
    -0.4748  -0.3699  -0.3375  -0.2815  -0.2479  -0.1827  -0.1410  -0.0891
    -0.0515  -0.0335   0.0003   0.0202   0.0349   0.0579   0.0765   0.1023
     0.1245   0.1664   0.1957   0.2691   0.3087   0.3188   0.3486   0.3630
     0.4272   0.4745   0.5276   0.5501   0.6221   0.6452   0.6611   0.6943
     0.7295   0.7409   0.7536   0.7655   0.8389   0.8653   0.8705   0.9068
     0.9507   0.9627   0.9915   1.0204   1.0604   1.1235   1.1584   1.2474
     1.2891   1.3207   1.4124   1.4308   1.4657   1.4959   1.5407   1.5654
     1.5968   1.6450   1.6916   1.7061   1.7502   1.7736   1.7954   1.8302
     1.8474   1.8869   1.9117   1.9248   1.9505   1.9663   1.9933   2.0051
     2.0612   2.0948   2.1276   2.1907   2.2160   2.2311   2.2753   2.2935
     2.3388   2.4491   2.6260   3.0061   3.1580   3.3670   3.4086   3.5811
     3.6550   3.6764   3.8038   4.0031   4.2017   4.3524   4.4467   4.5105
     4.7191   4.8655   4.9454   5.1000   5.1334   5.2539   5.2854   5.4216
     5.6524   5.7098   5.8652   6.1711   6.3771   6.4773

          k = 0.2000-0.3464 0.0000 ( 87940 PWs)   bands (ev):

   -13.2248  -8.3427  -6.3348  -5.3173  -5.2033  -5.1127  -4.9949  -4.8991
    -4.2276  -4.0575  -4.0509  -4.0418  -4.0234  -3.9776  -3.9516  -3.8918
    -3.8567  -3.8379  -3.6275  -3.4945  -3.4635  -3.4538  -3.4339  -3.3926
    -3.3632  -3.3224  -3.2481  -3.2315  -3.1974  -3.1380  -3.1088  -3.0963
    -3.0713  -3.0381  -3.0010  -2.9815  -2.9620  -2.9436  -2.8630  -2.8154
    -2.6330  -2.5688  -2.5476  -2.4831  -2.4702  -2.4377  -2.4289  -2.4210
    -2.3620  -2.3043  -2.2833  -2.2384  -2.2007  -2.1390  -2.1058  -2.0659
    -2.0413  -2.0028  -1.9951  -1.9305  -1.8855  -1.8467  -1.7996  -1.7489
    -1.7156  -1.6842  -1.6424  -1.5960  -1.5911  -1.5470  -1.5280  -1.4989
    -1.4470  -1.3874  -1.3663  -1.3548  -1.3378  -1.3140  -1.2447  -1.2142
    -1.1858  -1.1581  -1.1292  -1.0767  -1.0581  -1.0515  -1.0198  -1.0121
    -0.9966  -0.9608  -0.9508  -0.9313  -0.9139  -0.8998  -0.8357  -0.8252
    -0.7771  -0.7631  -0.7541  -0.7250  -0.7117  -0.7017  -0.6654  -0.6535
    -0.6233  -0.6140  -0.6005  -0.5783  -0.5421  -0.5146  -0.4843  -0.4329
    -0.4092  -0.3568  -0.3177  -0.3000  -0.2686  -0.2258  -0.1374  -0.0986
    -0.0486  -0.0088   0.0234   0.0565   0.0687   0.1200   0.1269   0.1696
     0.1917   0.2163   0.2389   0.2762   0.3185   0.3579   0.4184   0.4557
     0.4705   0.4852   0.5266   0.5912   0.6330   0.6573   0.6864   0.7176
     0.7346   0.7784   0.8044   0.8162   0.8405   0.9217   0.9599   0.9885
     1.0183   1.0271   1.0436   1.0555   1.0694   1.0945   1.1036   1.1805
     1.2291   1.2593   1.3351   1.3723   1.4325   1.5372   1.5643   1.5797
     1.6012   1.6100   1.6720   1.7154   1.7404   1.7453   1.7651   1.7799
     1.7996   1.8228   1.8334   1.8655   1.8756   1.9216   1.9474   1.9631
     1.9988   2.0213   2.0604   2.0804   2.1988   2.2343   2.2533   2.2629
     2.3002   2.3441   2.4055   2.4631   2.5753   2.6503   2.9901   3.0088
     3.2781   3.4749   3.5327   3.6147   3.7781   4.0057   4.2829   4.4017
     4.4365   4.5301   4.7220   5.2938   5.5488   5.6108   5.7143   5.8237
     5.9960   6.2674   6.3816   6.4294   6.5791   6.6440

          k = 0.4000-0.2309 0.0000 ( 87922 PWs)   bands (ev):

   -13.2246  -8.3408  -6.2026  -5.5956  -5.2170  -5.0972  -4.8614  -4.5137
    -4.4819  -4.3739  -4.1484  -4.0496  -3.9593  -3.8571  -3.7900  -3.7684
    -3.7279  -3.6368  -3.5969  -3.5570  -3.5425  -3.5033  -3.4299  -3.3955
    -3.3825  -3.3501  -3.3295  -3.3032  -3.2601  -3.2182  -3.1966  -3.1309
    -2.9912  -2.9764  -2.9489  -2.9218  -2.8742  -2.8023  -2.7458  -2.7160
    -2.7045  -2.6790  -2.6124  -2.5355  -2.4989  -2.4587  -2.4150  -2.3777
    -2.3380  -2.3093  -2.2828  -2.2387  -2.2274  -2.2111  -2.1782  -2.1162
    -2.0589  -2.0212  -1.9994  -1.9544  -1.9024  -1.8444  -1.8156  -1.7975
    -1.7843  -1.7596  -1.6513  -1.6212  -1.6011  -1.5838  -1.5270  -1.4780
    -1.4691  -1.4443  -1.4096  -1.3370  -1.3147  -1.2798  -1.2462  -1.2310
    -1.1835  -1.1701  -1.1398  -1.1196  -1.0939  -1.0857  -1.0608  -1.0473
    -1.0368  -1.0193  -1.0053  -0.9501  -0.9276  -0.8946  -0.8734  -0.8582
    -0.8407  -0.8045  -0.7799  -0.7303  -0.6931  -0.6691  -0.6548  -0.6322
    -0.6195  -0.5782  -0.5347  -0.5198  -0.4877  -0.4341  -0.4128  -0.3717
    -0.3646  -0.3300  -0.3029  -0.2169  -0.1697  -0.1390  -0.1100  -0.0629
    -0.0440  -0.0174   0.0205   0.0324   0.0485   0.0968   0.1044   0.1263
     0.1368   0.1450   0.1852   0.2030   0.2531   0.3013   0.3410   0.3579
     0.3832   0.4048   0.4976   0.5218   0.6013   0.6154   0.6730   0.6896
     0.7656   0.7957   0.8309   0.8738   0.8984   0.9239   0.9499   0.9652
     0.9997   1.0271   1.0442   1.0973   1.1308   1.1585   1.1981   1.2128
     1.2286   1.2523   1.3167   1.3779   1.4361   1.4483   1.4651   1.4975
     1.5788   1.6067   1.6154   1.6265   1.6520   1.6932   1.7361   1.7567
     1.7691   1.8013   1.8627   1.9016   1.9256   1.9336   1.9506   1.9665
     2.0077   2.0301   2.1092   2.1579   2.1877   2.2013   2.2174   2.2881
     2.3762   2.4476   2.5492   2.7150   2.8641   3.1044   3.2028   3.2635
     3.4206   3.4854   3.6678   3.8670   4.0301   4.2073   4.4523   4.5022
     4.5474   4.6601   4.6984   4.9014   4.9945   5.1985   5.3481   5.5844
     5.7635   6.0331   6.3028   6.4452   6.7948   6.8408

          k = 0.4000-0.0000 0.0000 ( 87940 PWs)   bands (ev):

   -13.2246  -8.3460  -6.3338  -5.3139  -5.2237  -5.1043  -5.0470  -4.8488
    -4.1989  -4.0651  -4.0444  -4.0361  -4.0021  -3.9768  -3.9515  -3.9007
    -3.8536  -3.8043  -3.6351  -3.4967  -3.4684  -3.4542  -3.4443  -3.3815
    -3.3611  -3.2645  -3.2462  -3.2323  -3.1919  -3.1478  -3.1164  -3.1078
    -3.0769  -3.0296  -2.9978  -2.9781  -2.9514  -2.9221  -2.8739  -2.8028
    -2.7244  -2.6065  -2.5452  -2.5295  -2.4794  -2.4722  -2.4189  -2.4058
    -2.3697  -2.3337  -2.2746  -2.2311  -2.2055  -2.1338  -2.0988  -2.0721
    -2.0284  -2.0051  -1.9661  -1.9386  -1.8881  -1.8426  -1.7610  -1.7436
    -1.7227  -1.6922  -1.6682  -1.6101  -1.5961  -1.5729  -1.5444  -1.5117
    -1.4149  -1.3840  -1.3705  -1.3549  -1.3264  -1.3010  -1.2515  -1.2324
    -1.1964  -1.1579  -1.1314  -1.0849  -1.0691  -1.0438  -1.0282  -1.0215
    -0.9901  -0.9729  -0.9391  -0.9247  -0.9061  -0.8923  -0.8328  -0.8064
    -0.7914  -0.7742  -0.7457  -0.7324  -0.7015  -0.6751  -0.6626  -0.6313
    -0.6218  -0.6139  -0.6102  -0.5807  -0.5486  -0.4990  -0.4579  -0.4202
    -0.4039  -0.3390  -0.3181  -0.3026  -0.2590  -0.2027  -0.1589  -0.0830
    -0.0602  -0.0210   0.0117   0.0617   0.0873   0.1050   0.1341   0.1636
     0.1938   0.2166   0.2433   0.2940   0.3145   0.3402   0.4079   0.4334
     0.4709   0.4864   0.5277   0.5784   0.6281   0.6618   0.6780   0.7068
     0.7559   0.7830   0.8035   0.8369   0.8845   0.9078   0.9381   1.0019
     1.0071   1.0207   1.0427   1.0593   1.0687   1.0893   1.1134   1.1557
     1.2265   1.2727   1.3253   1.3762   1.4502   1.5137   1.5660   1.5771
     1.5982   1.6243   1.6743   1.7142   1.7293   1.7396   1.7740   1.7885
     1.8071   1.8249   1.8357   1.8622   1.8713   1.9207   1.9430   1.9670
     1.9953   2.0217   2.0586   2.1210   2.1637   2.1992   2.2297   2.2606
     2.3037   2.3455   2.3745   2.4693   2.5164   2.8627   2.9253   3.0427
     3.2400   3.4081   3.4887   3.5693   3.9640   4.0614   4.2731   4.3809
     4.4581   4.5203   4.6947   5.2207   5.4234   5.6598   5.7563   5.9433
     6.0137   6.2357   6.3891   6.4749   6.5518   6.5885

          k = 0.4000 0.2309 0.0000 ( 87922 PWs)   bands (ev):

   -13.2243  -8.3462  -6.2013  -5.6007  -5.1814  -5.1751  -4.8362  -4.5065
    -4.4991  -4.3531  -4.1256  -3.9854  -3.9206  -3.8551  -3.7941  -3.7921
    -3.6990  -3.6698  -3.5830  -3.5575  -3.5501  -3.4700  -3.4139  -3.3973
    -3.3577  -3.3507  -3.3167  -3.2919  -3.2593  -3.2222  -3.1926  -3.0832
    -3.0313  -2.9687  -2.9615  -2.9319  -2.9291  -2.8225  -2.7760  -2.7182
    -2.7122  -2.6829  -2.6771  -2.5355  -2.5085  -2.5052  -2.4061  -2.4013
    -2.3478  -2.3197  -2.2694  -2.2321  -2.2318  -2.1902  -2.1893  -2.1187
    -2.0575  -2.0265  -2.0189  -1.9391  -1.8656  -1.8573  -1.8423  -1.8055
    -1.7842  -1.7558  -1.6690  -1.6195  -1.5942  -1.5553  -1.5455  -1.4663
    -1.4575  -1.4468  -1.3593  -1.3509  -1.3075  -1.2993  -1.2447  -1.2355
    -1.2258  -1.1670  -1.1530  -1.1367  -1.1013  -1.0878  -1.0583  -1.0482
    -1.0343  -1.0223  -1.0009  -0.9500  -0.9315  -0.8880  -0.8678  -0.8642
    -0.8464  -0.8001  -0.7475  -0.7373  -0.7306  -0.6723  -0.6446  -0.6209
    -0.5966  -0.5791  -0.5746  -0.5313  -0.4650  -0.4137  -0.4049  -0.3653
    -0.3382  -0.3100  -0.2282  -0.2277  -0.1765  -0.1251  -0.0962  -0.0857
    -0.0399  -0.0243  -0.0102   0.0377   0.0532   0.0899   0.1026   0.1222
     0.1279   0.1738   0.1791   0.1998   0.2650   0.2796   0.3410   0.3579
     0.3806   0.4206   0.4439   0.5858   0.5941   0.6508   0.6616   0.7064
     0.7652   0.7934   0.8276   0.8770   0.9213   0.9382   0.9403   0.9721
     0.9919   1.0183   1.0212   1.1006   1.1178   1.1655   1.1872   1.2273
     1.2277   1.2733   1.2965   1.3818   1.4157   1.4416   1.4564   1.4800
     1.5878   1.6076   1.6144   1.6450   1.6701   1.6908   1.7319   1.7549
     1.7734   1.8149   1.8714   1.8865   1.9227   1.9331   1.9429   1.9616
     1.9893   2.0234   2.1217   2.1291   2.1894   2.1978   2.2027   2.3025
     2.3255   2.4456   2.6365   2.6452   2.8288   3.1291   3.2093   3.2454
     3.4863   3.5022   3.8576   3.8947   3.9095   4.2185   4.3616   4.4881
     4.5416   4.6460   4.7434   4.8628   4.9911   5.2096   5.3818   5.6249
     5.6839   6.0813   6.3381   6.4089   6.7991   6.8363

          k = 0.4000-0.6928 0.0000 ( 87912 PWs)   bands (ev):

   -13.2241  -8.3412  -5.8403  -5.8005  -5.2914  -5.1010  -5.0800  -4.6402
    -4.4223  -4.1150  -4.0185  -3.9164  -3.8909  -3.8129  -3.7532  -3.7255
    -3.6487  -3.6247  -3.5752  -3.5257  -3.5153  -3.5038  -3.4720  -3.4337
    -3.3969  -3.3399  -3.3141  -3.3000  -3.2862  -3.2704  -3.1762  -3.0930
    -3.0551  -3.0288  -2.9970  -2.9498  -2.9120  -2.9022  -2.8628  -2.8367
    -2.6992  -2.6728  -2.5706  -2.5304  -2.4936  -2.4791  -2.4018  -2.3706
    -2.3357  -2.2745  -2.2152  -2.2025  -2.1346  -2.1174  -2.0869  -2.0536
    -2.0355  -1.9841  -1.9685  -1.9320  -1.9116  -1.8978  -1.8567  -1.8473
    -1.8028  -1.7875  -1.7634  -1.7334  -1.7031  -1.6193  -1.5926  -1.5691
    -1.4981  -1.4702  -1.4390  -1.4007  -1.3827  -1.3722  -1.3269  -1.3083
    -1.2790  -1.2445  -1.2042  -1.1766  -1.1615  -1.1413  -1.0590  -1.0323
    -1.0182  -1.0069  -0.9982  -0.9269  -0.8909  -0.8747  -0.8160  -0.7814
    -0.7759  -0.7474  -0.7267  -0.7235  -0.7081  -0.6849  -0.6692  -0.6591
    -0.6187  -0.6133  -0.5728  -0.5602  -0.5530  -0.5452  -0.5223  -0.4935
    -0.4735  -0.3466  -0.3196  -0.2579  -0.2218  -0.1925  -0.1255  -0.0988
    -0.0704  -0.0367  -0.0099   0.0190   0.0330   0.0511   0.0778   0.1161
     0.1291   0.1527   0.2209   0.2624   0.3024   0.3121   0.3181   0.3747
     0.4568   0.4729   0.5124   0.5753   0.6044   0.6501   0.6723   0.6783
     0.7274   0.7493   0.7523   0.7692   0.8386   0.8506   0.8654   0.9101
     0.9465   0.9601   0.9925   1.0306   1.0590   1.1283   1.1889   1.2502
     1.2820   1.3605   1.3862   1.4276   1.4297   1.4878   1.5159   1.5641
     1.6222   1.6488   1.6922   1.7187   1.7474   1.7781   1.8002   1.8237
     1.8442   1.8855   1.9177   1.9288   1.9404   1.9585   1.9937   2.0114
     2.0645   2.1061   2.1343   2.1825   2.2113   2.2219   2.2726   2.2818
     2.3283   2.4468   2.5275   3.0672   3.2492   3.3794   3.4391   3.5997
     3.6543   3.6701   3.8548   3.8674   4.2028   4.3642   4.4570   4.4945
     4.7911   4.8826   4.9337   5.0509   5.0774   5.2306   5.2821   5.4614
     5.5736   5.7632   5.9651   6.1031   6.4463   6.5006

          k = 0.4000-0.4619 0.0000 ( 87912 PWs)   bands (ev):

   -13.2243  -8.3379  -5.8501  -5.7884  -5.2868  -5.1579  -4.9978  -4.5973
    -4.5220  -4.1124  -4.0302  -3.9349  -3.8838  -3.8174  -3.7534  -3.7301
    -3.6424  -3.6351  -3.5940  -3.5301  -3.5157  -3.5004  -3.4789  -3.4456
    -3.4153  -3.3336  -3.3168  -3.3060  -3.2764  -3.2710  -3.1705  -3.1509
    -3.0508  -3.0175  -2.9832  -2.9504  -2.9075  -2.8691  -2.8466  -2.7668
    -2.7042  -2.6870  -2.5313  -2.5186  -2.4820  -2.4372  -2.4213  -2.3749
    -2.3189  -2.2837  -2.2347  -2.1827  -2.1675  -2.1382  -2.0903  -2.0386
    -2.0017  -1.9846  -1.9629  -1.9344  -1.9231  -1.8869  -1.8731  -1.8304
    -1.8132  -1.7793  -1.7598  -1.7299  -1.6973  -1.6272  -1.5864  -1.5624
    -1.5299  -1.4458  -1.4340  -1.4110  -1.3789  -1.3678  -1.3465  -1.3200
    -1.2700  -1.2495  -1.2121  -1.1676  -1.1575  -1.1116  -1.0573  -1.0327
    -1.0153  -1.0051  -0.9934  -0.9427  -0.8850  -0.8466  -0.8251  -0.8165
    -0.7822  -0.7594  -0.7353  -0.7240  -0.7039  -0.6894  -0.6616  -0.6561
    -0.6358  -0.5947  -0.5733  -0.5605  -0.5450  -0.5335  -0.5262  -0.5001
    -0.4749  -0.3703  -0.3376  -0.2815  -0.2481  -0.1827  -0.1409  -0.0892
    -0.0515  -0.0334   0.0002   0.0202   0.0349   0.0580   0.0765   0.1022
     0.1246   0.1664   0.1957   0.2692   0.3086   0.3189   0.3485   0.3629
     0.4271   0.4745   0.5275   0.5502   0.6222   0.6452   0.6611   0.6944
     0.7295   0.7408   0.7536   0.7654   0.8389   0.8653   0.8705   0.9069
     0.9508   0.9627   0.9916   1.0203   1.0606   1.1235   1.1582   1.2473
     1.2891   1.3205   1.4125   1.4308   1.4657   1.4960   1.5409   1.5654
     1.5968   1.6449   1.6916   1.7061   1.7501   1.7736   1.7953   1.8302
     1.8474   1.8869   1.9116   1.9248   1.9505   1.9662   1.9933   2.0051
     2.0612   2.0948   2.1275   2.1907   2.2160   2.2312   2.2753   2.2935
     2.3388   2.4491   2.6267   3.0048   3.1586   3.3670   3.4084   3.5812
     3.6549   3.6765   3.8036   4.0029   4.2018   4.3531   4.4465   4.5105
     4.7194   4.8655   4.9453   5.1002   5.1336   5.2536   5.2854   5.4214
     5.6526   5.7105   5.8654   6.1707   6.3769   6.4757

     the Fermi energy is     2.0045 ev

!    total energy              =  -27794.69906590 Ry

     total all-electron energy =  -1326796.992672 Ry
     estimated scf accuracy    <       0.00000082 Ry
     smearing contrib. (-TS)   =       0.00395837 Ry
     internal energy E=F+TS    =  -27794.70302426 Ry

     The total energy is F=E-TS. E is the sum of the following terms:
     one-electron contribution =  -26362.11184532 Ry
     hartree contribution      =   13484.29824821 Ry
     xc contribution           =    -901.14053360 Ry
     ewald contribution        =   11471.35242057 Ry
     one-center paw contrib.   =  -25487.10131412 Ry

     convergence has been achieved in  18 iterations

     negative rho (up, down):  1.272E-02 0.000E+00

     Forces acting on atoms (cartesian axes, Ry/au):

     atom    1 type  1   force =     0.00015035    0.00121830   -0.00334783
     atom    2 type  1   force =    -0.00005068   -0.00003633   -0.00321805
     atom    3 type  1   force =     0.00067813   -0.00052090   -0.00292534
     atom    4 type  1   force =     0.00021547    0.00083877   -0.00442065
     atom    5 type  1   force =    -0.00010441    0.00084399   -0.00291167
     atom    6 type  1   force =     0.00046312    0.00026141   -0.00386949
     atom    7 type  1   force =    -0.00187331   -0.00110062   -0.00636715
     atom    8 type  1   force =     0.00114086   -0.00050363   -0.00332112
     atom    9 type  1   force =     0.00083626   -0.00026193   -0.00441781
     atom   10 type  1   force =     0.00045640   -0.00377318    0.00692959
     atom   11 type  1   force =    -0.00107377   -0.00062774    0.01034559
     atom   12 type  1   force =     0.00035517   -0.00257161    0.00332193
     atom   13 type  1   force =     0.00194485    0.00202161    0.00244439
     atom   14 type  1   force =    -0.00205107    0.00159021    0.00332756
     atom   15 type  1   force =    -0.00086806   -0.00050223    0.00091613
     atom   16 type  1   force =     0.00263906    0.00152213    0.00007104
     atom   17 type  1   force =    -0.00303447    0.00226338    0.00693476
     atom   18 type  1   force =     0.00272741    0.00065493    0.00243437
     atom   19 type  1   force =    -0.00004183   -0.00025973   -0.00032897
     atom   20 type  1   force =     0.00015059   -0.00011896   -0.00034412
     atom   21 type  1   force =    -0.00015631   -0.00005967   -0.00020911
     atom   22 type  1   force =    -0.00001999   -0.00002700   -0.00016215
     atom   23 type  1   force =    -0.00010952   -0.00016477   -0.00036766
     atom   24 type  1   force =    -0.00028469    0.00008017   -0.00030149
     atom   25 type  1   force =    -0.00016327   -0.00008385   -0.00035354
     atom   26 type  1   force =    -0.00029109   -0.00018855   -0.00048776
     atom   27 type  1   force =    -0.00007005    0.00017136   -0.00036007
     atom   28 type  1   force =    -0.00029207   -0.00009708   -0.00010443
     atom   29 type  1   force =     0.00046254    0.00005430    0.00039704
     atom   30 type  1   force =    -0.00048117    0.00001569   -0.00000543
     atom   31 type  1   force =    -0.00013264   -0.00022011   -0.00024880
     atom   32 type  1   force =    -0.00023004   -0.00044715    0.00001213
     atom   33 type  1   force =    -0.00018151   -0.00009789   -0.00025747
     atom   34 type  1   force =    -0.00016275   -0.00009721   -0.00026974
     atom   35 type  1   force =    -0.00020955   -0.00018614   -0.00011106
     atom   36 type  1   force =    -0.00026465    0.00001936   -0.00024648
     atom   37 type  2   force =    -0.00016580   -0.00078533    0.00004374
     atom   38 type  2   force =     0.00088827   -0.00400524    0.00667497
     atom   39 type  3   force =     0.00006363    0.00031537   -0.00057146
     atom   40 type  3   force =    -0.00085944    0.00486589   -0.00432436

     Total force =     0.010420     Total SCF correction =     0.003633
     SCF correction compared to forces is large: reduce conv_thr to get better values

     negative rho (up, down):  1.272E-02 0.000E+00

     negative rho (up, down):  1.272E-02 0.000E+00

     negative rho (up, down):  1.272E-02 0.000E+00

     negative rho (up, down):  1.272E-02 0.000E+00

     negative rho (up, down):  1.272E-02 0.000E+00

     negative rho (up, down):  1.272E-02 0.000E+00

     negative rho (up, down):  1.272E-02 0.000E+00

     negative rho (up, down):  1.272E-02 0.000E+00

     negative rho (up, down):  1.272E-02 0.000E+00

     negative rho (up, down):  1.272E-02 0.000E+00

     negative rho (up, down):  1.272E-02 0.000E+00

     negative rho (up, down):  1.272E-02 0.000E+00

     negative rho (up, down):  1.272E-02 0.000E+00

     negative rho (up, down):  1.272E-02 0.000E+00

     negative rho (up, down):  1.272E-02 0.000E+00

     negative rho (up, down):  1.272E-02 0.000E+00

     negative rho (up, down):  1.272E-02 0.000E+00

     negative rho (up, down):  1.272E-02 0.000E+00

     negative rho (up, down):  1.272E-02 0.000E+00

     negative rho (up, down):  1.272E-02 0.000E+00

     negative rho (up, down):  1.272E-02 0.000E+00

     negative rho (up, down):  1.272E-02 0.000E+00

     negative rho (up, down):  1.272E-02 0.000E+00

     negative rho (up, down):  1.272E-02 0.000E+00

     negative rho (up, down):  1.272E-02 0.000E+00

     negative rho (up, down):  1.272E-02 0.000E+00

     negative rho (up, down):  1.272E-02 0.000E+00

     negative rho (up, down):  1.272E-02 0.000E+00

     negative rho (up, down):  1.272E-02 0.000E+00

     negative rho (up, down):  1.272E-02 0.000E+00

     negative rho (up, down):  1.272E-02 0.000E+00

     negative rho (up, down):  1.272E-02 0.000E+00

     negative rho (up, down):  1.272E-02 0.000E+00

     negative rho (up, down):  1.272E-02 0.000E+00
 BEEFens 2000 ensemble energies
             -0.602688244790689E+02
             -0.359593526586306E+01
             -0.157573117108740E+02
              0.426582026437557E+02
             -0.219815545832811E+02
             -0.204355372364723E+02
             -0.349207170906964E+02
             -0.858868712885192E+02
             -0.463076122695864E+02
             -0.470548904908138E+02
             -0.366938800919497E+02
              0.221888609177002E+01
              0.404854578761169E+01
              0.766411622918935E+01
              0.263259500556794E+01
              0.471957113343627E+02
             -0.207685804922664E+02
             -0.229840481738028E+02
              0.191547832668014E+02
             -0.111688966911531E+03
              0.532732395896483E+02
             -0.288650201388215E+02
             -0.330589248136588E+01
             -0.113531092131347E+02
             -0.886799031940154E+01
             -0.462649017603215E+01
              0.877327469157700E+02
             -0.185298988808461E+02
             -0.896333318319046E+01
             -0.514897754842234E+02
              0.811549420298452E+02
             -0.187241125308977E+02
             -0.372462658747701E+02
              0.248223972288876E+02
             -0.282126398039901E+01
              0.162161341076988E+02
             -0.487282848505004E+01
              0.108156484165107E+02
              0.285771974909908E+02
             -0.102667960764628E+03
              0.554898671498869E+02
              0.141550637988974E+02
             -0.162136374569229E+01
             -0.359724924568495E+02
              0.122431049702208E+02
             -0.145368967060213E+02
              0.395251040580665E+02
              0.362677372548141E+02
             -0.307048537188602E+02
             -0.273170877778540E+02
             -0.326473389261072E+02
             -0.349734502679780E+02
              0.134764315273745E+02
             -0.487671769907565E+02
              0.114461703489868E+02
              0.619201678118465E+02
              0.630447111549091E+02
              0.353804479987107E+02
              0.153164531515644E+02
              0.268321912925280E+02
              0.885657531989765E+02
              0.211860642307743E+02
             -0.545136997024385E+02
             -0.156583573726255E+02
             -0.234080229951979E+02
              0.626037990382508E+02
             -0.769089087541100E+02
             -0.668060843150699E+02
             -0.257134530843443E+02
             -0.631833952225657E+01
             -0.468643464818887E+02
              0.268953151350586E+02
              0.793532370859987E+01
              0.857409571247075E+01
             -0.394741606229317E+02
             -0.344622864252059E+02
             -0.538076134686351E+02
              0.388558963521382E+02
             -0.293713622078027E+02
              0.263085089916526E+02
             -0.709060039682171E+01
             -0.316389021159397E+02
             -0.573261631057078E+02
             -0.175792355574723E+02
             -0.895878194346380E+01
             -0.123920421247819E+02
              0.409737945217995E+02
              0.677631791850778E+02
             -0.382650622865607E+02
             -0.789714568025111E+02
             -0.218483893654586E+02
              0.110835186282991E+03
             -0.588800260323982E+02
              0.354258363955274E+02
             -0.949398842298888E+01
             -0.659628060819090E+02
              0.252753670445481E+02
              0.396239480266609E+02
             -0.197829308912198E+02
              0.398516531890592E+02
             -0.294590816932157E+02
             -0.474147535392334E+02
              0.859464369593054E+02
              0.451176437436244E+02
              0.335191712077888E+02
              0.145646561031084E+02
              0.203946630059640E+02
              0.851464384615942E+02
             -0.255026163839634E+02
              0.785460999103057E+01
             -0.141551211361896E+03
              0.180178119613322E+02
             -0.712166833470996E+02
              0.150098178622690E+02
              0.203198987001752E+02
             -0.330452049949413E+02
             -0.554125918425814E+02
              0.653549263064713E+01
             -0.302209757016144E+02
              0.305124450056659E+02
             -0.526948535055702E+02
              0.176998686921161E+01
             -0.354587935023224E+02
             -0.421528790772936E+01
             -0.107648350619129E+01
              0.179512916680598E+02
              0.143296657294661E+01
             -0.648404356904712E+01
              0.586019318225639E+02
              0.902434620294103E+02
              0.481015186691504E+02
              0.826433948517353E+02
             -0.114285172065479E+02
              0.142626560835306E+02
              0.537790864420749E+02
             -0.111307526886546E+02
             -0.730845189752393E+02
             -0.381187351203918E+02
             -0.518629013898629E+02
             -0.274852543591264E+02
              0.325613711057927E+02
             -0.116019282690476E+03
             -0.186384122867142E+02
              0.411102050677179E+02
             -0.383798707484851E+02
             -0.363687511796007E+02
              0.540268616748593E+02
              0.397721115768536E+02
             -0.352121394562353E+02
              0.135398523090844E+02
             -0.271573789211557E+02
              0.340823525836792E+02
              0.442563820682494E+01
              0.210597296251228E+02
             -0.879581337452074E+02
             -0.477191016440375E+02
             -0.989254258312144E+01
              0.325183708961109E+01
             -0.363961326830696E+02
              0.105323394276831E+03
             -0.230177183939818E+02
             -0.396940031460840E+02
              0.386513755444767E+02
             -0.491488533030318E+02
             -0.360889863989555E+02
              0.322747340145813E+02
              0.123683173134550E+02
              0.163744915895240E+02
              0.115404775089958E+02
             -0.132194818188735E+02
              0.224568477091934E+02
              0.586527804135612E+02
             -0.310030843968957E+02
              0.161102531643688E+02
              0.928798037296032E+02
              0.338711817386508E+02
             -0.725856033188211E+01
             -0.187223087130042E+02
              0.152358306046589E+03
             -0.162488319681948E+02
              0.360749854886479E+02
              0.192441034490371E+02
              0.360026836720272E+02
              0.886305013074610E+02
              0.540092835895355E+02
             -0.237274286210238E+01
              0.226073738492720E+02
              0.481631210457481E+02
              0.361068195948197E+02
             -0.521589938076165E+02
              0.930034888039530E+02
             -0.820185683833618E+02
             -0.197542865561144E+02
              0.579358841419045E+02
              0.663126433691648E+01
              0.786419709095014E+01
              0.339248935089077E+02
              0.298174307746358E+02
              0.351543914636072E+02
             -0.633724222237056E+02
              0.285714950326337E+01
             -0.296077982591925E+02
             -0.867418851498549E+01
             -0.143483142879847E+01
             -0.714107159301062E+01
             -0.410565756318778E+01
              0.854064186016916E+02
             -0.100744798498969E+02
             -0.274606486177401E+02
             -0.495821808534294E+01
              0.139055493508778E+02
             -0.559967476771854E+02
             -0.403531475987344E+02
             -0.379934803509845E+02
             -0.626294118824948E+02
             -0.168547496247623E+02
             -0.444956376503973E+02
              0.162219951525249E+02
             -0.241773352424399E+01
             -0.103543131398920E+02
             -0.929281885813865E+01
              0.804876373530681E+01
             -0.242167540324822E+02
              0.685137112925539E+02
             -0.801504763426568E+02
             -0.140169305775899E+02
             -0.173261152763428E+02
              0.180992810721018E+02
              0.212942059925560E+02
             -0.460635969765340E+02
             -0.201257354575464E+02
              0.438051148918970E+02
             -0.274979762448798E+02
              0.186058639671069E+02
              0.380761451241235E+02
             -0.321680201339154E+01
              0.113424777904041E+03
             -0.229569864604464E+02
             -0.338951431835216E+02
              0.578035742054408E+01
             -0.226448992751115E+02
              0.524109783018842E+02
             -0.334130645736718E+02
              0.105679634281923E+02
              0.637479218136642E+02
             -0.125456141798365E+02
              0.119488182478279E+03
              0.125055023653095E+03
             -0.645439133285079E+02
              0.586915984087711E+02
              0.164951864834804E+02
             -0.514135200271137E+02
              0.215219265336102E+02
              0.351029941121515E+02
              0.359659349271990E+02
              0.132529235025618E+01
              0.158542837407141E+02
              0.690838122955553E+02
             -0.245503924496586E+02
              0.180644365925199E+02
              0.734702526523797E+02
             -0.370259548819257E+02
             -0.128025642964207E+02
              0.504761532743090E+02
              0.295468640297331E+02
              0.775612960780803E+02
              0.220470788400516E+02
              0.615643783153757E+01
              0.278834647319974E+02
              0.380563256975803E+02
             -0.468188611194248E+02
              0.325826391518086E+01
              0.127821036982668E+02
              0.112934326115563E+02
              0.218950867132227E+02
             -0.570847157730453E+02
              0.364180296922079E+02
             -0.441201715686748E+02
             -0.345398664964518E+02
              0.176636889085032E+02
             -0.180937797448640E+02
              0.551239369536243E+02
             -0.255417030661569E+02
              0.264868524427932E+02
              0.366427709130027E+02
              0.824377382430504E+02
              0.571340242502503E+02
              0.458444534369777E+02
             -0.105660006235874E+02
             -0.383639945475375E+01
             -0.330128555321612E+02
              0.745394846709066E+02
              0.791996199893282E+02
              0.359339330055266E+02
             -0.190125469215951E+02
              0.508766247510679E+02
             -0.162906993636306E+02
              0.213838444299127E+02
              0.610038446203642E+02
              0.215724889188232E+01
             -0.103747649547133E+02
             -0.281866877302197E+02
             -0.507576017511665E+02
              0.939257438672993E+02
              0.436319698318864E+02
             -0.554974016372002E+02
             -0.949336935252478E+01
              0.248298460139262E+02
             -0.990386690037872E+01
              0.587925777864901E+02
              0.151315872481532E+02
              0.794139258138076E+02
              0.277369458364174E+02
             -0.262659652525986E+02
              0.247933829867338E+02
             -0.497918591170480E+01
             -0.322153393971450E+02
              0.132215279110878E+02
              0.204879134113133E+02
              0.926992246589672E+02
              0.792518578979073E+02
              0.547374954446419E+02
              0.726706434268283E+02
              0.795868836846057E+01
             -0.272131598909842E+02
              0.162319198014463E+02
             -0.365961390782364E+02
             -0.472612561702188E+02
             -0.560058090033627E+02
             -0.264525448101121E+02
             -0.109020583763796E+03
             -0.289019348872111E+02
             -0.831706098988870E+02
              0.208662726587901E+02
             -0.474171050070032E+02
              0.393591726934961E+02
             -0.934977760644941E+02
             -0.328228206864813E+02
              0.546253704582612E+02
              0.206336451614253E+02
             -0.824848985422988E+02
              0.627782240854723E+02
             -0.254971686110628E+02
              0.508960729592831E+02
             -0.241043089921665E+02
             -0.746287160666095E+02
              0.110925407321734E+02
             -0.607108149302483E+02
             -0.168040744042643E+02
             -0.146861255453379E+01
              0.415700019465013E+02
              0.126216111358680E+03
             -0.459081643915626E+02
             -0.360354845275414E+02
             -0.941272290873599E+00
             -0.129741517813470E+02
             -0.817534725440850E+02
             -0.593295248094655E+02
              0.514205526599047E+02
             -0.287862658979278E+02
              0.167806563457729E+02
             -0.486327750358233E+02
             -0.130826579005545E+02
             -0.434715742495424E+02
              0.562512142545767E+02
              0.150468403708377E+02
             -0.230140883629022E+02
             -0.125697861495233E+02
              0.658514048955459E+01
             -0.614284778784747E+01
              0.439006013852066E+02
             -0.250404358786506E+02
              0.268018746733037E+01
              0.337087827322300E+02
              0.170588083947554E+02
             -0.158192078092891E+02
              0.155304151713089E+03
              0.534102097687280E+02
              0.110779702098206E+01
              0.161332128147499E+02
             -0.610854870204437E+02
              0.312934239913164E+02
             -0.716804496667465E+02
             -0.250009485778327E+02
             -0.518922499117773E+02
             -0.218905055745725E+02
              0.565483384114527E+02
             -0.533361964312759E+02
              0.159115028132732E+02
             -0.405612777201259E+01
              0.387156609434749E+01
             -0.431924730951690E+02
             -0.475764540403281E+02
             -0.396419895834117E+01
             -0.423012931338663E+02
             -0.215851214254965E+02
             -0.435885474182442E+02
             -0.118934450055421E+02
             -0.356916112998815E+02
             -0.513440348483038E+02
              0.211455904688679E+02
             -0.208574031790336E+02
              0.186279860724556E+02
              0.969792416088580E+01
             -0.733213886392742E+02
             -0.544957477052080E+02
             -0.394963666195158E+02
              0.352229776796432E+02
              0.274832131568743E+01
             -0.622828413810666E+02
              0.582051781072081E+02
             -0.398501342523274E+02
              0.541041856901673E+02
             -0.287532816206420E+02
             -0.442929391043306E+02
              0.297092165819191E+02
             -0.653173997438820E+02
             -0.377873785723530E+02
              0.669086387729132E+02
              0.202738348123852E+02
             -0.357165033284767E+02
              0.485870059206256E+02
             -0.172919161817591E+02
             -0.320356320267140E+02
             -0.299891737568587E+02
             -0.497430701467209E+02
              0.247725441286585E+02
             -0.927577325379202E+02
             -0.835448617620009E+02
             -0.728494324444739E+01
             -0.305024028102741E+02
             -0.571816064977629E+02
              0.717089847559695E+02
              0.130668556028532E+03
             -0.359601126752899E+02
             -0.252967306530320E+01
             -0.633318988113033E+02
              0.646474152390656E+02
              0.169310950611452E+02
             -0.180135936973112E+02
             -0.407817898033345E+02
              0.147738116568890E+02
             -0.582448870859399E+02
             -0.196912880079284E+02
             -0.899336605609215E+02
              0.334713964346336E+02
              0.168386115672704E+02
              0.187774532339017E+01
             -0.698018004938194E+01
             -0.326836131194616E+02
             -0.750140131094111E+01
              0.124658944307703E+03
             -0.198089757755613E+02
             -0.434236566287838E+02
             -0.679574022934287E+02
              0.108300922529693E+02
             -0.339668131657962E+02
              0.583236261301539E+01
              0.259374933008938E+02
              0.101805104194809E+02
              0.275648181880264E+02
              0.118726249295598E+02
              0.625993243210734E+02
              0.315326160532735E+02
             -0.324222815455274E+02
              0.352082917932158E+02
              0.377420842159465E+02
              0.120133546226495E+02
              0.484628715356380E+02
             -0.222715652442262E+02
              0.761283634742829E+02
              0.170706013945536E+02
             -0.270001871828972E+02
             -0.719527719463952E+01
             -0.185292504410484E+02
              0.260926371648112E+02
             -0.233015340143311E+02
             -0.450709996518981E-01
             -0.840315594713275E+01
              0.804706742690111E+02
              0.496406709029314E+02
             -0.683217995018886E+02
             -0.470372093497315E+01
             -0.552385262579451E+02
             -0.158773500228889E+02
             -0.266924675128329E+02
              0.368201646079729E+01
              0.602546720614434E+00
             -0.255712758573725E+02
              0.802642189829652E+01
             -0.596971361508740E+01
             -0.128134959719113E+02
              0.853574008699385E+02
              0.180949290668338E+02
             -0.801691346763915E+02
             -0.456024490349417E+02
              0.938857800460937E+02
              0.276234319189950E+02
             -0.106327312417478E+02
              0.103866434542140E+03
             -0.193943812561081E+02
             -0.122604984498441E+02
             -0.531898144466811E+01
              0.106364077588822E+02
              0.270263156171754E+02
              0.779189840101026E+01
              0.303620642184932E+02
             -0.187354653953758E+02
             -0.301177591002335E+02
             -0.415269039050215E+02
             -0.473816532483656E+02
              0.461523616000690E+02
              0.125994243197405E+02
              0.385196392723648E+02
              0.132491181889288E+02
              0.849949825076674E+02
              0.155164713600554E+02
             -0.841198900219385E+02
             -0.332378869403289E+02
              0.133630183090582E+02
             -0.301098835336535E+02
              0.622538483051017E+02
             -0.875653159680337E+01
              0.147707568018667E+02
              0.493766034035637E+02
             -0.702295911345694E+02
              0.148814548864475E+03
              0.207463425737324E+02
              0.269903053345738E+02
              0.345219018134397E+02
              0.103425907888280E+02
             -0.156784770561103E+01
              0.356442955450085E+02
             -0.354826704647804E+02
              0.767773694121130E+02
              0.680045566026452E+02
             -0.403462465184616E+02
              0.148413623848611E+02
              0.665644551118993E+02
             -0.222650073852568E+02
              0.153090956177831E+02
              0.433082229963698E+02
              0.419744249148649E+02
             -0.780059471254828E+02
             -0.152295261870202E+02
             -0.354475342799692E+02
             -0.144561238634702E+01
             -0.761096882827535E+01
             -0.549737217635413E+01
             -0.180031964301734E+02
             -0.291735002944536E+02
              0.622892846261036E+01
              0.111394024434946E+02
              0.532304469749042E+02
             -0.387326055094126E+02
              0.371401920612324E+02
              0.435370098997813E+02
             -0.186107357053385E+02
              0.867494816439010E+02
             -0.693683375370047E+02
             -0.102535995942034E+03
             -0.653826129809035E+01
             -0.263596864613760E+01
              0.387103044959485E+01
              0.784537613909986E+02
             -0.107008260243433E+02
              0.413998696764335E+02
              0.439856152008687E+02
              0.382983887516731E+02
             -0.990150472365735E+01
              0.624007593933795E+02
             -0.132619750372710E+02
             -0.304934845967416E+02
             -0.477194867420620E+02
              0.580856351602556E+01
              0.367454841800804E+02
             -0.601775000017656E+01
              0.391015269849130E+02
             -0.176315620203246E+01
              0.651795188139754E+02
              0.186415859982553E+02
              0.993698459322303E+01
             -0.121868735699506E+02
              0.330310842580704E+02
              0.360167759977920E+02
              0.231842437043148E+02
             -0.494628916911608E+00
             -0.547118936334070E+02
              0.258832609162891E+02
              0.173904058872752E+02
              0.400598497901072E+02
              0.270375988257845E+02
              0.370253520894842E+02
             -0.599284642134396E+01
              0.248828228779951E+02
             -0.296864720547126E+02
             -0.196047183158430E+01
             -0.565978261782519E+02
             -0.305915006587584E+02
              0.376118859609479E+02
             -0.930134399018453E+02
              0.292945466079349E+02
              0.183129399613210E+02
              0.834843547319986E+02
             -0.299816171520943E+02
              0.327329262588925E+02
             -0.137148275387046E+02
             -0.460929535493339E+02
             -0.757683372480117E+02
             -0.516200046616042E+01
             -0.854265906623212E+02
              0.199321956781613E+02
             -0.246188185748870E+02
              0.303791054370723E+02
              0.235429192741441E+02
             -0.239212460635300E+02
             -0.263398652349096E+02
              0.388375294024269E+02
             -0.584522781735839E+02
             -0.115784376034472E+02
             -0.195033169787017E+02
              0.210900193569956E+02
             -0.895375803436775E+01
              0.360493729912520E+01
             -0.199671985263778E+02
              0.555442875381732E+02
             -0.435729432262833E+02
              0.783058629098093E+01
              0.581517903302146E+02
             -0.320974306733413E+02
              0.357703573913912E+01
             -0.883931290978956E+01
             -0.665436573343672E+02
             -0.480338542601532E+02
             -0.860150926960535E+01
              0.238845327547192E+02
              0.300199420740367E+02
              0.856349460733799E+01
             -0.407625073778058E+01
              0.150833078404622E+02
             -0.437463553090072E+02
              0.336555789253282E+01
             -0.527856911284613E+02
             -0.323176955619125E+02
              0.471601899765989E+02
             -0.293296995906956E+02
              0.618022639910994E+02
             -0.213143346567450E+02
              0.351690620611353E+02
              0.240137644454920E+02
             -0.640317195490565E+02
             -0.278930574135902E+02
              0.926940270039162E+01
             -0.369088598738078E+02
             -0.337157158842251E+02
             -0.824491644779162E+02
             -0.535924735293647E+02
             -0.507340008362002E+02
             -0.412748102052814E+02
             -0.990248211522555E+00
              0.981035500705241E+01
              0.965019079434398E+00
              0.151479093425859E+02
             -0.545752314837061E+02
              0.140903482802487E+02
              0.254856368782800E+02
             -0.662568845242780E+02
             -0.698449395237050E+02
             -0.428836831780645E+02
             -0.169871914726577E+02
              0.177608232261477E+02
              0.457584999793858E+01
             -0.423414025357277E+02
              0.364571298536199E+02
             -0.214694846789772E+02
              0.514311784122166E+02
             -0.881747312983719E+02
              0.593663448300595E+02
             -0.204990405975831E+01
             -0.365748110090684E+02
             -0.214745508242520E+02
              0.471583319818079E+01
              0.371608903040583E+02
             -0.751894331389528E+02
             -0.120024658762891E+02
             -0.215566698907584E+02
              0.508545688970592E+02
              0.859784896253751E+02
             -0.959002046868162E+02
              0.938401329159170E+02
              0.465396071651919E+02
             -0.720785988592424E+02
             -0.364669965677658E+02
              0.747003142513334E+02
              0.628535899222787E+02
             -0.179716693486375E+02
             -0.459616902917554E+01
              0.720796754313788E+01
              0.644234242717322E+02
             -0.504724259772317E+02
              0.157641741392875E+02
             -0.467188173071368E+01
              0.346202908863977E+02
             -0.742586127296374E+02
             -0.646550449075950E+01
             -0.349432370510695E+02
              0.457670683331171E+02
              0.466395195075043E+02
             -0.856373817233074E+02
             -0.484126957254928E+02
             -0.255001281206889E+02
             -0.336610352245040E+02
             -0.108552976082901E+02
             -0.241742300109450E+02
              0.424585687882143E+02
              0.398480606477619E+02
             -0.564265382625308E+01
             -0.413464998002396E+02
             -0.845145699430514E+02
              0.440060960469946E+02
             -0.520432507254258E+02
             -0.310679177589253E+02
              0.542672178001301E+01
             -0.320219147690187E+02
             -0.395469174646271E+02
             -0.238224184364535E+02
             -0.382176955469901E+02
             -0.269332083746593E+02
             -0.479424335964963E+02
              0.560502964589667E+02
              0.634497910644734E+02
             -0.165380020560667E+01
             -0.259953417706570E+02
             -0.627752491496904E+01
              0.438518045595932E+02
             -0.862638585742416E+02
             -0.144812152153187E+02
              0.520743797602598E+02
              0.659162393252954E+02
             -0.243868869268347E+02
              0.907882492437352E+01
              0.520143135825685E+02
              0.197222840344971E+02
             -0.829701286544588E+01
             -0.450653113097432E+02
              0.279535596790940E+02
             -0.350466410461783E+02
             -0.164236224298242E+02
             -0.151670053034081E+02
             -0.199340237719529E+02
              0.193405771252035E+02
              0.795405268176538E+02
              0.191398740360574E+01
              0.533457162306806E+01
             -0.881763247509548E+02
             -0.174623987866877E+02
             -0.350425093213127E+02
              0.275996589375842E+01
             -0.406784156103221E+02
              0.724943443240311E+02
              0.779474175752329E+02
              0.122975692337724E+02
             -0.140060477175194E+02
              0.142917330490211E+02
              0.259218974496861E+02
             -0.479108761906647E+02
             -0.868397943001696E+01
              0.136762570580754E+02
              0.163937764394484E+02
              0.560199895629252E+02
              0.419316986928123E+02
             -0.196582846973691E+02
              0.329579018908433E+02
[...]
              0.282186527777517E+02
              0.140956892286775E+03
              0.240299449391172E+02
              0.121431823201888E+02
             -0.461480487252441E+02
             -0.634100906674332E+02
             -0.188133971345564E+02
              0.327660891207883E+02
             -0.423178802893949E+01
              0.188228156675343E+02
              0.333933534017906E+02
             -0.582792155778847E+02
              0.220645022064322E+02
              0.579980718723160E+02
              0.549420930076283E+02
             -0.414316890152793E+01
             -0.141058640483300E+01
             -0.988977115805352E+01
             -0.479489456254367E+02
             -0.670409609050353E+02
              0.780646709964567E+02
             -0.516861700278511E+01
             -0.584454173042408E+02
              0.165995307137439E+01
             -0.203381860174163E+02
              0.932972952549541E+02
             -0.215056919188130E+02
             -0.351211985711379E+02
              0.332861827931305E+02
             -0.144658313423071E+02
              0.386619738520590E+02
             -0.239537962675445E+01
              0.100495547905334E+03
              0.486225790971686E+02
             -0.518137533650052E+01
             -0.319437297755311E+02
              0.230397365795185E+02
             -0.525041454686972E+02
             -0.127605705770540E+02
              0.581671421077505E+02
             -0.286009887483244E+02
             -0.435604981388572E+02
             -0.221733398267341E+02
              0.515507194252717E+02
              0.124079258198029E+02
             -0.843682562283194E+02
              0.301697045880156E+02
              0.151609196277894E+02
              0.569524613090539E+01
             -0.510384766066414E+02
             -0.382976972600397E+01
              0.320954845022984E+02
              0.509905604636446E+02
              0.628321836106269E+02
              0.226792622624819E+02
              0.724454145844135E+00
             -0.494457085676610E+02
             -0.507253526594806E+02
             -0.743785367511898E+02
             -0.604879308090506E+01
              0.306818045219109E+02
             -0.378466936001450E+01
              0.543633421000962E+02
             -0.315884915361369E+02
              0.165472046769975E+02
             -0.101170117042068E+02
             -0.287701560781234E+02
              0.581770694900040E+02
              0.788972819390563E+01
              0.600130085114235E+02
              0.504874627057131E+01
              0.263782690947747E+02
             -0.191660658232362E+02
              0.582270609064796E+02
             -0.110258135187379E+02
             -0.131949442500650E+00
             -0.785148496077963E+02
             -0.127904660612584E+02
              0.714621605656425E+02
              0.669148970838592E+02
              0.250135813005599E+02
             -0.129314171314981E+02
              0.339852932133539E+01
             -0.172001957136940E+02
             -0.192912070902651E+01
              0.901912816366360E+02
              0.120243196001877E+01
             -0.188488372686901E+02
             -0.110072776151624E+03
             -0.549946547677062E+02
             -0.372517977289838E+02
             -0.654623610711136E+02
             -0.551668910810205E+02
             -0.678110428510241E+02
             -0.444152836895000E+02
             -0.409141049211150E+02
             -0.448755669068062E+02
              0.480613626377205E+02
             -0.293149617221004E+02
             -0.990200474489172E+02
              0.416232944983060E+02
             -0.257839390030720E+02
             -0.785751070348930E+02
              0.937472499825450E+02
             -0.218018227784765E+02
              0.227160624621782E+02
              0.452731404385173E+02
             -0.143742771433801E+01
              0.252652589303985E+02
              0.469246546366833E+01
              0.412542271936932E+00
             -0.149693103511871E+02
             -0.710818977186177E+02
              0.132461319571022E+02
             -0.128616468598024E+03
              0.619382610719309E+02
             -0.437962111738623E+02
             -0.161743023778710E+02
             -0.156887444839841E+02
              0.699969160585990E+01
             -0.226741821901989E+02
              0.295372166743616E+02
             -0.516798258191597E+02
              0.364918932688307E+02
              0.367962927852557E+02
              0.167946756940645E+02
              0.998342330624649E+01
              0.196411170606813E+02
              0.614648067919416E+01
              0.308543406068765E+02
             -0.795354122146392E+01
             -0.587313374148586E+02
              0.751032602200644E+01
             -0.150493481277111E+02
             -0.189950902636679E+01
              0.502498549806721E+02
             -0.821728234558422E+02
             -0.151793348079951E+01
              0.551028783661309E+00
              0.989588687012082E+01
              0.316483105544579E+02
             -0.122806509622863E+02
              0.830407417755536E+02
              0.485320244792949E+02
             -0.182325090984542E+02
             -0.951862194817733E+01
              0.102002437762670E+01
              0.764581597329570E+02
             -0.583101827624774E+02
             -0.105115190734244E+03
              0.307291306279594E+02
             -0.162439627036790E+02
             -0.138376328016114E+02
              0.129331355477212E+02
              0.763610249360829E+02
              0.461401067620216E+02
             -0.152394731361710E+02
             -0.499502269083536E+02
             -0.541492189104646E+01
              0.304622967491871E+02
             -0.110388627839817E+02
             -0.750863384423428E+02
             -0.264838067017428E+01
             -0.883544160035156E+02
             -0.472239706766428E+02
              0.762815911685899E+02
             -0.480095118125859E+02
             -0.631811814573555E+02
             -0.510909628572929E+02
             -0.347181526162688E+02
              0.338592040629090E+02
              0.816006810535036E+02
             -0.350130875089570E+01
              0.274874862374808E+02
             -0.182361550605469E+02
             -0.689479454247819E+02
              0.461761920828428E+02
             -0.441787053316717E+02
              0.320202073146231E+02
              0.374354582764888E+02
             -0.645162617665954E+01
              0.388144704236830E+02
              0.435845420477905E+02
              0.998733869387604E+02
             -0.155428874919562E+02
             -0.452337746186652E+02
             -0.608539197628123E+02
             -0.122663155202951E+02
             -0.230198702005754E+02
              0.102416359707096E+03
             -0.446073267250337E+02
              0.104497606379281E+02
              0.970796884612440E+01
             -0.263357890608178E+02
             -0.793036585066777E+02
             -0.694763880851485E+01
              0.973301874520845E+02
              0.923712459184961E+01
              0.804196678604706E+01
             -0.523043905218702E+02
             -0.601865188095198E+02
             -0.551524839936782E+01
              0.497492180356318E+02
             -0.220125481720424E+02
              0.107316102852046E+03
             -0.432290710168862E+02
              0.145030331507764E+02
             -0.223412802693124E+02
             -0.714423583061188E+02
              0.163755849324360E+01
             -0.498063714189807E+02
             -0.755820441418841E+02
              0.607416329216835E+01
              0.235758434029876E+01
              0.510841460854423E+02
              0.185481938082781E+02
             -0.321275941448966E+02
              0.228589318207064E+02
             -0.805007764229987E+02
             -0.518728938999725E+02
              0.895737777506789E+02
              0.142105141380545E+02
             -0.187746422576589E+02
             -0.350720105973571E+02
             -0.268101999964290E+01
             -0.579343534767611E+01
              0.823990450365926E+02
              0.414934986100108E+02
             -0.165550629662013E+02
             -0.121984013359332E+02
             -0.425152217813781E+02
             -0.199804511194155E+02
             -0.665984456739322E+02
              0.456251194967368E+02
              0.541788343119217E+01
              0.144412099766899E+02
              0.154816573219532E+02
             -0.481240479053316E+00
             -0.166933951610730E+02
             -0.314906649251400E+01
             -0.996953613962539E+02
             -0.229089137699858E+02
             -0.757730299728712E+01
             -0.944125446388463E+01
              0.543360020570336E+02
              0.619488758162874E+02
              0.163682103753520E+02
             -0.964440072622874E+02
              0.643433064598588E+02
             -0.213490565711157E+02
             -0.374555863307589E+02
             -0.858424203900542E+02
             -0.385202700485700E+02
              0.560246352756412E+02
              0.241938259803137E+02
              0.503258467964156E+01
              0.289914967224037E+02
             -0.561216527375956E+02
             -0.419030836896979E+02
              0.511221317440960E+02
              0.384521840141943E+02
              0.515829568059660E+02
             -0.128367712812985E+01
              0.677915208752029E+01
              0.565991154550393E+02
              0.956206785560491E+02
             -0.299117923527381E+02
              0.320077109860731E+02
             -0.116446230793716E+02
             -0.409211519051910E+02
             -0.311919220848531E+02
             -0.297845566132542E+02
             -0.130436051865345E+02
             -0.520294642674554E+02
             -0.216005046706385E+02
             -0.140303217005908E+03
              0.366824339439307E+02
              0.205020773679949E+02
             -0.391230576470034E+01
             -0.377498151735737E+02
             -0.202985374196853E+02
             -0.523097938904191E+02
              0.150754369720065E+02
              0.814783886900747E+02
             -0.250975348868033E+02
             -0.161760278408152E+02
              0.236729707487502E+02
             -0.485966329270144E+02
              0.874874091932517E+02
              0.153409967039148E+02
              0.225872706532015E+02
              0.486892098018116E+02
              0.325053421800322E+01
              0.538284712111214E+02
              0.141675096823104E+02
             -0.106434157709534E+02
              0.724053805662612E+01
              0.864860025199448E+00
              0.722947322942410E+02
              0.100549846308833E+02
              0.119075471799115E+02
             -0.129393774906698E+02
              0.131537798990556E+02
             -0.905020970636790E+02
             -0.323447414547204E+02
             -0.454120089126120E+02
              0.482039570399157E+02
             -0.288819324010880E+02
             -0.654800383675788E+02
              0.534413987051541E+02
             -0.121164634410565E+02
              0.437371729723430E+02
             -0.892761026555908E+02
              0.230869626788817E+02
              0.854905181997549E+01
              0.578532969027833E+01
             -0.823878703092106E+01
             -0.898874227002523E+01
              0.476074098707553E+02
              0.198275870850239E+01
             -0.471520831565720E+02
             -0.174723100178257E+02
              0.275407441584299E+02
             -0.117167571373646E+03
             -0.924039419646584E+02
              0.396506291885248E+01
              0.116539486956356E+02
             -0.409816057133640E+02
             -0.388855742059945E+01
              0.111440196999864E+03
              0.304649333420741E+02
             -0.568061104144895E+02
              0.919810205703902E+01
             -0.957607838891811E+01
              0.104726884045128E+02
             -0.335203639487204E+02
              0.193833632567803E+02
              0.283001810980002E+02
             -0.294281924346166E+01
              0.107427766047123E+03
             -0.140028798881069E+02
             -0.313883312008344E+02
              0.140899899927896E+02
              0.463810960561506E+02
             -0.353713419136528E+02
             -0.316917679344076E+01
              0.958284252747908E+02
             -0.464250698631690E+01
              0.618077832995233E+02
              0.134344485188263E+02
             -0.898381771570726E+01
             -0.304270852784432E+02
              0.563394378117425E+02
             -0.510301826752195E+02
             -0.219842483587064E+01
             -0.168735681879822E+02
             -0.402564929323829E+02
              0.184050467432758E+02
              0.237476391017385E+02
              0.116097027001900E+02
              0.735591006494587E+00
             -0.381750200643351E+02
              0.214462428240036E+02
             -0.673864752470212E+01
             -0.245130612277241E+02
             -0.209301443563864E+02
              0.202332484570882E+02
             -0.595700626112750E+01
             -0.346619922467025E+02
             -0.105903352613454E+03
              0.102388154633682E+02
              0.247779303094455E+02
             -0.383944657893173E+02
             -0.209322707164213E+02
              0.801519932896087E+02
              0.642163895342807E+01
              0.307832851904775E+02
              0.383189815164442E+01
              0.319170445472618E+02
              0.643921607846318E+01
             -0.370345648859149E+02
             -0.223179317768998E+01
              0.872887852514208E+01
              0.271705063887243E+02
              0.776998285570452E+02
              0.504214993081930E+02
              0.152721954406957E+00
              0.168184027347957E+02
              0.609172061505641E+02
              0.234018365538574E+02
             -0.748384672207656E+02
             -0.271880014839472E+02
              0.150345065308542E+02
              0.555543573787833E+01
              0.253388206262935E+02
             -0.544447073411584E+02
              0.895745857380551E+01
              0.383049626347607E+02
              0.494827624798675E+02
             -0.432137034284499E+02
             -0.693225930983272E+01
             -0.205968273894388E+01
             -0.132459661556530E+02
             -0.363947678541929E+02
             -0.214457764690291E+02
             -0.193547602856781E+01
              0.785204233606504E+01
              0.418554003311466E+02
             -0.306178327502386E+02
              0.820829629950857E+02
              0.325238657817980E+02
              0.217897501112181E+02
              0.330529900089440E+02
              0.321576912694527E+02
              0.343709438002532E+02
              0.533551356764392E+02
             -0.430753985820176E+02
              0.615433433651784E+02
             -0.111504073659784E+03
              0.305339280056988E+02
             -0.105834000742280E+03
              0.849375655750507E+02
              0.685450458850887E+02
             -0.109330789113891E+02
             -0.490179164101807E+02
             -0.426687682044324E+02
             -0.620002980962104E+02
             -0.624409903889621E+02
              0.548063836371496E+02
              0.402701216199343E+02
              0.235233838759681E+02
              0.372243139263766E+02
              0.400116483489620E+02
             -0.379457314731053E+02
             -0.196895689746542E+02
              0.582967891278533E+02
             -0.115182169196593E+02
              0.548424428431761E+02
              0.694301049291738E+02
             -0.551402474347976E+01
             -0.701316770091356E+02
             -0.945175242730897E+00
             -0.246983630839731E+01
             -0.875598997570751E+01
             -0.181276568034008E+01
             -0.648751926147299E+02
             -0.210309964295539E+02
              0.530335100774792E+01
              0.888569048109107E+01
              0.465578007560325E+02
             -0.394956246320769E+02
              0.654152572660016E+02
             -0.422789655452102E+02
              0.208508875739211E+02
              0.347515594159797E+02
 
 BEEF-vdW xc energy contributions
           1 :   -778.314708700016     
           2 :    715.485157578576     
           3 :   -606.471430416546     
           4 :    477.797952658794     
           5 :   -356.663699582694     
           6 :    262.846622290156     
           7 :   -204.113288859922     
           8 :    176.102750973398     
           9 :   -166.276910035416     
          10 :    160.042419244377     
          11 :   -146.537847602821     
          12 :    121.900660869003     
          13 :   -89.1548696644402     
          14 :    55.3288778755799     
          15 :   -27.4653658594880     
          16 :    9.33756554474007     
          17 :  -0.155961784461056     
          18 :   -4.47401283084696     
          19 :    10.0582723912496     
          20 :   -20.5007658812081     
          21 :    36.4165712721325     
          22 :   -55.1376716436595     
          23 :    72.2397880448719     
          24 :   -83.7535474540273     
          25 :    87.9732168234715     
          26 :   -86.0702902274373     
          27 :    81.3237645736078     
          28 :   -77.4304234857520     
          29 :    76.7477143989762     
          30 :   -79.3026670719848     
          31 :   -85.2673081259276     
          32 :   -65.4509878981484     

     Writing output data file ./pwscf.save/
 
     init_run     :    318.20s CPU    322.45s WALL (       1 calls)
     electrons    :  12287.59s CPU  12414.90s WALL (       1 calls)
     forces       :     96.24s CPU     97.67s WALL (       1 calls)

     Called by init_run:
     wfcinit      :    271.27s CPU    274.57s WALL (       1 calls)
     potinit      :     44.01s CPU     44.34s WALL (       1 calls)
     hinit0       :      1.10s CPU      1.14s WALL (       1 calls)

     Called by electrons:
     c_bands      :  10346.75s CPU  10446.60s WALL (      19 calls)
     sum_band     :   1391.57s CPU   1404.56s WALL (      19 calls)
     v_of_rho     :    100.17s CPU    104.20s WALL (      19 calls)
     newd         :     27.84s CPU     38.02s WALL (      19 calls)
     PAW_pot      :    126.90s CPU    127.00s WALL (      19 calls)
     mix_rho      :    339.13s CPU    340.11s WALL (      19 calls)
     vdW_kernel   :     33.47s CPU     33.47s WALL (       1 calls)

     Called by c_bands:
     init_us_2    :     72.57s CPU     72.98s WALL (     520 calls)
     cegterg      :   9605.24s CPU   9703.39s WALL (     247 calls)

     Called by *egterg:
     cdiaghg      :    102.89s CPU    102.99s WALL (    1446 calls)
     h_psi        :   6113.48s CPU   6150.11s WALL (    1472 calls)
     s_psi        :   1025.19s CPU   1025.92s WALL (    1472 calls)
     g_psi        :     16.43s CPU     16.45s WALL (    1212 calls)

     Called by h_psi:
     h_psi:calbec :    961.30s CPU    962.34s WALL (    1472 calls)
     vloc_psi     :   4100.10s CPU   4105.10s WALL (    1472 calls)
     add_vuspsi   :   1026.01s CPU   1026.87s WALL (    1472 calls)

     General routines
     calbec       :   1398.37s CPU   1400.04s WALL (    1771 calls)
     fft          :     45.73s CPU     45.84s WALL (    3159 calls)
     ffts         :    104.95s CPU    105.07s WALL (    7704 calls)
     fftw         :   4130.70s CPU   4135.21s WALL (  324882 calls)
 
     Parallel routines
 
     PWSCF        :      3h33m CPU      3h35m WALL

 
   This run was terminated on:  17:41:57  26Sep2022            

=------------------------------------------------------------------------------=
   JOB DONE.
=------------------------------------------------------------------------------=
