
     Program PWSCF v.6.7MaX starts on 20May2022 at 16:44:13 

     This program is part of the open-source Quantum ESPRESSO suite
     for quantum simulation of materials; please cite
         "P. Giannozzi et al., J. Phys.:Condens. Matter 21 395502 (2009);
         "P. Giannozzi et al., J. Phys.:Condens. Matter 29 465901 (2017);
          URL http://www.quantum-espresso.org", 
     in publications or presentations arising from this work. More details at
     http://www.quantum-espresso.org/quote

     Parallel version (MPI), running on     1 processors

     MPI processes distributed on     1 nodes
     Reading input from cch2oh-ensemble.in
Warning: card &CELL ignored
Warning: card / ignored

     Current dimensions of program PWSCF are:
     Max number of different atomic species (ntypx) = 10
     Max number of k-points (npk) =  40000
     Max angular momentum in pseudopotentials (lmaxx) =  3
     file Pt.pbe-n-kjpaw_psl.1.0.0.UPF: wavefunction(s)  6S 5D renormalized
     file C.pbe-n-kjpaw_psl.1.0.0.UPF: wavefunction(s)  2S 2P renormalized
     file O.pbe-nl-kjpaw_psl.1.0.0.UPF: wavefunction(s)  2S 2P renormalized
     file H.pbe-kjpaw_psl.1.0.0.UPF: wavefunction(s)  1S renormalized

     **************************************************************************
     Initializing libbeef V0.1.2 with the BEEF-vdW functional.
     Citation: Wellendorff et al., PRB 85, 235149 (2012).
     **************************************************************************


     IMPORTANT: XC functional enforced from input :
     Exchange-correlation= BEEF-VDW
                           (   1   4  43  14   2   0   0)
     Any further DFT definition will be discarded
     Please, verify this is what you really want


     Subspace diagonalization in iterative solution of the eigenvalue problem:
     a serial algorithm will be used

 
     G-vector sticks info
     --------------------
     sticks:   dense  smooth     PW     G-vecs:    dense   smooth      PW
     Sum        4267    4267   1159               741579   741579  104543
 


     bravais-lattice index     =            0
     lattice parameter (alat)  =      16.0349  a.u.
     unit-cell volume          =   11804.6375 (a.u.)^3
     number of atoms/cell      =           42
     number of atomic types    =            4
     number of electrons       =       377.00
     number of Kohn-Sham states=          227
     kinetic-energy cutoff     =      60.0000  Ry
     charge density cutoff     =     240.0000  Ry
     scf convergence threshold =      1.0E-06
     mixing beta               =       0.7000
     number of iterations used =            8  local-TF  mixing
     Exchange-correlation= BEEF-VDW
                           (   1   4  43  14   2   0   0)

     celldm(1)=  16.034858  celldm(2)=   0.000000  celldm(3)=   0.000000
     celldm(4)=   0.000000  celldm(5)=   0.000000  celldm(6)=   0.000000

     crystal axes: (cart. coord. in units of alat)
               a(1) = (   1.000000   0.000000   0.000000 )  
               a(2) = (   0.500000   0.866025   0.000000 )  
               a(3) = (   0.000000   0.000000   3.306181 )  

     reciprocal axes: (cart. coord. in units 2 pi/alat)
               b(1) = (  1.000000 -0.577350  0.000000 )  
               b(2) = (  0.000000  1.154701  0.000000 )  
               b(3) = (  0.000000  0.000000  0.302464 )  


     PseudoPot. # 1 for Pt read from file:
     /users/bkreitz1/quantum-espresso/potentials/Pt.pbe-n-kjpaw_psl.1.0.0.UPF
     MD5 check sum: 04dc8a03c51ece93fc7b5889c2958091
     Pseudo is Projector augmented-wave + core cor, Zval = 10.0
     Generated using 'atomic' code by A. Dal Corso  v.6.7MaX
     Shape of augmentation charge: PSQ
     Using radial grid of 1277 points,  6 beta functions with: 
                l(1) =   0
                l(2) =   0
                l(3) =   1
                l(4) =   1
                l(5) =   2
                l(6) =   2
     Q(r) pseudized with 0 coefficients 


     PseudoPot. # 2 for C  read from file:
     /users/bkreitz1/quantum-espresso/potentials/C.pbe-n-kjpaw_psl.1.0.0.UPF
     MD5 check sum: a169b0ebad56f5ec0d79c4633f80bf22
     Pseudo is Projector augmented-wave + core cor, Zval =  4.0
     Generated using 'atomic' code by A. Dal Corso  v.6.7MaX
     Shape of augmentation charge: PSQ
     Using radial grid of 1073 points,  4 beta functions with: 
                l(1) =   0
                l(2) =   0
                l(3) =   1
                l(4) =   1
     Q(r) pseudized with 0 coefficients 


     PseudoPot. # 3 for O  read from file:
     /users/bkreitz1/quantum-espresso/potentials/O.pbe-nl-kjpaw_psl.1.0.0.UPF
     MD5 check sum: eef08af8b58d9ec80f8fdb78829eb7cf
     Pseudo is Projector augmented-wave + core cor, Zval =  6.0
     Generated using 'atomic' code by A. Dal Corso  v.6.7MaX
     Shape of augmentation charge: PSQ
     Using radial grid of 1095 points,  4 beta functions with: 
                l(1) =   0
                l(2) =   0
                l(3) =   1
                l(4) =   1
     Q(r) pseudized with 0 coefficients 


     PseudoPot. # 4 for H  read from file:
     /users/bkreitz1/quantum-espresso/potentials/H.pbe-kjpaw_psl.1.0.0.UPF
     MD5 check sum: ae98473e6dc62675f0d0baffdab24f65
     Pseudo is Projector augmented-wave, Zval =  1.0
     Generated using 'atomic' code by A. Dal Corso  v.6.7MaX
     Shape of augmentation charge: PSQ
     Using radial grid of  929 points,  2 beta functions with: 
                l(1) =   0
                l(2) =   0
     Q(r) pseudized with 0 coefficients 


     atomic species   valence    mass     pseudopotential
        Pt            10.00   195.08400     Pt( 1.00)
        C              4.00    12.01100     C ( 1.00)
        O              6.00    15.99900     O ( 1.00)
        H              1.00     1.00800     H ( 1.00)

     No symmetry found



   Cartesian axes

     site n.     atom                  positions (alat units)
         1           Pt  tau(   1) = (   0.0000000   0.0000000   1.0017346  )
         2           Pt  tau(   2) = (   0.3333333   0.0000000   1.0017346  )
         3           Pt  tau(   3) = (   0.6666667   0.0000000   1.0017346  )
         4           Pt  tau(   4) = (   0.1666667   0.2886751   1.0017346  )
         5           Pt  tau(   5) = (   0.5000000   0.2886751   1.0017346  )
         6           Pt  tau(   6) = (   0.8333333   0.2886751   1.0017346  )
         7           Pt  tau(   7) = (   0.3333333   0.5773503   1.0017346  )
         8           Pt  tau(   8) = (   0.6666667   0.5773503   1.0017346  )
         9           Pt  tau(   9) = (   1.0000000   0.5773503   1.0017346  )
        10           Pt  tau(  10) = (   0.1666667   0.0962250   1.2739001  )
        11           Pt  tau(  11) = (   0.5000000   0.0962250   1.2739001  )
        12           Pt  tau(  12) = (   0.8333333   0.0962250   1.2739001  )
        13           Pt  tau(  13) = (   0.3333333   0.3849002   1.2739001  )
        14           Pt  tau(  14) = (   0.6666667   0.3849002   1.2739001  )
        15           Pt  tau(  15) = (   1.0000000   0.3849002   1.2739001  )
        16           Pt  tau(  16) = (   0.5000000   0.6735753   1.2739001  )
        17           Pt  tau(  17) = (   0.8333333   0.6735753   1.2739001  )
        18           Pt  tau(  18) = (   1.1666667   0.6735753   1.2739001  )
        19           Pt  tau(  19) = (  -0.0030540   0.1931634   1.5453060  )
        20           Pt  tau(  20) = (   0.3334341   0.1931748   1.5458089  )
        21           Pt  tau(  21) = (   0.6651061   0.1932033   1.5461052  )
        22           Pt  tau(  22) = (   0.1653637   0.4808108   1.5425565  )
        23           Pt  tau(  23) = (   0.4993835   0.4805990   1.5464603  )
        24           Pt  tau(  24) = (   0.8310770   0.4804621   1.5458710  )
        25           Pt  tau(  25) = (   0.3321555   0.7697711   1.5426145  )
        26           Pt  tau(  26) = (   0.6652282   0.7677242   1.5454855  )
        27           Pt  tau(  27) = (   0.9984053   0.7697024   1.5426380  )
        28           Pt  tau(  28) = (  -0.0031107  -0.0005924   1.8176938  )
        29           Pt  tau(  29) = (   0.3299459  -0.0007906   1.8176729  )
        30           Pt  tau(  30) = (   0.6635038  -0.0037206   1.8170817  )
        31           Pt  tau(  31) = (   0.1630016   0.2881631   1.8176053  )
        32           Pt  tau(  32) = (   0.4919241   0.2857918   1.8335770  )
        33           Pt  tau(  33) = (   0.8333216   0.2861708   1.8329502  )
        34           Pt  tau(  34) = (   0.3271484   0.5787460   1.8172703  )
        35           Pt  tau(  35) = (   0.6638813   0.5804703   1.8340606  )
        36           Pt  tau(  36) = (   0.9996986   0.5784950   1.8169683  )
        37           C   tau(  37) = (   0.6617872   0.3826000   1.9657171  )
        38           C   tau(  38) = (   0.6599906   0.3811677   2.1428372  )
        39           O   tau(  39) = (   0.8032289   0.4494094   2.2020729  )
        40           H   tau(  40) = (   0.5567278   0.4483105   2.1830301  )
        41           H   tau(  41) = (   0.6467526   0.2585627   2.1820082  )
        42           H   tau(  42) = (   0.8189774   0.4108861   2.3091860  )

     number of k points=    13  Marzari-Vanderbilt smearing, width (Ry)=  0.0200
                       cart. coord. in units 2pi/alat
        k(    1) = (   0.0000000   0.0000000   0.0000000), wk =   0.0800000
        k(    2) = (   0.0000000   0.2309401   0.0000000), wk =   0.1600000
        k(    3) = (   0.0000000   0.4618802   0.0000000), wk =   0.1600000
        k(    4) = (   0.2000000  -0.1154701   0.0000000), wk =   0.1600000
        k(    5) = (   0.2000000   0.1154701   0.0000000), wk =   0.1600000
        k(    6) = (   0.2000000   0.3464102   0.0000000), wk =   0.1600000
        k(    7) = (   0.2000000  -0.5773503   0.0000000), wk =   0.1600000
        k(    8) = (   0.2000000  -0.3464102   0.0000000), wk =   0.1600000
        k(    9) = (   0.4000000  -0.2309401   0.0000000), wk =   0.1600000
        k(   10) = (   0.4000000  -0.0000000   0.0000000), wk =   0.1600000
        k(   11) = (   0.4000000   0.2309401   0.0000000), wk =   0.1600000
        k(   12) = (   0.4000000  -0.6928203   0.0000000), wk =   0.1600000
        k(   13) = (   0.4000000  -0.4618802   0.0000000), wk =   0.1600000

     Dense  grid:   741579 G-vectors     FFT dimensions: (  80,  80, 270)

     Estimated max dynamical RAM per process >       9.04 GB

     Check: negative core charge=   -0.000002

     Initial potential from superposition of free atoms

     starting charge  376.99378, renormalised to  377.00000

     negative rho (up, down):  1.173E-02 0.000E+00


     %%%%%%%%%%%%%%%%%%%%%%%%%%%%%%%%%%%%%%%%%%%%%%%%%%%%%%%%%%%%%%%%%%%%%%%%
     %                                                                      %
     % You are using vdW-DF, which was implemented by the Thonhauser group. %
     % Please cite the following two papers that made this development      %
     % possible and the two reviews that describe the various versions:     %
     %                                                                      %
     %   T. Thonhauser et al., PRL 115, 136402 (2015).                      %
     %   T. Thonhauser et al., PRB 76, 125112 (2007).                       %
     %   K. Berland et al., Rep. Prog. Phys. 78, 066501 (2015).             %
     %   D.C. Langreth et al., J. Phys.: Condens. Matter 21, 084203 (2009). %
     %                                                                      %
     %                                                                      %
     % If you are calculating the stress with vdW-DF, please also cite:     %
     %                                                                      %
     %   R. Sabatini et al., J. Phys.: Condens. Matter 24, 424209 (2012).   %
     %                                                                      %
     %%%%%%%%%%%%%%%%%%%%%%%%%%%%%%%%%%%%%%%%%%%%%%%%%%%%%%%%%%%%%%%%%%%%%%%%


     Starting wfcs are  339 randomized atomic wfcs
     Checking if some PAW data can be deallocated... 

     total cpu time spent up to now is      358.2 secs

     Self-consistent Calculation

     iteration #  1     ecut=    60.00 Ry     beta= 0.70
     Davidson diagonalization with overlap
     ethr =  1.00E-02,  avg # of iterations =  2.5

     Threshold (ethr) on eigenvalues was too large:
     Diagonalizing with lowered threshold

     Davidson diagonalization with overlap
     ethr =  6.87E-04,  avg # of iterations =  3.0

     negative rho (up, down):  1.131E-02 0.000E+00

     total cpu time spent up to now is     1806.3 secs

     total energy              =  -27838.10832955 Ry
     estimated scf accuracy    <       2.84310394 Ry

     iteration #  2     ecut=    60.00 Ry     beta= 0.70
     Davidson diagonalization with overlap
     ethr =  7.54E-04,  avg # of iterations =  4.5

     negative rho (up, down):  9.617E-03 0.000E+00

     total cpu time spent up to now is     2463.5 secs

     total energy              =  -27838.29894702 Ry
     estimated scf accuracy    <       1.17290510 Ry

     iteration #  3     ecut=    60.00 Ry     beta= 0.70
     Davidson diagonalization with overlap
     ethr =  3.11E-04,  avg # of iterations =  7.0

     negative rho (up, down):  7.041E-03 0.000E+00

     total cpu time spent up to now is     3153.1 secs

     total energy              =  -27838.35480723 Ry
     estimated scf accuracy    <       0.45138991 Ry

     iteration #  4     ecut=    60.00 Ry     beta= 0.70
     Davidson diagonalization with overlap
     c_bands:  1 eigenvalues not converged
     ethr =  1.20E-04,  avg # of iterations =  9.3

     negative rho (up, down):  5.201E-03 0.000E+00

     total cpu time spent up to now is     3918.8 secs

     total energy              =  -27838.39506233 Ry
     estimated scf accuracy    <       0.20201806 Ry

     iteration #  5     ecut=    60.00 Ry     beta= 0.70
     Davidson diagonalization with overlap
     c_bands:  1 eigenvalues not converged
     ethr =  5.36E-05,  avg # of iterations =  9.5

     negative rho (up, down):  3.495E-03 0.000E+00

     total cpu time spent up to now is     4674.3 secs

     total energy              =  -27838.40686835 Ry
     estimated scf accuracy    <       0.05236605 Ry

     iteration #  6     ecut=    60.00 Ry     beta= 0.70
     Davidson diagonalization with overlap
     c_bands:  1 eigenvalues not converged
     c_bands:  1 eigenvalues not converged
     ethr =  1.39E-05,  avg # of iterations = 10.5

     negative rho (up, down):  2.949E-03 0.000E+00

     total cpu time spent up to now is     5635.4 secs

     total energy              =  -27838.41686068 Ry
     estimated scf accuracy    <       0.01314603 Ry

     iteration #  7     ecut=    60.00 Ry     beta= 0.70
     Davidson diagonalization with overlap
     c_bands:  1 eigenvalues not converged
     c_bands:  2 eigenvalues not converged
     c_bands:  1 eigenvalues not converged
     ethr =  3.49E-06,  avg # of iterations = 10.8

     negative rho (up, down):  2.725E-03 0.000E+00

     total cpu time spent up to now is     6482.1 secs

     total energy              =  -27838.41814841 Ry
     estimated scf accuracy    <       0.00984189 Ry

     iteration #  8     ecut=    60.00 Ry     beta= 0.70
     Davidson diagonalization with overlap
     ethr =  2.61E-06,  avg # of iterations = 12.6

     negative rho (up, down):  2.883E-03 0.000E+00

     total cpu time spent up to now is     7233.3 secs

     total energy              =  -27838.41865624 Ry
     estimated scf accuracy    <       0.00487387 Ry

     iteration #  9     ecut=    60.00 Ry     beta= 0.70
     Davidson diagonalization with overlap
     ethr =  1.29E-06,  avg # of iterations =  9.9

     negative rho (up, down):  3.549E-03 0.000E+00

     total cpu time spent up to now is     7942.2 secs

     total energy              =  -27838.41899171 Ry
     estimated scf accuracy    <       0.00140390 Ry

     iteration # 10     ecut=    60.00 Ry     beta= 0.70
     Davidson diagonalization with overlap
     ethr =  3.72E-07,  avg # of iterations =  7.2

     negative rho (up, down):  4.589E-03 0.000E+00

     total cpu time spent up to now is     8680.6 secs

     total energy              =  -27838.41920500 Ry
     estimated scf accuracy    <       0.00109149 Ry

     iteration # 11     ecut=    60.00 Ry     beta= 0.70
     Davidson diagonalization with overlap
     ethr =  2.90E-07,  avg # of iterations =  5.8

     negative rho (up, down):  6.297E-03 0.000E+00

     total cpu time spent up to now is     9341.6 secs

     total energy              =  -27838.41930412 Ry
     estimated scf accuracy    <       0.00076735 Ry

     iteration # 12     ecut=    60.00 Ry     beta= 0.70
     Davidson diagonalization with overlap
     ethr =  2.04E-07,  avg # of iterations =  4.5

     negative rho (up, down):  7.364E-03 0.000E+00

     total cpu time spent up to now is     9981.5 secs

     total energy              =  -27838.41935504 Ry
     estimated scf accuracy    <       0.00057705 Ry

     iteration # 13     ecut=    60.00 Ry     beta= 0.70
     Davidson diagonalization with overlap
     ethr =  1.53E-07,  avg # of iterations =  2.7

     negative rho (up, down):  9.435E-03 0.000E+00

     total cpu time spent up to now is    10616.6 secs

     total energy              =  -27838.41935239 Ry
     estimated scf accuracy    <       0.00031571 Ry

     iteration # 14     ecut=    60.00 Ry     beta= 0.70
     Davidson diagonalization with overlap
     ethr =  8.37E-08,  avg # of iterations =  2.0

     negative rho (up, down):  1.005E-02 0.000E+00

     total cpu time spent up to now is    11241.4 secs

     total energy              =  -27838.41932841 Ry
     estimated scf accuracy    <       0.00021478 Ry

     iteration # 15     ecut=    60.00 Ry     beta= 0.70
     Davidson diagonalization with overlap
     ethr =  5.70E-08,  avg # of iterations =  2.3

     negative rho (up, down):  1.242E-02 0.000E+00

     total cpu time spent up to now is    11872.5 secs

     total energy              =  -27838.41930259 Ry
     estimated scf accuracy    <       0.00012491 Ry

     iteration # 16     ecut=    60.00 Ry     beta= 0.70
     Davidson diagonalization with overlap
     ethr =  3.31E-08,  avg # of iterations =  2.8

     negative rho (up, down):  1.259E-02 0.000E+00

     total cpu time spent up to now is    12515.4 secs

     total energy              =  -27838.41931809 Ry
     estimated scf accuracy    <       0.00004726 Ry

     iteration # 17     ecut=    60.00 Ry     beta= 0.70
     Davidson diagonalization with overlap
     ethr =  1.25E-08,  avg # of iterations =  2.0

     negative rho (up, down):  1.341E-02 0.000E+00

     total cpu time spent up to now is    13156.2 secs

     total energy              =  -27838.41933165 Ry
     estimated scf accuracy    <       0.00001787 Ry

     iteration # 18     ecut=    60.00 Ry     beta= 0.70
     Davidson diagonalization with overlap
     ethr =  4.74E-09,  avg # of iterations =  4.0

     negative rho (up, down):  1.342E-02 0.000E+00

     total cpu time spent up to now is    13867.7 secs

     total energy              =  -27838.41933578 Ry
     estimated scf accuracy    <       0.00001878 Ry

     iteration # 19     ecut=    60.00 Ry     beta= 0.70
     Davidson diagonalization with overlap
     ethr =  4.74E-09,  avg # of iterations =  2.0

     negative rho (up, down):  1.354E-02 0.000E+00

     total cpu time spent up to now is    14497.5 secs

     total energy              =  -27838.41933650 Ry
     estimated scf accuracy    <       0.00000254 Ry

     iteration # 20     ecut=    60.00 Ry     beta= 0.70
     Davidson diagonalization with overlap
     ethr =  6.73E-10,  avg # of iterations =  4.3

     negative rho (up, down):  1.342E-02 0.000E+00

     total cpu time spent up to now is    15480.9 secs

     total energy              =  -27838.41933783 Ry
     estimated scf accuracy    <       0.00000139 Ry

     iteration # 21     ecut=    60.00 Ry     beta= 0.70
     Davidson diagonalization with overlap
     ethr =  3.70E-10,  avg # of iterations =  1.8

     negative rho (up, down):  1.338E-02 0.000E+00

     total cpu time spent up to now is    16073.7 secs

     End of self-consistent calculation

          k = 0.0000 0.0000 0.0000 ( 92747 PWs)   bands (ev):

   -19.2898 -12.5173  -8.8785  -6.9606  -6.5479  -5.6884  -5.2674  -4.9867
    -4.6278  -4.6156  -4.5959  -4.5807  -4.5561  -4.5422  -4.5392  -4.3568
    -4.1925  -4.0799  -4.0342  -4.0220  -4.0160  -3.9569  -3.8411  -3.7572
    -3.5791  -3.5773  -3.5718  -3.4545  -3.3945  -3.3808  -3.3539  -3.3522
    -3.3510  -3.2475  -3.2301  -3.2190  -3.1536  -3.1517  -3.1356  -3.0921
    -3.0734  -3.0692  -3.0617  -3.0317  -3.0300  -2.7618  -2.6058  -2.5525
    -2.5004  -2.4953  -2.4888  -2.4868  -2.4273  -2.4263  -2.4200  -2.3658
    -2.2919  -2.2725  -2.2531  -2.2443  -2.1161  -2.0974  -1.9746  -1.7739
    -1.7659  -1.7051  -1.6922  -1.6905  -1.6459  -1.6037  -1.5331  -1.5306
    -1.5065  -1.4945  -1.4923  -1.4911  -1.4767  -1.4529  -1.4422  -1.4393
    -1.3977  -1.3969  -1.3899  -1.3802  -1.3752  -1.3186  -1.3028  -1.2916
    -1.2859  -1.2779  -1.2669  -1.0933  -1.0781  -1.0723  -1.0472  -1.0404
    -1.0358  -1.0342  -1.0254  -0.9681  -0.9665  -0.9521  -0.8639  -0.8635
    -0.8244  -0.8197  -0.7996  -0.7229  -0.7090  -0.6875  -0.6777  -0.6736
    -0.6615  -0.5966  -0.5576  -0.5186  -0.2380  -0.2287  -0.2037  -0.1791
    -0.1549  -0.1508  -0.1409  -0.1348  -0.1215  -0.0568  -0.0141  -0.0135
     0.0415   0.0492   0.0548   0.0850   0.0908   0.1267   0.1510   0.2012
     0.2944   0.3021   0.3230   0.3514   0.3859   0.3895   0.5399   0.5797
     0.5812   0.5990   0.6318   0.6380   0.6645   0.6895   0.7469   0.7525
     0.7834   0.8213   0.8431   0.8475   0.8638   0.9399   0.9519   0.9664
     1.0115   1.0155   1.0289   1.0326   1.0348   1.0428   1.0608   1.0626
     1.0654   1.1369   1.1380   1.1520   1.1552   1.1585   1.2288   1.2321
     1.2443   1.2489   1.2496   1.2901   1.2902   1.3360   1.3854   1.3896
     1.3913   1.3965   1.3973   1.4441   1.4694   1.4702   1.5090   1.5109
     1.5233   1.5350   1.5505   1.6791   1.6882   1.7916   1.7958   1.8018
     1.8338   1.8372   1.8542   2.3392   2.4076   2.4120   2.6365   2.7043
     2.7127   2.7372   3.7369   3.8491   4.6944   4.9986   5.0113   5.0330
     5.3759   5.4647   5.6101   6.4062   6.5642   6.6261   6.6345   6.6686
     6.7385   6.7781   6.8143

          k = 0.0000 0.2309 0.0000 ( 92630 PWs)   bands (ev):

   -19.2898 -12.5169  -8.8710  -6.8188  -6.5475  -5.5630  -5.2701  -5.0798
    -4.9263  -4.7033  -4.6752  -4.4743  -4.3922  -4.3542  -4.3391  -4.2925
    -4.1750  -4.1166  -4.0642  -3.9622  -3.9521  -3.9201  -3.7772  -3.6920
    -3.6304  -3.5347  -3.5087  -3.5020  -3.4270  -3.4198  -3.3914  -3.3394
    -3.3280  -3.2759  -3.2540  -3.2337  -3.1985  -3.1910  -3.1336  -3.1326
    -3.0042  -2.9982  -2.9220  -2.9001  -2.8815  -2.7504  -2.6507  -2.6320
    -2.6022  -2.5853  -2.5641  -2.5535  -2.4644  -2.4367  -2.3949  -2.3153
    -2.3062  -2.2457  -2.2195  -2.2042  -2.1181  -2.0992  -2.0195  -1.9405
    -1.8651  -1.8511  -1.8164  -1.8032  -1.7601  -1.7285  -1.7210  -1.6947
    -1.6790  -1.6479  -1.5951  -1.5613  -1.5275  -1.5126  -1.4909  -1.4685
    -1.4125  -1.3952  -1.3846  -1.3136  -1.3056  -1.2908  -1.2637  -1.2447
    -1.2282  -1.2011  -1.1641  -1.1324  -1.1197  -1.0899  -1.0718  -1.0576
    -1.0417  -1.0290  -0.9937  -0.9622  -0.9503  -0.9233  -0.9147  -0.8843
    -0.8616  -0.8525  -0.8090  -0.7727  -0.7657  -0.7445  -0.7215  -0.6691
    -0.6642  -0.6384  -0.6044  -0.5997  -0.5708  -0.5690  -0.4524  -0.3947
    -0.3530  -0.2336  -0.2046  -0.1915  -0.1529  -0.1468  -0.1220  -0.1092
    -0.0816  -0.0321   0.0513   0.1143   0.1486   0.1505   0.2011   0.2127
     0.2314   0.2421   0.2671   0.2831   0.3107   0.3257   0.4397   0.4645
     0.4712   0.4928   0.5056   0.5799   0.6153   0.6576   0.6639   0.6859
     0.6977   0.7648   0.7680   0.8332   0.8397   0.8530   0.8706   0.9064
     0.9332   0.9906   0.9938   1.0446   1.0517   1.0562   1.0780   1.1173
     1.1830   1.2096   1.2139   1.2662   1.2848   1.3422   1.3481   1.3630
     1.3897   1.3970   1.4091   1.4634   1.4728   1.4803   1.5032   1.5175
     1.5544   1.5571   1.6397   1.6628   1.7016   1.7234   1.7491   1.7585
     1.7816   1.8089   1.8229   1.8420   1.8771   1.9223   1.9660   2.0117
     2.0830   2.1223   2.1397   2.1718   2.3854   2.5148   2.8317   3.0971
     3.3103   3.3918   3.7083   3.8621   4.4785   4.7714   4.9934   5.3414
     5.4769   5.5621   5.6452   5.8024   5.8383   6.4479   6.5085   6.5452
     6.6163   6.8079   6.8652

          k = 0.0000 0.4619 0.0000 ( 92642 PWs)   bands (ev):

   -19.2898 -12.5162  -8.8590  -6.5527  -6.4040  -5.7880  -5.2940  -5.1479
    -4.8719  -4.7414  -4.7081  -4.5626  -4.3451  -4.2039  -4.0997  -4.0740
    -4.0156  -3.9814  -3.9332  -3.8605  -3.7907  -3.7805  -3.7577  -3.6651
    -3.6436  -3.6149  -3.5895  -3.5707  -3.5445  -3.5122  -3.4678  -3.4532
    -3.4057  -3.3612  -3.1867  -3.1681  -3.1554  -3.1402  -3.0742  -3.0106
    -2.9245  -2.9214  -2.9091  -2.8895  -2.7928  -2.7502  -2.7234  -2.6732
    -2.6089  -2.5664  -2.5524  -2.5210  -2.4768  -2.4640  -2.4206  -2.4082
    -2.3797  -2.3548  -2.2934  -2.2426  -2.2206  -2.1873  -2.0969  -2.0725
    -2.0520  -2.0145  -1.9903  -1.9670  -1.9234  -1.8428  -1.8082  -1.7840
    -1.7523  -1.7451  -1.6772  -1.6709  -1.6524  -1.5613  -1.5361  -1.5206
    -1.4786  -1.4380  -1.4348  -1.3874  -1.3677  -1.3450  -1.3165  -1.2970
    -1.2838  -1.2738  -1.2607  -1.2570  -1.2255  -1.2151  -1.1538  -1.1310
    -1.0998  -1.0801  -1.0682  -1.0403  -1.0092  -0.9683  -0.9350  -0.8951
    -0.8822  -0.8604  -0.8354  -0.8206  -0.7792  -0.7574  -0.7209  -0.6625
    -0.6236  -0.6116  -0.5803  -0.5320  -0.4856  -0.4471  -0.3966  -0.3410
    -0.3337  -0.3241  -0.2708  -0.2318  -0.2240  -0.2166  -0.1702  -0.1524
    -0.1222  -0.1116  -0.0967  -0.0722  -0.0645  -0.0577  -0.0183   0.0149
     0.0847   0.0901   0.1411   0.1700   0.2175   0.2476   0.3011   0.3703
     0.3828   0.4442   0.4716   0.4958   0.5772   0.5826   0.6525   0.6574
     0.7012   0.7200   0.7323   0.7577   0.7983   0.8007   0.8337   0.8987
     0.9047   0.9561   0.9761   1.0029   1.0093   1.0563   1.1164   1.1551
     1.2186   1.2472   1.2750   1.3052   1.3791   1.3866   1.4079   1.4120
     1.4404   1.4747   1.5313   1.5384   1.5567   1.5871   1.6752   1.6873
     1.7073   1.7201   1.7328   1.7462   1.7806   1.8084   1.9329   1.9567
     1.9743   1.9796   1.9982   2.0833   2.2154   2.3152   2.3998   2.5194
     2.7071   2.9988   3.0159   3.1608   3.2772   3.2944   3.6586   3.6928
     3.8622   4.0231   4.2693   4.3078   4.3873   4.4411   4.5225   4.6931
     4.8115   5.1261   5.1854   5.4367   5.5754   5.8354   6.0903   6.1278
     6.5320   6.6601   6.7321

          k = 0.2000-0.1155 0.0000 ( 92630 PWs)   bands (ev):

   -19.2898 -12.5169  -8.8709  -6.8187  -6.5473  -5.5662  -5.2826  -5.0554
    -4.9341  -4.7077  -4.6704  -4.4741  -4.3890  -4.3560  -4.3396  -4.2847
    -4.1642  -4.1150  -4.0925  -3.9618  -3.9539  -3.9159  -3.7624  -3.7082
    -3.6286  -3.5369  -3.5080  -3.5026  -3.4264  -3.4199  -3.3901  -3.3392
    -3.3301  -3.2739  -3.2553  -3.2330  -3.2011  -3.1915  -3.1335  -3.1319
    -3.0054  -2.9995  -2.9191  -2.9021  -2.8796  -2.7474  -2.6476  -2.6305
    -2.6041  -2.5925  -2.5666  -2.5533  -2.4682  -2.4354  -2.3699  -2.3256
    -2.3065  -2.2458  -2.2225  -2.1869  -2.1486  -2.1102  -2.0054  -1.9282
    -1.8648  -1.8523  -1.8141  -1.7940  -1.7568  -1.7301  -1.7210  -1.6947
    -1.6789  -1.6469  -1.5975  -1.5624  -1.5191  -1.5110  -1.4909  -1.4680
    -1.4201  -1.4026  -1.3861  -1.3108  -1.3055  -1.2891  -1.2650  -1.2404
    -1.2261  -1.2008  -1.1700  -1.1331  -1.1201  -1.0874  -1.0719  -1.0574
    -1.0411  -1.0234  -0.9897  -0.9631  -0.9552  -0.9257  -0.9147  -0.8855
    -0.8612  -0.8550  -0.8117  -0.7741  -0.7647  -0.7514  -0.7087  -0.6740
    -0.6675  -0.6378  -0.6033  -0.5994  -0.5707  -0.5690  -0.4522  -0.3993
    -0.3579  -0.2357  -0.2077  -0.1753  -0.1598  -0.1504  -0.1294  -0.1074
    -0.0997  -0.0102   0.0510   0.1148   0.1413   0.1522   0.1981   0.2151
     0.2302   0.2478   0.2622   0.2831   0.3088   0.3247   0.4393   0.4669
     0.4714   0.4915   0.5093   0.5787   0.6137   0.6572   0.6628   0.6870
     0.7005   0.7639   0.7676   0.8326   0.8399   0.8538   0.8718   0.9078
     0.9335   0.9900   0.9946   1.0456   1.0526   1.0581   1.0787   1.1171
     1.1819   1.2103   1.2138   1.2664   1.2818   1.3413   1.3472   1.3637
     1.3893   1.3963   1.4085   1.4636   1.4725   1.4804   1.5030   1.5192
     1.5522   1.5555   1.6400   1.6603   1.6997   1.7250   1.7517   1.7584
     1.7837   1.8115   1.8253   1.8442   1.8778   1.9219   1.9662   2.0104
     2.0813   2.1218   2.1394   2.1723   2.3921   2.5176   2.8277   3.0976
     3.3077   3.3923   3.7048   3.8665   4.4792   4.7765   4.9890   5.3425
     5.4772   5.5684   5.6319   5.8026   5.8433   6.4419   6.5066   6.5285
     6.6180   6.8105   6.8763

          k = 0.2000 0.1155 0.0000 ( 92630 PWs)   bands (ev):

   -19.2898 -12.5169  -8.8708  -6.8191  -6.5474  -5.5581  -5.2601  -5.0974
    -4.9291  -4.6893  -4.6813  -4.4750  -4.4031  -4.3476  -4.3369  -4.3124
    -4.1827  -4.1180  -4.0118  -3.9678  -3.9491  -3.9317  -3.7956  -3.6713
    -3.6346  -3.5357  -3.5092  -3.5000  -3.4273  -3.4181  -3.3944  -3.3343
    -3.3300  -3.2753  -3.2495  -3.2396  -3.1981  -3.1911  -3.1326  -3.1312
    -3.0067  -2.9911  -2.9300  -2.8992  -2.8819  -2.7492  -2.6707  -2.6340
    -2.6134  -2.5792  -2.5727  -2.5488  -2.4707  -2.4159  -2.3995  -2.3225
    -2.3050  -2.2507  -2.2129  -2.1991  -2.1435  -2.0979  -2.0108  -1.9303
    -1.8666  -1.8531  -1.8258  -1.8006  -1.7602  -1.7204  -1.7148  -1.6946
    -1.6771  -1.6454  -1.5918  -1.5631  -1.5257  -1.5136  -1.4919  -1.4653
    -1.3993  -1.3971  -1.3776  -1.3152  -1.3100  -1.2935  -1.2632  -1.2482
    -1.2319  -1.2139  -1.1589  -1.1332  -1.1209  -1.0920  -1.0724  -1.0546
    -1.0382  -1.0222  -0.9939  -0.9661  -0.9499  -0.9177  -0.9163  -0.8809
    -0.8658  -0.8530  -0.8186  -0.7717  -0.7685  -0.7409  -0.7044  -0.6647
    -0.6608  -0.6392  -0.6055  -0.6017  -0.5706  -0.5696  -0.4340  -0.4105
    -0.3626  -0.2393  -0.2190  -0.1748  -0.1574  -0.1448  -0.1218  -0.1075
    -0.1017  -0.0090   0.0572   0.1189   0.1379   0.1544   0.1974   0.2163
     0.2349   0.2391   0.2736   0.2855   0.3057   0.3233   0.4395   0.4641
     0.4706   0.4896   0.5216   0.5759   0.6190   0.6582   0.6691   0.6945
     0.6958   0.7673   0.7687   0.8302   0.8391   0.8455   0.8682   0.8987
     0.9373   0.9880   0.9936   1.0389   1.0520   1.0558   1.0785   1.1194
     1.1838   1.2092   1.2158   1.2652   1.2924   1.3390   1.3495   1.3632
     1.3923   1.3948   1.4108   1.4635   1.4720   1.4787   1.5037   1.5156
     1.5559   1.5601   1.6411   1.6610   1.7027   1.7220   1.7483   1.7551
     1.7782   1.8053   1.8184   1.8384   1.8749   1.9238   1.9664   2.0084
     2.0768   2.1238   2.1366   2.1645   2.4137   2.5047   2.7893   3.1244
     3.3048   3.3981   3.6729   3.9277   4.4771   4.7632   4.9799   5.3426
     5.4852   5.5471   5.6661   5.7756   5.8456   6.4460   6.4627   6.5101
     6.6903   6.8292   6.8812

          k = 0.2000 0.3464 0.0000 ( 92662 PWs)   bands (ev):

   -19.2898 -12.5163  -8.8611  -6.5725  -6.5168  -5.3934  -5.3460  -5.2905
    -5.1918  -4.8626  -4.3804  -4.2783  -4.2538  -4.2480  -4.2084  -4.2020
    -4.1608  -4.0871  -4.0678  -4.0102  -3.8026  -3.7234  -3.6792  -3.6652
    -3.6587  -3.6118  -3.5657  -3.4953  -3.4532  -3.4478  -3.4139  -3.3575
    -3.3335  -3.3194  -3.2905  -3.2336  -3.2086  -3.1888  -3.1643  -3.1262
    -3.0359  -3.0017  -2.8571  -2.8133  -2.7584  -2.7123  -2.6863  -2.6625
    -2.6261  -2.5905  -2.5742  -2.5314  -2.4661  -2.4335  -2.4012  -2.3596
    -2.3249  -2.2873  -2.2676  -2.2133  -2.1691  -2.1534  -2.1224  -2.0773
    -2.0277  -1.9675  -1.9571  -1.9147  -1.8682  -1.8333  -1.8010  -1.7930
    -1.7762  -1.7415  -1.7054  -1.5949  -1.5842  -1.5695  -1.5493  -1.5229
    -1.5100  -1.4464  -1.4215  -1.3865  -1.3691  -1.3023  -1.2827  -1.2704
    -1.2452  -1.2263  -1.2164  -1.2055  -1.1653  -1.1607  -1.1239  -1.1166
    -1.0868  -1.0212  -1.0096  -0.9775  -0.9595  -0.9555  -0.9441  -0.9133
    -0.8799  -0.8609  -0.8458  -0.8356  -0.8238  -0.8200  -0.7989  -0.7731
    -0.6857  -0.6782  -0.6241  -0.5724  -0.5417  -0.5247  -0.5011  -0.3988
    -0.3847  -0.3405  -0.2894  -0.2735  -0.1963  -0.1794  -0.1564  -0.1254
    -0.1015  -0.0852  -0.0739  -0.0295  -0.0088   0.0058   0.0696   0.0812
     0.1608   0.2067   0.2228   0.2455   0.2623   0.2963   0.3505   0.3745
     0.4156   0.4433   0.4663   0.5377   0.5557   0.5835   0.6013   0.6210
     0.6732   0.7099   0.7345   0.7793   0.7988   0.8077   0.8254   0.8440
     0.8554   0.8746   0.9039   0.9688   1.0177   1.1003   1.1230   1.1749
     1.2533   1.3424   1.3515   1.3651   1.3911   1.4154   1.4622   1.4978
     1.5155   1.5309   1.5580   1.5700   1.5851   1.6048   1.6188   1.6470
     1.6635   1.7092   1.7367   1.7590   1.7787   1.8019   1.8521   1.9220
     1.9669   2.0177   2.0280   2.0486   2.0851   2.1248   2.1834   2.2498
     2.4206   2.6866   2.7819   2.9996   3.0644   3.2770   3.3174   3.4157
     3.8168   3.8787   4.1004   4.2165   4.2833   4.4176   4.5395   5.1138
     5.3115   5.4791   5.5850   5.7139   5.7990   6.0208   6.1455   6.1943
     6.2405   6.3376   6.6141

          k = 0.2000-0.5774 0.0000 ( 92664 PWs)   bands (ev):

   -19.2898 -12.5160  -8.8552  -6.5508  -6.0441  -5.9922  -5.4357  -5.2386
    -4.9692  -4.8140  -4.6487  -4.3128  -4.2339  -4.1278  -4.0980  -3.9983
    -3.9646  -3.9084  -3.8681  -3.8425  -3.7599  -3.7518  -3.7370  -3.7203
    -3.6785  -3.6429  -3.6227  -3.5525  -3.5264  -3.5196  -3.4982  -3.4813
    -3.3916  -3.3497  -3.2751  -3.2229  -3.1852  -3.1424  -3.1170  -3.0881
    -3.0626  -2.9261  -2.9078  -2.8651  -2.7797  -2.7304  -2.6993  -2.6796
    -2.6263  -2.5709  -2.5139  -2.4756  -2.4521  -2.3843  -2.3493  -2.3418
    -2.2940  -2.2741  -2.2239  -2.1940  -2.1816  -2.1636  -2.1198  -2.1082
    -2.0771  -2.0487  -2.0426  -2.0067  -1.9893  -1.9444  -1.9156  -1.8733
    -1.8237  -1.7979  -1.7668  -1.6774  -1.6475  -1.6378  -1.6093  -1.5769
    -1.5632  -1.5316  -1.4925  -1.4467  -1.4414  -1.4205  -1.3931  -1.3564
    -1.3221  -1.2592  -1.2369  -1.2256  -1.2021  -1.1864  -1.1178  -1.0875
    -1.0485  -1.0336  -1.0090  -0.9792  -0.9616  -0.9403  -0.9329  -0.9121
    -0.8996  -0.8635  -0.8435  -0.8333  -0.8161  -0.7827  -0.7743  -0.7659
    -0.7538  -0.7212  -0.7061  -0.6737  -0.5178  -0.4832  -0.4422  -0.4068
    -0.3715  -0.3108  -0.3040  -0.2777  -0.2504  -0.2229  -0.1878  -0.1780
    -0.1622  -0.1393  -0.0968  -0.0871  -0.0463  -0.0165  -0.0058   0.0866
     0.0963   0.1101   0.1732   0.1841   0.2703   0.3135   0.3267   0.3619
     0.4068   0.4342   0.4560   0.4806   0.5092   0.5259   0.5519   0.5591
     0.6310   0.6512   0.6731   0.6800   0.7362   0.7549   0.7924   0.8002
     0.8679   0.9187   0.9951   1.0340   1.0941   1.1473   1.1991   1.2180
     1.2647   1.2836   1.3464   1.3552   1.3952   1.4437   1.4870   1.5046
     1.5338   1.5575   1.5715   1.6202   1.6353   1.6930   1.7043   1.7101
     1.7293   1.7602   1.7729   1.7865   1.8573   1.8837   1.9347   1.9738
     1.9990   2.0097   2.0572   2.0837   2.1352   2.2433   2.7055   2.8830
     3.0677   3.1682   3.2288   3.4051   3.4628   3.4790   3.6592   3.8436
     4.0209   4.1904   4.2892   4.3065   4.6475   4.6645   4.8352   4.8839
     4.9905   5.0532   5.1293   5.2250   5.4509   5.5469   5.7400   5.9791
     6.0789   6.2297   6.2768

          k = 0.2000-0.3464 0.0000 ( 92662 PWs)   bands (ev):

   -19.2898 -12.5163  -8.8612  -6.5582  -6.5314  -5.4289  -5.3469  -5.2893
    -5.1563  -4.8598  -4.3467  -4.2740  -4.2589  -4.2525  -4.2160  -4.2025
    -4.1584  -4.0791  -4.0694  -4.0155  -3.8604  -3.7023  -3.6707  -3.6677
    -3.6527  -3.6266  -3.5636  -3.5173  -3.4540  -3.4487  -3.4099  -3.3574
    -3.3298  -3.3114  -3.2861  -3.2309  -3.2139  -3.1872  -3.1722  -3.1276
    -3.0482  -3.0066  -2.8227  -2.8019  -2.7489  -2.7147  -2.6879  -2.6588
    -2.6242  -2.5912  -2.5654  -2.5280  -2.4532  -2.4252  -2.4033  -2.3587
    -2.3284  -2.2928  -2.2710  -2.2066  -2.1816  -2.1509  -2.1179  -2.0947
    -2.0292  -1.9645  -1.9442  -1.9073  -1.8657  -1.8422  -1.7998  -1.7897
    -1.7695  -1.7349  -1.6998  -1.6021  -1.5843  -1.5786  -1.5513  -1.5339
    -1.5162  -1.4459  -1.4197  -1.3912  -1.3715  -1.2988  -1.2730  -1.2641
    -1.2430  -1.2308  -1.2234  -1.2085  -1.1694  -1.1509  -1.1318  -1.1254
    -1.0949  -1.0148  -1.0105  -0.9797  -0.9658  -0.9569  -0.9381  -0.9125
    -0.8825  -0.8626  -0.8506  -0.8320  -0.8228  -0.8184  -0.7922  -0.7732
    -0.6834  -0.6796  -0.6213  -0.5823  -0.5513  -0.5338  -0.5030  -0.4071
    -0.3830  -0.3333  -0.2884  -0.2766  -0.2073  -0.1790  -0.1635  -0.1303
    -0.0996  -0.0842  -0.0714  -0.0186  -0.0072   0.0009   0.0752   0.0979
     0.1594   0.2004   0.2173   0.2432   0.2645   0.2878   0.3430   0.3741
     0.4113   0.4438   0.4691   0.5341   0.5545   0.5804   0.5966   0.6190
     0.6711   0.7178   0.7378   0.7812   0.8020   0.8099   0.8268   0.8469
     0.8582   0.8803   0.9042   0.9714   1.0179   1.0952   1.1267   1.1725
     1.2509   1.3464   1.3516   1.3615   1.3942   1.4087   1.4603   1.5024
     1.5170   1.5272   1.5576   1.5683   1.5809   1.6037   1.6169   1.6455
     1.6693   1.7087   1.7347   1.7588   1.7763   1.8024   1.8495   1.9199
     1.9782   2.0295   2.0360   2.0540   2.0915   2.1241   2.1850   2.2471
     2.4379   2.6799   2.7794   2.9642   3.0801   3.2946   3.3223   3.4602
     3.7816   3.8769   4.1024   4.2214   4.2711   4.3710   4.5531   5.1262
     5.3325   5.4831   5.5680   5.7362   5.8204   5.9884   6.1461   6.1662
     6.2584   6.3902   6.5436

          k = 0.4000-0.2309 0.0000 ( 92642 PWs)   bands (ev):

   -19.2898 -12.5162  -8.8588  -6.5492  -6.4071  -5.7930  -5.3158  -5.1243
    -4.8640  -4.7422  -4.7029  -4.5606  -4.3464  -4.2004  -4.0947  -4.0738
    -4.0256  -3.9790  -3.9439  -3.8594  -3.7924  -3.7818  -3.7579  -3.6591
    -3.6429  -3.6211  -3.5924  -3.5703  -3.5446  -3.5108  -3.4695  -3.4583
    -3.4042  -3.3731  -3.1860  -3.1670  -3.1554  -3.1383  -3.0722  -3.0164
    -2.9259  -2.9207  -2.9084  -2.8872  -2.7878  -2.7414  -2.7323  -2.6753
    -2.6080  -2.5619  -2.5529  -2.5170  -2.4802  -2.4648  -2.4228  -2.4086
    -2.3726  -2.3630  -2.2662  -2.2350  -2.2186  -2.1897  -2.1183  -2.0718
    -2.0472  -2.0052  -1.9890  -1.9737  -1.9108  -1.8416  -1.8074  -1.7844
    -1.7555  -1.7363  -1.6749  -1.6689  -1.6522  -1.5675  -1.5412  -1.5286
    -1.4804  -1.4365  -1.4351  -1.3853  -1.3682  -1.3429  -1.3107  -1.2953
    -1.2855  -1.2728  -1.2609  -1.2544  -1.2299  -1.2157  -1.1475  -1.1299
    -1.1004  -1.0819  -1.0715  -1.0322  -1.0082  -0.9655  -0.9360  -0.8964
    -0.8830  -0.8611  -0.8363  -0.8248  -0.7810  -0.7605  -0.7238  -0.6648
    -0.6231  -0.6119  -0.5808  -0.5355  -0.4916  -0.4594  -0.3937  -0.3538
    -0.3345  -0.3267  -0.2692  -0.2314  -0.2188  -0.2059  -0.1885  -0.1687
    -0.1216  -0.1110  -0.0961  -0.0705  -0.0665  -0.0391  -0.0209   0.0248
     0.0834   0.0893   0.1388   0.1702   0.2190   0.2442   0.2959   0.3716
     0.3823   0.4463   0.4705   0.4979   0.5796   0.5820   0.6506   0.6590
     0.7001   0.7215   0.7324   0.7593   0.7997   0.8025   0.8318   0.8992
     0.9055   0.9570   0.9770   1.0025   1.0069   1.0578   1.1149   1.1557
     1.2193   1.2471   1.2734   1.3033   1.3782   1.3864   1.4077   1.4109
     1.4418   1.4741   1.5291   1.5393   1.5548   1.5855   1.6757   1.6864
     1.7081   1.7187   1.7350   1.7454   1.7844   1.8114   1.9353   1.9593
     1.9762   1.9805   2.0004   2.0832   2.2154   2.3129   2.4072   2.5193
     2.7043   2.9980   3.0153   3.1572   3.2761   3.2947   3.6634   3.6966
     3.8646   4.0246   4.2695   4.3092   4.3867   4.4389   4.5227   4.6983
     4.8104   5.1248   5.1797   5.4421   5.5928   5.8200   6.0903   6.1184
     6.5097   6.6560   6.7013

          k = 0.4000-0.0000 0.0000 ( 92662 PWs)   bands (ev):

   -19.2898 -12.5163  -8.8610  -6.5679  -6.5213  -5.4118  -5.3453  -5.2904
    -5.1761  -4.8578  -4.3722  -4.2775  -4.2560  -4.2485  -4.2097  -4.2020
    -4.1594  -4.0846  -4.0687  -4.0112  -3.8234  -3.7127  -3.6789  -3.6655
    -3.6571  -3.6165  -3.5640  -3.5040  -3.4545  -3.4477  -3.4132  -3.3577
    -3.3312  -3.3177  -3.2883  -3.2342  -3.2106  -3.1883  -3.1663  -3.1251
    -3.0404  -3.0025  -2.8555  -2.8122  -2.7591  -2.7103  -2.6847  -2.6618
    -2.6256  -2.5919  -2.5713  -2.5380  -2.4573  -2.4356  -2.4022  -2.3573
    -2.3210  -2.2838  -2.2659  -2.2082  -2.1780  -2.1595  -2.1214  -2.0948
    -2.0124  -1.9671  -1.9553  -1.9122  -1.8575  -1.8197  -1.8026  -1.7846
    -1.7732  -1.7438  -1.7040  -1.6006  -1.5829  -1.5710  -1.5508  -1.5208
    -1.5095  -1.4469  -1.4228  -1.3893  -1.3707  -1.3028  -1.2788  -1.2685
    -1.2439  -1.2297  -1.2174  -1.2070  -1.1661  -1.1603  -1.1274  -1.1200
    -1.0891  -1.0220  -1.0105  -0.9800  -0.9655  -0.9577  -0.9420  -0.9129
    -0.8801  -0.8619  -0.8466  -0.8317  -0.8253  -0.8181  -0.7978  -0.7735
    -0.6858  -0.6775  -0.6215  -0.5687  -0.5533  -0.5237  -0.5049  -0.3944
    -0.3856  -0.3416  -0.2903  -0.2731  -0.2052  -0.1877  -0.1575  -0.1263
    -0.1160  -0.0847  -0.0603  -0.0296  -0.0045   0.0060   0.0718   0.0874
     0.1628   0.2033   0.2224   0.2425   0.2640   0.2936   0.3542   0.3709
     0.4165   0.4441   0.4663   0.5383   0.5536   0.5828   0.6003   0.6196
     0.6751   0.7103   0.7352   0.7807   0.7999   0.8089   0.8256   0.8453
     0.8558   0.8766   0.9033   0.9685   1.0180   1.1009   1.1234   1.1735
     1.2556   1.3417   1.3508   1.3653   1.3909   1.4145   1.4616   1.4993
     1.5159   1.5300   1.5573   1.5700   1.5835   1.6044   1.6179   1.6451
     1.6658   1.7083   1.7352   1.7585   1.7776   1.8025   1.8509   1.9245
     1.9707   2.0182   2.0303   2.0503   2.0887   2.1253   2.1821   2.2493
     2.4169   2.6858   2.7807   3.0057   3.0632   3.2769   3.3196   3.4142
     3.8188   3.8804   4.0982   4.2176   4.2845   4.4172   4.5424   5.1224
     5.3080   5.4814   5.5852   5.6956   5.8022   6.0202   6.1463   6.1965
     6.2393   6.3319   6.5938

          k = 0.4000 0.2309 0.0000 ( 92642 PWs)   bands (ev):

   -19.2898 -12.5162  -8.8586  -6.5566  -6.3997  -5.7818  -5.2614  -5.1868
    -4.8761  -4.7362  -4.7102  -4.5788  -4.3450  -4.2110  -4.1016  -4.0699
    -4.0033  -3.9911  -3.8935  -3.8769  -3.7872  -3.7798  -3.7578  -3.6727
    -3.6416  -3.6097  -3.5817  -3.5729  -3.5447  -3.5117  -3.4664  -3.4462
    -3.4083  -3.3423  -3.1888  -3.1684  -3.1562  -3.1429  -3.0750  -3.0009
    -2.9295  -2.9260  -2.9076  -2.8937  -2.8282  -2.7887  -2.7233  -2.6858
    -2.6106  -2.5739  -2.5484  -2.5215  -2.4677  -2.4621  -2.4280  -2.4018
    -2.3939  -2.3569  -2.2660  -2.2340  -2.2214  -2.1835  -2.1125  -2.0790
    -2.0477  -2.0133  -1.9924  -1.9675  -1.9363  -1.8386  -1.8085  -1.7727
    -1.7479  -1.7348  -1.6792  -1.6661  -1.6429  -1.5510  -1.5246  -1.5151
    -1.4791  -1.4409  -1.4355  -1.3919  -1.3681  -1.3461  -1.3249  -1.2989
    -1.2866  -1.2742  -1.2633  -1.2555  -1.2239  -1.2213  -1.1501  -1.1318
    -1.1014  -1.0744  -1.0694  -1.0350  -1.0071  -0.9646  -0.9296  -0.8898
    -0.8868  -0.8553  -0.8262  -0.8124  -0.7776  -0.7553  -0.7230  -0.6628
    -0.6238  -0.6115  -0.5793  -0.5279  -0.4882  -0.4433  -0.4006  -0.3496
    -0.3307  -0.3213  -0.2749  -0.2332  -0.2303  -0.2174  -0.1731  -0.1592
    -0.1346  -0.1089  -0.1037  -0.0707  -0.0564  -0.0401  -0.0251   0.0166
     0.0849   0.0965   0.1472   0.1741   0.2193   0.2492   0.2989   0.3825
     0.3840   0.4586   0.4642   0.4951   0.5678   0.5888   0.6478   0.6586
     0.7055   0.7216   0.7261   0.7616   0.7946   0.7980   0.8270   0.8983
     0.9013   0.9575   0.9733   1.0067   1.0153   1.0628   1.1151   1.1572
     1.2199   1.2490   1.2730   1.2975   1.3823   1.3857   1.4034   1.4154
     1.4421   1.4774   1.5315   1.5390   1.5583   1.5909   1.6766   1.6860
     1.7049   1.7149   1.7293   1.7464   1.7737   1.8038   1.9297   1.9508
     1.9723   1.9795   1.9910   2.0847   2.2158   2.2995   2.4200   2.5026
     2.6927   3.0033   3.0118   3.1283   3.2829   3.2970   3.6547   3.7593
     3.8480   4.0148   4.2728   4.2970   4.3938   4.4389   4.5305   4.7064
     4.8088   5.1089   5.1834   5.4446   5.6141   5.7628   6.1132   6.1248
     6.5026   6.6570   6.6648

          k = 0.4000-0.6928 0.0000 ( 92664 PWs)   bands (ev):

   -19.2898 -12.5160  -8.8549  -6.5524  -6.0364  -5.9940  -5.4471  -5.2144
    -4.9617  -4.8588  -4.6421  -4.2963  -4.2297  -4.1415  -4.0985  -3.9947
    -3.9671  -3.9129  -3.8744  -3.8451  -3.7542  -3.7506  -3.7286  -3.7219
    -3.6744  -3.6273  -3.6205  -3.5500  -3.5273  -3.5199  -3.4996  -3.4818
    -3.3916  -3.3318  -3.2759  -3.2225  -3.1899  -3.1426  -3.1202  -3.0882
    -3.0657  -2.9485  -2.9085  -2.8566  -2.8098  -2.7381  -2.7009  -2.6756
    -2.6294  -2.5728  -2.5354  -2.4639  -2.4454  -2.3841  -2.3482  -2.3257
    -2.2938  -2.2635  -2.2320  -2.2253  -2.1904  -2.1483  -2.1193  -2.0882
    -2.0749  -2.0505  -2.0433  -2.0067  -1.9845  -1.9548  -1.9348  -1.8616
    -1.8092  -1.7997  -1.7702  -1.6713  -1.6460  -1.6335  -1.6028  -1.5790
    -1.5576  -1.5293  -1.4926  -1.4449  -1.4383  -1.4298  -1.3926  -1.3556
    -1.3179  -1.2663  -1.2347  -1.2270  -1.1988  -1.1856  -1.1062  -1.0880
    -1.0508  -1.0417  -1.0096  -0.9821  -0.9592  -0.9359  -0.9310  -0.9069
    -0.8969  -0.8646  -0.8535  -0.8273  -0.8179  -0.7833  -0.7705  -0.7639
    -0.7564  -0.7228  -0.7090  -0.6692  -0.5118  -0.4863  -0.4414  -0.4028
    -0.3816  -0.3094  -0.2965  -0.2759  -0.2487  -0.2252  -0.1835  -0.1788
    -0.1651  -0.1376  -0.1103  -0.0704  -0.0580  -0.0149  -0.0029   0.0860
     0.0970   0.1039   0.1778   0.1825   0.2722   0.3123   0.3336   0.3648
     0.4031   0.4367   0.4592   0.4808   0.5111   0.5271   0.5469   0.5587
     0.6321   0.6478   0.6746   0.6762   0.7377   0.7521   0.7940   0.8017
     0.8665   0.9195   1.0020   1.0344   1.0897   1.1495   1.1990   1.2166
     1.2661   1.2816   1.3465   1.3495   1.3976   1.4458   1.4881   1.5070
     1.5339   1.5592   1.5739   1.6152   1.6324   1.6894   1.7023   1.7112
     1.7299   1.7598   1.7749   1.7874   1.8585   1.8868   1.9361   1.9713
     1.9978   2.0024   2.0561   2.0803   2.1356   2.2446   2.6540   2.9082
     3.0653   3.1680   3.2370   3.3922   3.4663   3.4852   3.6760   3.8445
     4.0218   4.1782   4.3000   4.3067   4.6492   4.6628   4.8444   4.8654
     4.9667   5.0508   5.0901   5.3164   5.4529   5.5528   5.7530   5.9192
     6.0759   6.2503   6.2782

          k = 0.4000-0.4619 0.0000 ( 92664 PWs)   bands (ev):

   -19.2898 -12.5160  -8.8551  -6.5493  -6.0477  -5.9935  -5.4264  -5.2627
    -4.9498  -4.8015  -4.6558  -4.3175  -4.2362  -4.1222  -4.0977  -3.9989
    -3.9634  -3.9057  -3.8661  -3.8396  -3.7665  -3.7526  -3.7425  -3.7189
    -3.6818  -3.6457  -3.6244  -3.5525  -3.5257  -3.5188  -3.4952  -3.4826
    -3.3946  -3.3617  -3.2743  -3.2199  -3.1842  -3.1428  -3.1153  -3.0874
    -3.0630  -2.9231  -2.9068  -2.8610  -2.7816  -2.7312  -2.7015  -2.6821
    -2.6227  -2.5720  -2.5120  -2.4780  -2.4434  -2.3889  -2.3505  -2.3374
    -2.2921  -2.2646  -2.2225  -2.2125  -2.1880  -2.1542  -2.1198  -2.0951
    -2.0785  -2.0483  -2.0402  -2.0072  -1.9822  -1.9428  -1.9243  -1.8735
    -1.8130  -1.7985  -1.7666  -1.6756  -1.6469  -1.6352  -1.6123  -1.5782
    -1.5687  -1.5349  -1.4969  -1.4472  -1.4389  -1.4207  -1.3930  -1.3557
    -1.3101  -1.2588  -1.2395  -1.2212  -1.2003  -1.1915  -1.1229  -1.0861
    -1.0464  -1.0343  -1.0110  -0.9792  -0.9639  -0.9398  -0.9361  -0.9169
    -0.9026  -0.8678  -0.8404  -0.8321  -0.8122  -0.7825  -0.7761  -0.7638
    -0.7528  -0.7239  -0.7065  -0.6727  -0.5217  -0.4946  -0.4449  -0.4074
    -0.3828  -0.3096  -0.2922  -0.2756  -0.2503  -0.2260  -0.1879  -0.1750
    -0.1618  -0.1378  -0.1097  -0.0735  -0.0547  -0.0067   0.0031   0.0850
     0.0930   0.1004   0.1715   0.1782   0.2758   0.3103   0.3268   0.3665
     0.4079   0.4346   0.4556   0.4788   0.5090   0.5260   0.5529   0.5601
     0.6314   0.6519   0.6747   0.6808   0.7370   0.7559   0.7914   0.7985
     0.8648   0.9181   0.9943   1.0335   1.0939   1.1491   1.2007   1.2186
     1.2665   1.2833   1.3469   1.3539   1.3960   1.4428   1.4860   1.5027
     1.5348   1.5555   1.5710   1.6209   1.6369   1.6911   1.7049   1.7098
     1.7293   1.7603   1.7726   1.7848   1.8573   1.8829   1.9367   1.9754
     2.0032   2.0103   2.0587   2.0867   2.1357   2.2431   2.6989   2.8875
     3.0664   3.1682   3.2302   3.4023   3.4618   3.4782   3.6631   3.8454
     4.0217   4.1905   4.2911   4.3059   4.6477   4.6637   4.8321   4.8896
     4.9937   5.0520   5.1251   5.2405   5.4471   5.5462   5.7584   5.9355
     6.0929   6.2264   6.2820

     the Fermi energy is     1.7780 ev

!    total energy              =  -27838.41933750 Ry

     total all-electron energy =  -1326949.559835 Ry
     estimated scf accuracy    <       0.00000044 Ry
     smearing contrib. (-TS)   =       0.00492183 Ry
     internal energy E=F+TS    =  -27838.42425933 Ry

     The total energy is F=E-TS. E is the sum of the following terms:
     one-electron contribution =  -29256.55545309 Ry
     hartree contribution      =   14932.09269969 Ry
     xc contribution           =    -909.60449034 Ry
     ewald contribution        =   12892.85362523 Ry
     one-center paw contrib.   =  -25497.21064082 Ry

     convergence has been achieved in  21 iterations

     negative rho (up, down):  1.338E-02 0.000E+00

     Forces acting on atoms (cartesian axes, Ry/au):

     atom    1 type  1   force =    -0.00093689   -0.00062997   -0.00421785
     atom    2 type  1   force =     0.00128668   -0.00051109   -0.00387990
     atom    3 type  1   force =     0.00028304   -0.00032995   -0.00418887
     atom    4 type  1   force =     0.00024320    0.00114622   -0.00393351
     atom    5 type  1   force =     0.00021792   -0.00000459   -0.00337407
     atom    6 type  1   force =     0.00026027   -0.00001027   -0.00341844
     atom    7 type  1   force =    -0.00001293    0.00029701   -0.00417602
     atom    8 type  1   force =     0.00019579    0.00005407   -0.00337336
     atom    9 type  1   force =     0.00052698    0.00020836   -0.00411374
     atom   10 type  1   force =    -0.00046306   -0.00020498   -0.00595093
     atom   11 type  1   force =    -0.00236489    0.00094459    0.00539410
     atom   12 type  1   force =     0.00142747    0.00078693    0.00436024
     atom   13 type  1   force =    -0.00040459   -0.00214687    0.00545312
     atom   14 type  1   force =    -0.00077084   -0.00006160    0.01061110
     atom   15 type  1   force =    -0.00027550   -0.00208014    0.00426435
     atom   16 type  1   force =     0.00123419    0.00106238    0.00462556
     atom   17 type  1   force =    -0.00221133    0.00112277    0.00437122
     atom   18 type  1   force =    -0.00044324    0.00002817    0.00221125
     atom   19 type  1   force =     0.00031334   -0.00005500   -0.00008817
     atom   20 type  1   force =     0.00002642   -0.00007172   -0.00027758
     atom   21 type  1   force =    -0.00000119   -0.00033264   -0.00021935
     atom   22 type  1   force =    -0.00013042   -0.00013255    0.00031141
     atom   23 type  1   force =    -0.00013110    0.00006256   -0.00047875
     atom   24 type  1   force =     0.00030548    0.00026291    0.00013695
     atom   25 type  1   force =    -0.00010974   -0.00005305    0.00010183
     atom   26 type  1   force =     0.00005692    0.00016023   -0.00021617
     atom   27 type  1   force =     0.00011529    0.00004998    0.00007394
     atom   28 type  1   force =    -0.00011801   -0.00025284    0.00005800
     atom   29 type  1   force =     0.00000572   -0.00023119    0.00024801
     atom   30 type  1   force =     0.00008485   -0.00032528    0.00003914
     atom   31 type  1   force =     0.00001804    0.00007462    0.00018096
     atom   32 type  1   force =     0.00023584    0.00027639    0.00006102
     atom   33 type  1   force =     0.00027531   -0.00007353   -0.00003214
     atom   34 type  1   force =     0.00022218   -0.00008173    0.00001229
     atom   35 type  1   force =    -0.00017661   -0.00033143   -0.00030221
     atom   36 type  1   force =     0.00051832    0.00026324   -0.00011466
     atom   37 type  2   force =     0.00151188    0.00153647   -0.00148509
     atom   38 type  2   force =    -0.00099020   -0.00077521    0.00155962
     atom   39 type  3   force =     0.00233520   -0.00548017    0.01620780
     atom   40 type  4   force =     0.00011790   -0.00031371   -0.00000338
     atom   41 type  4   force =     0.00021221    0.00019526   -0.00012044
     atom   42 type  4   force =    -0.00248989    0.00595738   -0.01631727

     Total force =     0.024889     Total SCF correction =     0.002079

     negative rho (up, down):  1.338E-02 0.000E+00

     negative rho (up, down):  1.338E-02 0.000E+00

     negative rho (up, down):  1.338E-02 0.000E+00

     negative rho (up, down):  1.338E-02 0.000E+00

     negative rho (up, down):  1.338E-02 0.000E+00

     negative rho (up, down):  1.338E-02 0.000E+00

     negative rho (up, down):  1.338E-02 0.000E+00

     negative rho (up, down):  1.338E-02 0.000E+00

     negative rho (up, down):  1.338E-02 0.000E+00

     negative rho (up, down):  1.338E-02 0.000E+00

     negative rho (up, down):  1.338E-02 0.000E+00

     negative rho (up, down):  1.338E-02 0.000E+00

     negative rho (up, down):  1.338E-02 0.000E+00

     negative rho (up, down):  1.338E-02 0.000E+00

     negative rho (up, down):  1.338E-02 0.000E+00

     negative rho (up, down):  1.338E-02 0.000E+00

     negative rho (up, down):  1.338E-02 0.000E+00

     negative rho (up, down):  1.338E-02 0.000E+00

     negative rho (up, down):  1.338E-02 0.000E+00

     negative rho (up, down):  1.338E-02 0.000E+00

     negative rho (up, down):  1.338E-02 0.000E+00

     negative rho (up, down):  1.338E-02 0.000E+00

     negative rho (up, down):  1.338E-02 0.000E+00

     negative rho (up, down):  1.338E-02 0.000E+00

     negative rho (up, down):  1.338E-02 0.000E+00

     negative rho (up, down):  1.338E-02 0.000E+00

     negative rho (up, down):  1.338E-02 0.000E+00

     negative rho (up, down):  1.338E-02 0.000E+00

     negative rho (up, down):  1.338E-02 0.000E+00

     negative rho (up, down):  1.338E-02 0.000E+00

     negative rho (up, down):  1.338E-02 0.000E+00

     negative rho (up, down):  1.338E-02 0.000E+00

     negative rho (up, down):  1.338E-02 0.000E+00

     negative rho (up, down):  1.338E-02 0.000E+00
 BEEFens 2000 ensemble energies
             -0.608812248524379E+02
             -0.362785341000574E+01
             -0.158873541308508E+02
              0.431079928882296E+02
             -0.221901775287052E+02
             -0.205948451934759E+02
             -0.353819899558305E+02
             -0.868315995961247E+02
             -0.466585405954783E+02
             -0.474495934482753E+02
             -0.370528175961581E+02
              0.227306071552896E+01
              0.406951230925520E+01
              0.763034442269563E+01
              0.267763983222775E+01
              0.476556211700479E+02
             -0.209721706592794E+02
             -0.230923789374883E+02
              0.193580745284900E+02
             -0.112773127688543E+03
              0.538347526536622E+02
             -0.290654249360821E+02
             -0.337849923823892E+01
             -0.114564516993991E+02
             -0.884665972962398E+01
             -0.467802501198176E+01
              0.885888747727702E+02
             -0.187661792282632E+02
             -0.904730007283911E+01
             -0.520239477437505E+02
              0.818330952427846E+02
             -0.187805524097307E+02
             -0.376524499208430E+02
              0.250105487908236E+02
             -0.286187957562890E+01
              0.164749776988652E+02
             -0.486207420403412E+01
              0.108283197867460E+02
              0.289121466633128E+02
             -0.103651566375009E+03
              0.560367379423822E+02
              0.142714907011741E+02
             -0.173795507778306E+01
             -0.362726516391334E+02
              0.123582737529229E+02
             -0.147354711534565E+02
              0.400141464265666E+02
              0.366112486598425E+02
             -0.309055233325806E+02
             -0.276179184746676E+02
             -0.329389070155161E+02
             -0.353285259578989E+02
              0.136608373320927E+02
             -0.492788716357505E+02
              0.116116613130720E+02
              0.625053593242010E+02
              0.637734451196012E+02
              0.357028672651714E+02
              0.154824688642761E+02
              0.271445333812229E+02
              0.894577827919161E+02
              0.213534849801711E+02
             -0.550595394915859E+02
             -0.157484914434719E+02
             -0.236849670821942E+02
              0.632069663983450E+02
             -0.776243724140865E+02
             -0.673808856713985E+02
             -0.260348691404447E+02
             -0.648768848818145E+01
             -0.472458081995134E+02
              0.271639379543755E+02
              0.805163196706053E+01
              0.872606689785863E+01
             -0.398474410814911E+02
             -0.348158600851773E+02
             -0.543819085364410E+02
              0.391835111515536E+02
             -0.297169885367257E+02
              0.266030378707330E+02
             -0.716150598495586E+01
             -0.319112906826089E+02
             -0.578446249140572E+02
             -0.177236776531683E+02
             -0.910425047945114E+01
             -0.125492784507786E+02
              0.413559629910460E+02
              0.685085648817369E+02
             -0.387064125623003E+02
             -0.797592598405309E+02
             -0.220198613466739E+02
              0.111908247120595E+03
             -0.594350452432559E+02
              0.357262490198775E+02
             -0.960795953743946E+01
             -0.665393266840421E+02
              0.255287615206568E+02
              0.399350529268359E+02
             -0.199315598473498E+02
              0.401291559718412E+02
             -0.296885358203224E+02
             -0.480013322594145E+02
              0.869096079527419E+02
              0.455677444167725E+02
              0.337565420240156E+02
              0.146905620074069E+02
              0.206337324341237E+02
              0.859309012111539E+02
             -0.257554277610265E+02
              0.788692036960708E+01
             -0.142886758171496E+03
              0.182006480951659E+02
             -0.718606067523562E+02
              0.151427588018353E+02
              0.205395440893979E+02
             -0.333973049696313E+02
             -0.559119135436422E+02
              0.655808514151749E+01
             -0.305105545378559E+02
              0.309343630563738E+02
             -0.531488395420735E+02
              0.170160537969036E+01
             -0.358200734416571E+02
             -0.425416125064982E+01
             -0.106405783294130E+01
              0.181639564883785E+02
              0.143236443668889E+01
             -0.654073737678164E+01
              0.592450552784189E+02
              0.911440629825019E+02
              0.485802851909876E+02
              0.833089075886120E+02
             -0.115559776642977E+02
              0.143600149864822E+02
              0.543069795726384E+02
             -0.111164234697948E+02
             -0.738476744959971E+02
             -0.385419429137271E+02
             -0.523428480355289E+02
             -0.277712664627332E+02
              0.328032534214987E+02
             -0.117194966124239E+03
             -0.187792271444781E+02
              0.415585275343464E+02
             -0.387529463021727E+02
             -0.366712709751762E+02
              0.545779213076028E+02
              0.402354683822327E+02
             -0.355123345983116E+02
              0.138293457507553E+02
             -0.274047558491126E+02
              0.344492895224269E+02
              0.448292168782802E+01
              0.211565943644707E+02
             -0.887747728445848E+02
             -0.481831016298532E+02
             -0.998228314445441E+01
              0.321877268523753E+01
             -0.368132160742563E+02
              0.106382195545513E+03
             -0.231604134631351E+02
             -0.399659813634939E+02
              0.390332408864301E+02
             -0.495922082358571E+02
             -0.364382048202787E+02
              0.325659466855903E+02
              0.124762994066326E+02
              0.164752966216533E+02
              0.116843645649210E+02
             -0.133198571242337E+02
              0.225678314128492E+02
              0.592116466317443E+02
             -0.312745784501936E+02
              0.163009383526576E+02
              0.937507134130211E+02
              0.341854297515257E+02
             -0.731902867583722E+01
             -0.189255567105339E+02
              0.153880062909679E+03
             -0.164788513804789E+02
              0.364438713539173E+02
              0.195288421133789E+02
              0.362804188003998E+02
              0.895245017402463E+02
              0.544577819673682E+02
             -0.242005018564649E+01
              0.228494073702476E+02
              0.486605986321655E+02
              0.365045412400809E+02
             -0.527630804546374E+02
              0.939137816984941E+02
             -0.828637371710181E+02
             -0.198776947667462E+02
              0.584798718360879E+02
              0.677887203006675E+01
              0.790556215678475E+01
              0.342018155358642E+02
              0.299803928476346E+02
              0.354903768025514E+02
             -0.639800011170219E+02
              0.288951173011867E+01
             -0.298408257956431E+02
             -0.874575818288103E+01
             -0.146240254689428E+01
             -0.726722602204153E+01
             -0.417304525496593E+01
              0.862173232455886E+02
             -0.101237220056516E+02
             -0.277461034196719E+02
             -0.496791639282742E+01
              0.140299401860999E+02
             -0.566159572601038E+02
             -0.408706981550932E+02
             -0.383182426060916E+02
             -0.632536610225698E+02
             -0.170330556381248E+02
             -0.448887487773953E+02
              0.164204995231557E+02
             -0.240625193396291E+01
             -0.104840124204809E+02
             -0.937738693413746E+01
              0.809755055304049E+01
             -0.243521141586066E+02
              0.691455876977184E+02
             -0.810066629478357E+02
             -0.141602103543909E+02
             -0.174548719950782E+02
              0.182419287960071E+02
              0.214907587272295E+02
             -0.465380567408070E+02
             -0.202589054413654E+02
              0.442329771635829E+02
             -0.276862630907540E+02
              0.187447628713304E+02
              0.384079894480162E+02
             -0.323591520807315E+01
              0.114548425545647E+03
             -0.230787224380966E+02
             -0.342250275764263E+02
              0.580718382859806E+01
             -0.229065610524668E+02
              0.529431283713265E+02
             -0.338485868114018E+02
              0.106716985433663E+02
              0.642772340321195E+02
             -0.126799618063177E+02
              0.120653775973983E+03
              0.126329138959832E+03
             -0.652231055210966E+02
              0.592567422631398E+02
              0.167018012254500E+02
             -0.519608831473688E+02
              0.216835440910175E+02
              0.355173435846133E+02
              0.364090535293451E+02
              0.136300444913269E+01
              0.159900611192886E+02
              0.698145510414196E+02
             -0.247670884367805E+02
              0.181614316451313E+02
              0.741583554762609E+02
             -0.373784433010819E+02
             -0.130225218307112E+02
              0.510428056059041E+02
              0.298330000093824E+02
              0.783004416746493E+02
              0.223515885467506E+02
              0.627891798419881E+01
              0.281228009229079E+02
              0.384612768522075E+02
             -0.473268189874241E+02
              0.332411475368673E+01
              0.130363280806617E+02
              0.114180527429675E+02
              0.221239469312591E+02
             -0.576894501441253E+02
              0.367287419119613E+02
             -0.445421528356078E+02
             -0.348482969351450E+02
              0.178509687706156E+02
             -0.181757706636543E+02
              0.556972572201076E+02
             -0.257098549077174E+02
              0.267816523582416E+02
              0.369194165545484E+02
              0.831936108363050E+02
              0.576513822369542E+02
              0.463410774891635E+02
             -0.106060736962988E+02
             -0.393643954513931E+01
             -0.333127728263843E+02
              0.753241060386457E+02
              0.799905182680359E+02
              0.363253154191190E+02
             -0.192840462398452E+02
              0.513591417578081E+02
             -0.163050317774005E+02
              0.215645130995706E+02
              0.616601123067247E+02
              0.213941842088047E+01
             -0.104604373433791E+02
             -0.283826239022105E+02
             -0.513461123061886E+02
              0.948840396833704E+02
              0.441255346378545E+02
             -0.561159118321682E+02
             -0.970447215601430E+01
              0.250831248084046E+02
             -0.100099940110203E+02
              0.594295863415842E+02
              0.152700520442115E+02
              0.801882879019331E+02
              0.280437693837159E+02
             -0.265110469914165E+02
              0.249912817632980E+02
             -0.503669557900639E+01
             -0.324771937035786E+02
              0.133858601599221E+02
              0.206422105905735E+02
              0.935795197940839E+02
              0.800054106056904E+02
              0.552764509428683E+02
              0.733168367159988E+02
              0.802275170529899E+01
             -0.274748127353938E+02
              0.163624064087085E+02
             -0.369107107357973E+02
             -0.478075291662703E+02
             -0.565758709539679E+02
             -0.267565805025536E+02
             -0.110065677600939E+03
             -0.292543960822527E+02
             -0.840309981095211E+02
              0.210778771089390E+02
             -0.478593117161875E+02
              0.398244164128025E+02
             -0.944566295625730E+02
             -0.331185318783383E+02
              0.550229283298128E+02
              0.208513698272515E+02
             -0.833689845623626E+02
              0.633126691488289E+02
             -0.257711835588628E+02
              0.514244608907367E+02
             -0.243676783464611E+02
             -0.754219789369669E+02
              0.112395119163709E+02
             -0.613549088671814E+02
             -0.168542089045348E+02
             -0.146980046586234E+01
              0.419803753355546E+02
              0.127437796454997E+03
             -0.463338098859591E+02
             -0.363954447097968E+02
             -0.975810138881513E+00
             -0.130757909831142E+02
             -0.825440956459238E+02
             -0.598720695951583E+02
              0.519079082618169E+02
             -0.289792622360679E+02
              0.169828672540073E+02
             -0.491038464798234E+02
             -0.132307858192722E+02
             -0.438620894883116E+02
              0.567300629138955E+02
              0.151731798405951E+02
             -0.232448842362277E+02
             -0.127311043394300E+02
              0.670859684307298E+01
             -0.622232566551259E+01
              0.443061666988382E+02
             -0.252871171688064E+02
              0.277893338435683E+01
              0.340538378703928E+02
              0.171872525968880E+02
             -0.160371711056575E+02
              0.156814912802870E+03
              0.539796497533043E+02
              0.119509619457216E+01
              0.161790123204693E+02
             -0.616876977032164E+02
              0.316050398614714E+02
             -0.724412788860211E+02
             -0.253131596820197E+02
             -0.524685138423391E+02
             -0.220649270782824E+02
              0.571193908535191E+02
             -0.539063655540109E+02
              0.161566244149031E+02
             -0.409583725866264E+01
              0.388356741961439E+01
             -0.435015360272574E+02
             -0.479834861627922E+02
             -0.399086839013637E+01
             -0.426532524988592E+02
             -0.218152786693582E+02
             -0.439750092874160E+02
             -0.119618252762999E+02
             -0.360127764380044E+02
             -0.518369878829008E+02
              0.213662987510832E+02
             -0.209817034970912E+02
              0.188514053893559E+02
              0.979291003807084E+01
             -0.740640931827172E+02
             -0.550064141595729E+02
             -0.399629714852393E+02
              0.355530227344834E+02
              0.269560208920757E+01
             -0.628905743751004E+02
              0.587699796695185E+02
             -0.402637263872074E+02
              0.546749373395919E+02
             -0.290603870534606E+02
             -0.447720718574967E+02
              0.299441865605755E+02
             -0.660209868345830E+02
             -0.381294900775291E+02
              0.674833229497311E+02
              0.204649589858129E+02
             -0.361426824398040E+02
              0.491257215598743E+02
             -0.174643057407479E+02
             -0.324216016848612E+02
             -0.302883207900925E+02
             -0.502384432310369E+02
              0.250175894455999E+02
             -0.936179593887614E+02
             -0.843094716006722E+02
             -0.738136059674275E+01
             -0.307867787942812E+02
             -0.577512608009942E+02
              0.724363546072605E+02
              0.131997100270996E+03
             -0.362087227989064E+02
             -0.256048772909810E+01
             -0.639300806463558E+02
              0.652924807902765E+02
              0.171415221038519E+02
             -0.182213113695274E+02
             -0.411389883877575E+02
              0.149262920551712E+02
             -0.588356803559300E+02
             -0.198380845283355E+02
             -0.907855408496141E+02
              0.338169488945116E+02
              0.169439837583589E+02
              0.183792793593670E+01
             -0.707682607137519E+01
             -0.330793188911857E+02
             -0.761680022714842E+01
              0.125981665075541E+03
             -0.199683332993737E+02
             -0.439064403711964E+02
             -0.686274704181258E+02
              0.109740599344897E+02
             -0.343391928230975E+02
              0.593360927577022E+01
              0.262600961495696E+02
              0.102261481678728E+02
              0.279019186657640E+02
              0.120352626885220E+02
              0.631704158263498E+02
              0.317972911119476E+02
             -0.327776886353967E+02
              0.357287758927352E+02
              0.380680956043080E+02
              0.121287987634177E+02
              0.488402573487032E+02
             -0.225620565162732E+02
              0.768129629231702E+02
              0.172943539484396E+02
             -0.273302855827842E+02
             -0.724948151033390E+01
             -0.187063529062881E+02
              0.262662277142295E+02
             -0.235658363756404E+02
             -0.136824797050224E+00
             -0.853483911448268E+01
              0.812769458427198E+02
              0.502035775331213E+02
             -0.689593079285360E+02
             -0.476426708710042E+01
             -0.557300464614215E+02
             -0.160127406147300E+02
             -0.268957387108970E+02
              0.378834398761342E+01
              0.571575515698058E+00
             -0.258423943205632E+02
              0.818206250443140E+01
             -0.605244950205424E+01
             -0.128881538421800E+02
              0.862076844722045E+02
              0.182550661797099E+02
             -0.809944433265702E+02
             -0.459929206324010E+02
              0.948166019540013E+02
              0.278729919182383E+02
             -0.107069377856045E+02
              0.104953100620625E+03
             -0.195605808336351E+02
             -0.123414643514748E+02
             -0.541116486783051E+01
              0.107918082227272E+02
              0.273441417255944E+02
              0.780596493617799E+01
              0.306264099449213E+02
             -0.188540603106403E+02
             -0.304826344675880E+02
             -0.419363870704339E+02
             -0.478623348294218E+02
              0.465583795035780E+02
              0.127328902273472E+02
              0.388899403567197E+02
              0.133996418990063E+02
              0.858783146386358E+02
              0.157018594215711E+02
             -0.848813032125876E+02
             -0.335591565347338E+02
              0.134084340312811E+02
             -0.303683214368792E+02
              0.628645138418336E+02
             -0.892610508717598E+01
              0.149470575381438E+02
              0.498971710176016E+02
             -0.710105929206430E+02
              0.150258706686871E+03
              0.209325969277340E+02
              0.272082913842256E+02
              0.348881648203516E+02
              0.103947816543027E+02
             -0.158506456664657E+01
              0.359620645127773E+02
             -0.358303378775740E+02
              0.776251282774367E+02
              0.687404343572939E+02
             -0.407392053551834E+02
              0.150055055992705E+02
              0.672728988797294E+02
             -0.224705045292170E+02
              0.154881002525972E+02
              0.436590951947929E+02
              0.423870445630056E+02
             -0.787527957180999E+02
             -0.153164036714873E+02
             -0.357379459590003E+02
             -0.150748046142382E+01
             -0.765662026818503E+01
             -0.544044995051240E+01
             -0.181422799257465E+02
             -0.294770443973991E+02
              0.637089687624329E+01
              0.112164602007657E+02
              0.537539019677317E+02
             -0.391797912342528E+02
              0.375784702931392E+02
              0.440118072801891E+02
             -0.187202136345758E+02
              0.875393333896247E+02
             -0.700302601926638E+02
             -0.103564869500897E+03
             -0.661485041440733E+01
             -0.273062266667716E+01
              0.386257988755165E+01
              0.792273051932124E+02
             -0.107282313783460E+02
              0.418156435890723E+02
              0.445380031888889E+02
              0.386750618214048E+02
             -0.996708243402884E+01
              0.629861815377316E+02
             -0.134341145893240E+02
             -0.308645257426142E+02
             -0.480982005251160E+02
              0.589007787657843E+01
              0.370963594886272E+02
             -0.604873937911873E+01
              0.394365542616533E+02
             -0.177901886873593E+01
              0.657513529362526E+02
              0.188258474846142E+02
              0.100167826754723E+02
             -0.121772597238751E+02
              0.333393363781768E+02
              0.364140326255260E+02
              0.233423410010097E+02
             -0.518076331721858E+00
             -0.552326111912488E+02
              0.261942893768985E+02
              0.175955570873612E+02
              0.403912076346373E+02
              0.273490716817824E+02
              0.373708037453137E+02
             -0.606404266863069E+01
              0.252013403218345E+02
             -0.299456845536722E+02
             -0.197636823023174E+01
             -0.571214590351465E+02
             -0.309216881347770E+02
              0.380210434469881E+02
             -0.938865294213920E+02
              0.295550182432328E+02
              0.184498203001369E+02
              0.843227412006795E+02
             -0.301399546826535E+02
              0.330454343557259E+02
             -0.138229324127313E+02
             -0.465808697356843E+02
             -0.764227850295113E+02
             -0.529759560558929E+01
             -0.863175930646327E+02
              0.200286316552439E+02
             -0.248231984792892E+02
              0.306915292074000E+02
              0.237574873634552E+02
             -0.242044852200270E+02
             -0.266236454535550E+02
              0.392464253131202E+02
             -0.590186927664424E+02
             -0.117160298806111E+02
             -0.196838240995349E+02
              0.213357214871506E+02
             -0.892661543139707E+01
              0.365938302865158E+01
             -0.201403840532875E+02
              0.560881690110544E+02
             -0.441220829930650E+02
              0.792669050420329E+01
              0.587580929582897E+02
             -0.324564392970431E+02
              0.360632873911442E+01
             -0.882968534914119E+01
             -0.672072212606723E+02
             -0.484327322351662E+02
             -0.864176835135284E+01
              0.241770905564651E+02
              0.303501797701917E+02
              0.860515330486902E+01
             -0.418504074804321E+01
              0.152836258612153E+02
             -0.441519353582833E+02
              0.333643676506773E+01
             -0.532781018016972E+02
             -0.325689733677035E+02
              0.476554282924454E+02
             -0.296215666166243E+02
              0.624825852118732E+02
             -0.215330459126774E+02
              0.355050666292121E+02
              0.242697271432572E+02
             -0.646291986241819E+02
             -0.281540690692947E+02
              0.934673126018188E+01
             -0.373194067233548E+02
             -0.340990838543166E+02
             -0.833124644819950E+02
             -0.541435218859836E+02
             -0.512484125514706E+02
             -0.417177274648879E+02
             -0.964913124606397E+00
              0.100264756240790E+02
              0.104754094510159E+01
              0.154070939733906E+02
             -0.551484482015304E+02
              0.142320175534533E+02
              0.257315348739002E+02
             -0.669165559776198E+02
             -0.704166908694643E+02
             -0.432644403468856E+02
             -0.172947252584993E+02
              0.179340724463876E+02
              0.455317071225397E+01
             -0.427601501795507E+02
              0.367592403370511E+02
             -0.216720029259075E+02
              0.519264113704248E+02
             -0.890455995095849E+02
              0.599904032126951E+02
             -0.214283015024026E+01
             -0.369817358996340E+02
             -0.217511242754695E+02
              0.472199307692192E+01
              0.376291535530730E+02
             -0.758959116906805E+02
             -0.121340303124243E+02
             -0.217346027677052E+02
              0.512796124825322E+02
              0.867677112143932E+02
             -0.968786139633676E+02
              0.947419931645139E+02
              0.469336040926263E+02
             -0.728223442341092E+02
             -0.367881851585382E+02
              0.754595356931435E+02
              0.634066991135564E+02
             -0.181713483174694E+02
             -0.464900539040661E+01
              0.736578819253427E+01
              0.651726136718156E+02
             -0.510437167746597E+02
              0.159079219328845E+02
[...]
              0.284130559785621E+02
              0.142298619333711E+03
              0.243239884714906E+02
              0.123166150605938E+02
             -0.466229167845755E+02
             -0.640167019408751E+02
             -0.189462802748839E+02
              0.330475847082188E+02
             -0.429690730984805E+01
              0.190704864911875E+02
              0.337417524073173E+02
             -0.588817573558800E+02
              0.223370772570345E+02
              0.583723121653883E+02
              0.555090689454578E+02
             -0.422739505122473E+01
             -0.137409282890337E+01
             -0.995685755979306E+01
             -0.484057669611125E+02
             -0.677347947536466E+02
              0.788501017073931E+02
             -0.526513477865109E+01
             -0.589975082177536E+02
              0.172120728386793E+01
             -0.206111610837113E+02
              0.941436619455096E+02
             -0.217289688003674E+02
             -0.354764735082660E+02
              0.336194894819698E+02
             -0.146253173195319E+02
              0.391187657171639E+02
             -0.239449957961148E+01
              0.101425549090980E+03
              0.491299556616894E+02
             -0.509596087510032E+01
             -0.323310077890855E+02
              0.233133310258864E+02
             -0.530506413315350E+02
             -0.128286209774088E+02
              0.587871876583636E+02
             -0.288658049803997E+02
             -0.440009553612900E+02
             -0.223929895419952E+02
              0.520473988963258E+02
              0.125323739584686E+02
             -0.851596280286774E+02
              0.304936603073709E+02
              0.152634089476763E+02
              0.579531598722465E+01
             -0.515113941512137E+02
             -0.376008143395399E+01
              0.324407669647010E+02
              0.514514291661555E+02
              0.634702874811610E+02
              0.230017522972819E+02
              0.801707569706338E+00
             -0.499642043761040E+02
             -0.511408067120522E+02
             -0.750371722881902E+02
             -0.619454362498777E+01
              0.310049950166861E+02
             -0.377971692145198E+01
              0.548707771306930E+02
             -0.319085292954549E+02
              0.167237111804253E+02
             -0.103043498609634E+02
             -0.290429127387012E+02
              0.587481923979391E+02
              0.794142633605696E+01
              0.606298746404499E+02
              0.509108030588845E+01
              0.265916466338163E+02
             -0.193201899561315E+02
              0.588274784104841E+02
             -0.111704642394342E+02
             -0.137741818048678E+00
             -0.792725167406275E+02
             -0.128660163370854E+02
              0.721425449369555E+02
              0.675505767326878E+02
              0.252694857822012E+02
             -0.130829442919708E+02
              0.343936553550512E+01
             -0.174080408039822E+02
             -0.207479775192388E+01
              0.910648601378027E+02
              0.124698003102390E+01
             -0.191366337967280E+02
             -0.111134256621117E+03
             -0.554487972795485E+02
             -0.376181625789543E+02
             -0.660909343088360E+02
             -0.557514829731423E+02
             -0.685019082037566E+02
             -0.448707003680418E+02
             -0.412075518740440E+02
             -0.453420594857237E+02
              0.484988296316508E+02
             -0.295010145240814E+02
             -0.998772423013145E+02
              0.420228629888951E+02
             -0.261131584329671E+02
             -0.793661344197728E+02
              0.947159769216243E+02
             -0.220535573084860E+02
              0.228684785078253E+02
              0.456365689785985E+02
             -0.134130384525417E+01
              0.255116668275239E+02
              0.468055221403654E+01
              0.410958480599099E+00
             -0.150947801524484E+02
             -0.718097702340069E+02
              0.133393752781134E+02
             -0.129818962900849E+03
              0.626238283086853E+02
             -0.442037356981947E+02
             -0.163346078724277E+02
             -0.158765751181998E+02
              0.719174233429959E+01
             -0.228322696109307E+02
              0.298122724547658E+02
             -0.522433656500473E+02
              0.368531613807188E+02
              0.372098160781887E+02
              0.169074202962935E+02
              0.100734850396073E+02
              0.198509018028413E+02
              0.624301388656909E+01
              0.311457420700850E+02
             -0.801960692072598E+01
             -0.594275461702600E+02
              0.761118284633369E+01
             -0.153658644822815E+02
             -0.194209028105189E+01
              0.507745409270202E+02
             -0.829558323127897E+02
             -0.148745156412139E+01
              0.576061706192263E+00
              0.997562339535506E+01
              0.319665105038603E+02
             -0.124155394779304E+02
              0.838572495761179E+02
              0.489239316408996E+02
             -0.183750720150564E+02
             -0.960896234980055E+01
              0.106008046912365E+01
              0.772200440660376E+02
             -0.587992702507885E+02
             -0.106100690707628E+03
              0.310031109337428E+02
             -0.163355232984307E+02
             -0.139780615070954E+02
              0.131269717343265E+02
              0.771167066858536E+02
              0.465715375186306E+02
             -0.154140300777709E+02
             -0.504726245116753E+02
             -0.551629598334230E+01
              0.307395404557418E+02
             -0.112010038659098E+02
             -0.758128382687039E+02
             -0.272357954160319E+01
             -0.893060009746905E+02
             -0.477140213881416E+02
              0.771282307326683E+02
             -0.485208053567869E+02
             -0.638818972265571E+02
             -0.516102640444995E+02
             -0.350985959344178E+02
              0.341807398972732E+02
              0.824206018598982E+02
             -0.358100579104342E+01
              0.277557176457183E+02
             -0.184224747601084E+02
             -0.696253055219370E+02
              0.466741345118779E+02
             -0.446547094853163E+02
              0.322687535584101E+02
              0.377368088914850E+02
             -0.658034785663892E+01
              0.392025730295205E+02
              0.439747732665169E+02
              0.101028407437347E+03
             -0.156541599590659E+02
             -0.457610270452694E+02
             -0.615045055522352E+02
             -0.124458237424920E+02
             -0.233833845461453E+02
              0.103357830102086E+03
             -0.450492217981684E+02
              0.105434991816833E+02
              0.974023091745357E+01
             -0.265495011964834E+02
             -0.801430668451949E+02
             -0.700910199334913E+01
              0.983068818821506E+02
              0.941388363015847E+01
              0.810608542301748E+01
             -0.528652599737334E+02
             -0.607360473922677E+02
             -0.566648596974223E+01
              0.502101863170341E+02
             -0.222671884337240E+02
              0.108318127159206E+03
             -0.436779597080546E+02
              0.146896095879160E+02
             -0.224952177835195E+02
             -0.720552887368921E+02
              0.170241081615899E+01
             -0.503396334426604E+02
             -0.763002266889239E+02
              0.618144842333447E+01
              0.238335644155640E+01
              0.515739777937647E+02
              0.188019897061987E+02
             -0.324738686581464E+02
              0.230817872653848E+02
             -0.813555043320999E+02
             -0.523505543538041E+02
              0.904797715328329E+02
              0.142760774593350E+02
             -0.188386847064596E+02
             -0.353346051708151E+02
             -0.270813465362301E+01
             -0.589212176085653E+01
              0.832844987585656E+02
              0.418966555152360E+02
             -0.166529356450269E+02
             -0.122056507241437E+02
             -0.428827975145131E+02
             -0.201280465389802E+02
             -0.672221343800642E+02
              0.461339000940452E+02
              0.548819111592084E+01
              0.145336867973740E+02
              0.156495520376031E+02
             -0.598718981798125E+00
             -0.169020305086613E+02
             -0.309285426209148E+01
             -0.100781705163877E+03
             -0.230456764243622E+02
             -0.766999057911306E+01
             -0.951101010943020E+01
              0.548422262751257E+02
              0.625840424249907E+02
              0.165275194650277E+02
             -0.973618835021428E+02
              0.649720737972311E+02
             -0.215765087731229E+02
             -0.378333462481386E+02
             -0.867135007895795E+02
             -0.387968211917212E+02
              0.566312675278836E+02
              0.245144592939627E+02
              0.517621249046852E+01
              0.293289196817255E+02
             -0.566707884057945E+02
             -0.423710222390169E+02
              0.517280026714139E+02
              0.388516821731584E+02
              0.520640022485706E+02
             -0.122443396709505E+01
              0.688651309081581E+01
              0.571162084418587E+02
              0.966035333546154E+02
             -0.301030129079216E+02
              0.324188101274410E+02
             -0.118960690175716E+02
             -0.413493615480535E+02
             -0.315458818077336E+02
             -0.301094684644629E+02
             -0.131844987226270E+02
             -0.525057441757691E+02
             -0.218047204206753E+02
             -0.141612463951550E+03
              0.369883494595012E+02
              0.207495452703098E+02
             -0.394329538168469E+01
             -0.381498620642499E+02
             -0.205003307455020E+02
             -0.528640319857246E+02
              0.151493340776807E+02
              0.822719327520984E+02
             -0.252618587448090E+02
             -0.163632506881250E+02
              0.238827182157193E+02
             -0.490847735357383E+02
              0.883328726200679E+02
              0.155016525481529E+02
              0.226646675605473E+02
              0.492147945986050E+02
              0.320581328742253E+01
              0.544024307602413E+02
              0.143628149311678E+02
             -0.106818400585231E+02
              0.736781176700373E+01
              0.774854759623736E+00
              0.729539156059303E+02
              0.101302536485073E+02
              0.121054849710127E+02
             -0.130249226388729E+02
              0.132596592408632E+02
             -0.914157095861469E+02
             -0.327231825119954E+02
             -0.458841162085116E+02
              0.487115723196525E+02
             -0.292121519305080E+02
             -0.660463682722759E+02
              0.540496886552022E+02
             -0.122391583112824E+02
              0.441574619779456E+02
             -0.901710396894823E+02
              0.232998483142255E+02
              0.859792241881291E+01
              0.584783942163972E+01
             -0.834917083437034E+01
             -0.905588385483543E+01
              0.480863941544782E+02
              0.199120838288252E+01
             -0.476679617431237E+02
             -0.176631254702303E+02
              0.277423334694237E+02
             -0.118307078817998E+03
             -0.932902977262321E+02
              0.396549635285595E+01
              0.117939369222983E+02
             -0.414662872375665E+02
             -0.389761942916203E+01
              0.112457362822328E+03
              0.307810888585141E+02
             -0.573394712437607E+02
              0.928163964152063E+01
             -0.966776768311314E+01
              0.105928890342184E+02
             -0.338750834260298E+02
              0.195922431118202E+02
              0.285511455304606E+02
             -0.303693180141175E+01
              0.108544378164236E+03
             -0.140514204636891E+02
             -0.316969794135347E+02
              0.143696281408847E+02
              0.467737550009848E+02
             -0.357027112620255E+02
             -0.318881808396340E+01
              0.967878828902177E+02
             -0.463713813031438E+01
              0.623364195114164E+02
              0.135956015534903E+02
             -0.906522390706387E+01
             -0.306079708855900E+02
              0.568485133504971E+02
             -0.516058511504493E+02
             -0.221318442989639E+01
             -0.170457354422897E+02
             -0.406641680355262E+02
              0.185314887333089E+02
              0.239964011516054E+02
              0.116293514935452E+02
              0.702329465880553E+00
             -0.385836196348616E+02
              0.216016602923141E+02
             -0.674124844938311E+01
             -0.247359423107253E+02
             -0.211362415666381E+02
              0.204024413680362E+02
             -0.599017740676777E+01
             -0.350428459275562E+02
             -0.106965030983930E+03
              0.103115759268205E+02
              0.249519722829524E+02
             -0.388812140535153E+02
             -0.211700191194016E+02
              0.809741330864925E+02
              0.653005537144725E+01
              0.312151081103631E+02
              0.393734524676981E+01
              0.323164548452266E+02
              0.646683488467181E+01
             -0.374390596759219E+02
             -0.232288334260900E+01
              0.879296408552119E+01
              0.274666097802798E+02
              0.784617411425900E+02
              0.508917619060181E+02
              0.181596466662597E+00
              0.169555314505302E+02
              0.615141571424272E+02
              0.236811168221450E+02
             -0.755285831081736E+02
             -0.274462391212687E+02
              0.151528882986901E+02
              0.565506280080160E+01
              0.256016765164054E+02
             -0.549459478404524E+02
              0.903280126343758E+01
              0.387204995323044E+02
              0.499579155980365E+02
             -0.436434582906540E+02
             -0.692916083372910E+01
             -0.209334079266466E+01
             -0.134301874968208E+02
             -0.366645990467168E+02
             -0.215894847607251E+02
             -0.202611492181828E+01
              0.794800132697537E+01
              0.422655839635836E+02
             -0.309373143269449E+02
              0.828759571790639E+02
              0.328793872212391E+02
              0.220669140505602E+02
              0.334104335830510E+02
              0.324185663354076E+02
              0.347057458525885E+02
              0.538991167077554E+02
             -0.435357893394751E+02
              0.621650884379810E+02
             -0.112620556351013E+03
              0.308400806736401E+02
             -0.106882227997066E+03
              0.857348296561854E+02
              0.693196097949705E+02
             -0.110245045784212E+02
             -0.494784112809655E+02
             -0.430792790381976E+02
             -0.625340910903021E+02
             -0.630773412102869E+02
              0.553624617784682E+02
              0.407043657833887E+02
              0.237663581247125E+02
              0.374864207701949E+02
              0.404407320194163E+02
             -0.383336324309386E+02
             -0.198431597374058E+02
              0.588429145347569E+02
             -0.116503349924801E+02
              0.553402141530703E+02
              0.701911177280978E+02
             -0.555432995184549E+01
             -0.708671464256198E+02
             -0.890644059227043E+00
             -0.245036719476833E+01
             -0.886250054879156E+01
             -0.179504474217788E+01
             -0.655172695307550E+02
             -0.211399298609309E+02
              0.541703653772051E+01
              0.901023750726532E+01
              0.470539441037849E+02
             -0.399093444901397E+02
              0.659415882809423E+02
             -0.426695266134337E+02
              0.211131302344365E+02
              0.351737366558472E+02
 
 BEEF-vdW xc energy contributions
           1 :   -785.417067923759     
           2 :    721.460749578361     
           3 :   -610.778632798424     
           4 :    480.530301474044     
           5 :   -358.240636405659     
           6 :    263.717605567168     
           7 :   -204.603105737178     
           8 :    176.375901007953     
           9 :   -166.372632296087     
          10 :    159.945637635317     
          11 :   -146.253537497680     
          12 :    121.495695189592     
          13 :   -88.7486514789382     
          14 :    55.0416708229201     
          15 :   -27.3607108959568     
          16 :    9.39776812767400     
          17 :  -0.302326943849948     
          18 :   -4.33623364136315     
          19 :    9.99686632514624     
          20 :   -20.5308144545455     
          21 :    36.4986835309413     
          22 :   -55.2000166246175     
          23 :    72.2129515702140     
          24 :   -83.6045932882055     
          25 :    87.7245357068070     
          26 :   -85.7888519988117     
          27 :    81.0878789539253     
          28 :   -77.2980086718671     
          29 :    76.7369244173977     
          30 :   -79.3896174086617     
          31 :   -86.1251356107339     
          32 :   -65.9860049475702     

     Writing output data file ./pwscf.save/
 
     init_run     :    353.30s CPU    358.04s WALL (       1 calls)
     electrons    :  15566.96s CPU  15715.48s WALL (       1 calls)
     forces       :    106.15s CPU    107.51s WALL (       1 calls)

     Called by init_run:
     wfcinit      :    305.37s CPU    308.99s WALL (       1 calls)
     potinit      :     44.50s CPU     44.86s WALL (       1 calls)
     hinit0       :      1.50s CPU      1.53s WALL (       1 calls)

     Called by electrons:
     c_bands      :  12969.39s CPU  13082.73s WALL (      22 calls)
     sum_band     :   1823.44s CPU   1839.36s WALL (      22 calls)
     v_of_rho     :    116.48s CPU    121.23s WALL (      22 calls)
     newd         :     35.94s CPU     50.38s WALL (      22 calls)
     PAW_pot      :    147.36s CPU    147.39s WALL (      22 calls)
     mix_rho      :    519.50s CPU    520.49s WALL (      22 calls)
     vdW_kernel   :     33.53s CPU     33.54s WALL (       1 calls)

     Called by c_bands:
     init_us_2    :     87.25s CPU     87.56s WALL (     598 calls)
     cegterg      :  12061.43s CPU  12174.28s WALL (     286 calls)

     Called by *egterg:
     cdiaghg      :    124.29s CPU    124.40s WALL (    1850 calls)
     h_psi        :   7723.24s CPU   7762.89s WALL (    1876 calls)
     s_psi        :   1259.45s CPU   1259.63s WALL (    1876 calls)
     g_psi        :     18.12s CPU     18.14s WALL (    1577 calls)

     Called by h_psi:
     h_psi:calbec :   1185.28s CPU   1185.62s WALL (    1876 calls)
     vloc_psi     :   5247.22s CPU   5249.42s WALL (    1876 calls)
     add_vuspsi   :   1261.28s CPU   1261.53s WALL (    1876 calls)

     General routines
     calbec       :   1728.28s CPU   1728.71s WALL (    2214 calls)
     fft          :     53.33s CPU     53.34s WALL (    3342 calls)
     ffts         :    169.67s CPU    169.72s WALL (   11150 calls)
     fftw         :   5366.90s CPU   5368.51s WALL (  369336 calls)
 
     Parallel routines
 
     PWSCF        :      4h28m CPU      4h31m WALL

 
   This run was terminated on:  21:15:55  20May2022            

=------------------------------------------------------------------------------=
   JOB DONE.
=------------------------------------------------------------------------------=
