
     Program PWSCF v.6.7MaX starts on  4Jan2023 at 10:13:58 

     This program is part of the open-source Quantum ESPRESSO suite
     for quantum simulation of materials; please cite
         "P. Giannozzi et al., J. Phys.:Condens. Matter 21 395502 (2009);
         "P. Giannozzi et al., J. Phys.:Condens. Matter 29 465901 (2017);
          URL http://www.quantum-espresso.org", 
     in publications or presentations arising from this work. More details at
     http://www.quantum-espresso.org/quote

     Parallel version (MPI), running on     1 processors

     MPI processes distributed on     1 nodes
     Reading input from cch2ch2-bi-ensemble.in
Warning: card &CELL ignored
Warning: card / ignored

     Current dimensions of program PWSCF are:
     Max number of different atomic species (ntypx) = 10
     Max number of k-points (npk) =  40000
     Max angular momentum in pseudopotentials (lmaxx) =  3
     file Pt.pbe-n-kjpaw_psl.1.0.0.UPF: wavefunction(s)  6S 5D renormalized
     file C.pbe-n-kjpaw_psl.1.0.0.UPF: wavefunction(s)  2S 2P renormalized
     file H.pbe-kjpaw_psl.1.0.0.UPF: wavefunction(s)  1S renormalized

     **************************************************************************
     Initializing libbeef V0.1.2 with the BEEF-vdW functional.
     Citation: Wellendorff et al., PRB 85, 235149 (2012).
     **************************************************************************


     IMPORTANT: XC functional enforced from input :
     Exchange-correlation= BEEF-VDW
                           (   1   4  43  14   2   0   0)
     Any further DFT definition will be discarded
     Please, verify this is what you really want


     Subspace diagonalization in iterative solution of the eigenvalue problem:
     a serial algorithm will be used

 
     G-vector sticks info
     --------------------
     sticks:   dense  smooth     PW     G-vecs:    dense   smooth      PW
     Sum        4267    4267   1159               714197   714197  100553
 


     bravais-lattice index     =            0
     lattice parameter (alat)  =      16.0349  a.u.
     unit-cell volume          =   11372.0409 (a.u.)^3
     number of atoms/cell      =           43
     number of atomic types    =            3
     number of electrons       =       376.00
     number of Kohn-Sham states=          226
     kinetic-energy cutoff     =      60.0000  Ry
     charge density cutoff     =     240.0000  Ry
     scf convergence threshold =      1.0E-06
     mixing beta               =       0.7000
     number of iterations used =            8  local-TF  mixing
     Exchange-correlation= BEEF-VDW
                           (   1   4  43  14   2   0   0)

     celldm(1)=  16.034858  celldm(2)=   0.000000  celldm(3)=   0.000000
     celldm(4)=   0.000000  celldm(5)=   0.000000  celldm(6)=   0.000000

     crystal axes: (cart. coord. in units of alat)
               a(1) = (   1.000000   0.000000   0.000000 )  
               a(2) = (   0.500000   0.866025   0.000000 )  
               a(3) = (   0.000000   0.000000   3.185022 )  

     reciprocal axes: (cart. coord. in units 2 pi/alat)
               b(1) = (  1.000000 -0.577350  0.000000 )  
               b(2) = (  0.000000  1.154701  0.000000 )  
               b(3) = (  0.000000  0.000000  0.313970 )  


     PseudoPot. # 1 for Pt read from file:
     /users/bkreitz1/quantum-espresso/potentials/Pt.pbe-n-kjpaw_psl.1.0.0.UPF
     MD5 check sum: 04dc8a03c51ece93fc7b5889c2958091
     Pseudo is Projector augmented-wave + core cor, Zval = 10.0
     Generated using 'atomic' code by A. Dal Corso  v.6.7MaX
     Shape of augmentation charge: PSQ
     Using radial grid of 1277 points,  6 beta functions with: 
                l(1) =   0
                l(2) =   0
                l(3) =   1
                l(4) =   1
                l(5) =   2
                l(6) =   2
     Q(r) pseudized with 0 coefficients 


     PseudoPot. # 2 for C  read from file:
     /users/bkreitz1/quantum-espresso/potentials/C.pbe-n-kjpaw_psl.1.0.0.UPF
     MD5 check sum: a169b0ebad56f5ec0d79c4633f80bf22
     Pseudo is Projector augmented-wave + core cor, Zval =  4.0
     Generated using 'atomic' code by A. Dal Corso  v.6.7MaX
     Shape of augmentation charge: PSQ
     Using radial grid of 1073 points,  4 beta functions with: 
                l(1) =   0
                l(2) =   0
                l(3) =   1
                l(4) =   1
     Q(r) pseudized with 0 coefficients 


     PseudoPot. # 3 for H  read from file:
     /users/bkreitz1/quantum-espresso/potentials/H.pbe-kjpaw_psl.1.0.0.UPF
     MD5 check sum: ae98473e6dc62675f0d0baffdab24f65
     Pseudo is Projector augmented-wave, Zval =  1.0
     Generated using 'atomic' code by A. Dal Corso  v.6.7MaX
     Shape of augmentation charge: PSQ
     Using radial grid of  929 points,  2 beta functions with: 
                l(1) =   0
                l(2) =   0
     Q(r) pseudized with 0 coefficients 


     atomic species   valence    mass     pseudopotential
        Pt            10.00   195.08400     Pt( 1.00)
        C              4.00    12.01100     C ( 1.00)
        H              1.00     1.00800     H ( 1.00)

     No symmetry found



   Cartesian axes

     site n.     atom                  positions (alat units)
         1           Pt  tau(   1) = (   0.0000000   0.0000000   1.0017346  )
         2           Pt  tau(   2) = (   0.3333333   0.0000000   1.0017346  )
         3           Pt  tau(   3) = (   0.6666667   0.0000000   1.0017346  )
         4           Pt  tau(   4) = (   0.1666667   0.2886751   1.0017346  )
         5           Pt  tau(   5) = (   0.5000000   0.2886751   1.0017346  )
         6           Pt  tau(   6) = (   0.8333333   0.2886751   1.0017346  )
         7           Pt  tau(   7) = (   0.3333333   0.5773503   1.0017346  )
         8           Pt  tau(   8) = (   0.6666667   0.5773503   1.0017346  )
         9           Pt  tau(   9) = (   1.0000000   0.5773503   1.0017346  )
        10           Pt  tau(  10) = (   0.1666667   0.0962250   1.2739001  )
        11           Pt  tau(  11) = (   0.5000000   0.0962250   1.2739001  )
        12           Pt  tau(  12) = (   0.8333333   0.0962250   1.2739001  )
        13           Pt  tau(  13) = (   0.3333333   0.3849002   1.2739001  )
        14           Pt  tau(  14) = (   0.6666667   0.3849002   1.2739001  )
        15           Pt  tau(  15) = (   1.0000000   0.3849002   1.2739001  )
        16           Pt  tau(  16) = (   0.5000000   0.6735753   1.2739001  )
        17           Pt  tau(  17) = (   0.8333333   0.6735753   1.2739001  )
        18           Pt  tau(  18) = (   1.1666667   0.6735753   1.2739001  )
        19           Pt  tau(  19) = (   0.0016749   0.1925914   1.5417682  )
        20           Pt  tau(  20) = (   0.3374762   0.1948552   1.5481529  )
        21           Pt  tau(  21) = (   0.6643007   0.1909232   1.5464380  )
        22           Pt  tau(  22) = (   0.1626884   0.4822499   1.5480050  )
        23           Pt  tau(  23) = (   0.4974753   0.4798588   1.5464187  )
        24           Pt  tau(  24) = (   0.8331466   0.4810261   1.5429292  )
        25           Pt  tau(  25) = (   0.3326409   0.7694184   1.5429122  )
        26           Pt  tau(  26) = (   0.6676201   0.7712203   1.5417525  )
        27           Pt  tau(  27) = (   0.9989781   0.7658136   1.5480094  )
        28           Pt  tau(  28) = (  -0.0015218  -0.0008401   1.8158027  )
        29           Pt  tau(  29) = (   0.3334633   0.0044498   1.8178015  )
        30           Pt  tau(  30) = (   0.6617885  -0.0073775   1.8190340  )
        31           Pt  tau(  31) = (   0.1705420   0.2866101   1.8178027  )
        32           Pt  tau(  32) = (   0.5036682   0.2908704   1.8509511  )
        33           Pt  tau(  33) = (   0.8335755   0.2788282   1.8159153  )
        34           Pt  tau(  34) = (   0.3244489   0.5768838   1.8190253  )
        35           Pt  tau(  35) = (   0.6582271   0.5825462   1.8158289  )
        36           Pt  tau(  36) = (   0.9901058   0.5716818   1.8552550  )
        37           C   tau(  37) = (   0.8017897   0.4629916   1.9592453  )
        38           C   tau(  38) = (   0.7291546   0.4212573   2.1159100  )
        39           C   tau(  39) = (   0.5709868   0.3298814   2.0887159  )
        40           H   tau(  40) = (   0.8116774   0.3486499   2.1837507  )
        41           H   tau(  41) = (   0.7074364   0.5291676   2.1834938  )
        42           H   tau(  42) = (   0.5769102   0.2114103   2.1377805  )
        43           H   tau(  43) = (   0.4713001   0.3942170   2.1389034  )

     number of k points=    13  Marzari-Vanderbilt smearing, width (Ry)=  0.0200
                       cart. coord. in units 2pi/alat
        k(    1) = (   0.0000000   0.0000000   0.0000000), wk =   0.0800000
        k(    2) = (   0.0000000   0.2309401   0.0000000), wk =   0.1600000
        k(    3) = (   0.0000000   0.4618802   0.0000000), wk =   0.1600000
        k(    4) = (   0.2000000  -0.1154701   0.0000000), wk =   0.1600000
        k(    5) = (   0.2000000   0.1154701   0.0000000), wk =   0.1600000
        k(    6) = (   0.2000000   0.3464102   0.0000000), wk =   0.1600000
        k(    7) = (   0.2000000  -0.5773503   0.0000000), wk =   0.1600000
        k(    8) = (   0.2000000  -0.3464102   0.0000000), wk =   0.1600000
        k(    9) = (   0.4000000  -0.2309401   0.0000000), wk =   0.1600000
        k(   10) = (   0.4000000  -0.0000000   0.0000000), wk =   0.1600000
        k(   11) = (   0.4000000   0.2309401   0.0000000), wk =   0.1600000
        k(   12) = (   0.4000000  -0.6928203   0.0000000), wk =   0.1600000
        k(   13) = (   0.4000000  -0.4618802   0.0000000), wk =   0.1600000

     Dense  grid:   714197 G-vectors     FFT dimensions: (  80,  80, 256)

     Estimated max dynamical RAM per process >       8.67 GB

     Check: negative core charge=   -0.000002

     Initial potential from superposition of free atoms

     starting charge  375.99373, renormalised to  376.00000

     negative rho (up, down):  1.130E-02 0.000E+00


     %%%%%%%%%%%%%%%%%%%%%%%%%%%%%%%%%%%%%%%%%%%%%%%%%%%%%%%%%%%%%%%%%%%%%%%%
     %                                                                      %
     % You are using vdW-DF, which was implemented by the Thonhauser group. %
     % Please cite the following two papers that made this development      %
     % possible and the two reviews that describe the various versions:     %
     %                                                                      %
     %   T. Thonhauser et al., PRL 115, 136402 (2015).                      %
     %   T. Thonhauser et al., PRB 76, 125112 (2007).                       %
     %   K. Berland et al., Rep. Prog. Phys. 78, 066501 (2015).             %
     %   D.C. Langreth et al., J. Phys.: Condens. Matter 21, 084203 (2009). %
     %                                                                      %
     %                                                                      %
     % If you are calculating the stress with vdW-DF, please also cite:     %
     %                                                                      %
     %   R. Sabatini et al., J. Phys.: Condens. Matter 24, 424209 (2012).   %
     %                                                                      %
     %%%%%%%%%%%%%%%%%%%%%%%%%%%%%%%%%%%%%%%%%%%%%%%%%%%%%%%%%%%%%%%%%%%%%%%%


     Starting wfcs are  340 randomized atomic wfcs
     Checking if some PAW data can be deallocated... 

     total cpu time spent up to now is      341.9 secs

     Self-consistent Calculation

     iteration #  1     ecut=    60.00 Ry     beta= 0.70
     Davidson diagonalization with overlap
     ethr =  1.00E-02,  avg # of iterations =  2.8

     Threshold (ethr) on eigenvalues was too large:
     Diagonalizing with lowered threshold

     Davidson diagonalization with overlap
     ethr =  8.21E-04,  avg # of iterations =  2.6

     negative rho (up, down):  1.147E-02 0.000E+00

     total cpu time spent up to now is     1655.5 secs

     total energy              =  -27815.81085069 Ry
     estimated scf accuracy    <       3.39269714 Ry

     iteration #  2     ecut=    60.00 Ry     beta= 0.70
     Davidson diagonalization with overlap
     ethr =  9.02E-04,  avg # of iterations =  2.3

     negative rho (up, down):  9.451E-03 0.000E+00

     total cpu time spent up to now is     2266.2 secs

     total energy              =  -27815.99768599 Ry
     estimated scf accuracy    <       1.46540918 Ry

     iteration #  3     ecut=    60.00 Ry     beta= 0.70
     Davidson diagonalization with overlap
     ethr =  3.90E-04,  avg # of iterations =  4.5

     negative rho (up, down):  6.644E-03 0.000E+00

     total cpu time spent up to now is     2882.8 secs

     total energy              =  -27816.04712972 Ry
     estimated scf accuracy    <       0.59814423 Ry

     iteration #  4     ecut=    60.00 Ry     beta= 0.70
     Davidson diagonalization with overlap
     c_bands:  1 eigenvalues not converged
     ethr =  1.59E-04,  avg # of iterations =  8.8

     negative rho (up, down):  4.810E-03 0.000E+00

     total cpu time spent up to now is     3587.2 secs

     total energy              =  -27816.09613562 Ry
     estimated scf accuracy    <       0.21345153 Ry

     iteration #  5     ecut=    60.00 Ry     beta= 0.70
     Davidson diagonalization with overlap
     ethr =  5.68E-05,  avg # of iterations =  7.0

     negative rho (up, down):  3.451E-03 0.000E+00

     total cpu time spent up to now is     4314.2 secs

     total energy              =  -27816.11458530 Ry
     estimated scf accuracy    <       0.06040119 Ry

     iteration #  6     ecut=    60.00 Ry     beta= 0.70
     Davidson diagonalization with overlap
     c_bands:  2 eigenvalues not converged
     ethr =  1.61E-05,  avg # of iterations = 11.2

     negative rho (up, down):  2.901E-03 0.000E+00

     total cpu time spent up to now is     5161.4 secs

     total energy              =  -27816.12400644 Ry
     estimated scf accuracy    <       0.01093896 Ry

     iteration #  7     ecut=    60.00 Ry     beta= 0.70
     Davidson diagonalization with overlap
     c_bands:  2 eigenvalues not converged
     c_bands:  1 eigenvalues not converged
     c_bands:  1 eigenvalues not converged
     ethr =  2.91E-06,  avg # of iterations = 13.2

     negative rho (up, down):  2.742E-03 0.000E+00

     total cpu time spent up to now is     6100.3 secs

     total energy              =  -27816.12639381 Ry
     estimated scf accuracy    <       0.00729385 Ry

     iteration #  8     ecut=    60.00 Ry     beta= 0.70
     Davidson diagonalization with overlap
     c_bands:  1 eigenvalues not converged
     ethr =  1.94E-06,  avg # of iterations = 10.5

     negative rho (up, down):  2.833E-03 0.000E+00

     total cpu time spent up to now is     6764.9 secs

     total energy              =  -27816.12687818 Ry
     estimated scf accuracy    <       0.00425038 Ry

     iteration #  9     ecut=    60.00 Ry     beta= 0.70
     Davidson diagonalization with overlap
     ethr =  1.13E-06,  avg # of iterations =  6.6

     negative rho (up, down):  3.205E-03 0.000E+00

     total cpu time spent up to now is     7401.4 secs

     total energy              =  -27816.12715741 Ry
     estimated scf accuracy    <       0.00115689 Ry

     iteration # 10     ecut=    60.00 Ry     beta= 0.70
     Davidson diagonalization with overlap
     ethr =  3.08E-07,  avg # of iterations =  7.1

     negative rho (up, down):  3.731E-03 0.000E+00

     total cpu time spent up to now is     8078.5 secs

     total energy              =  -27816.12731388 Ry
     estimated scf accuracy    <       0.00097766 Ry

     iteration # 11     ecut=    60.00 Ry     beta= 0.70
     Davidson diagonalization with overlap
     ethr =  2.60E-07,  avg # of iterations =  4.5

     negative rho (up, down):  5.614E-03 0.000E+00

     total cpu time spent up to now is     8681.4 secs

     total energy              =  -27816.12737650 Ry
     estimated scf accuracy    <       0.00081336 Ry

     iteration # 12     ecut=    60.00 Ry     beta= 0.70
     Davidson diagonalization with overlap
     ethr =  2.16E-07,  avg # of iterations =  5.2

     negative rho (up, down):  8.190E-03 0.000E+00

     total cpu time spent up to now is     9286.1 secs

     total energy              =  -27816.12736978 Ry
     estimated scf accuracy    <       0.00067024 Ry

     iteration # 13     ecut=    60.00 Ry     beta= 0.70
     Davidson diagonalization with overlap
     ethr =  1.78E-07,  avg # of iterations =  1.5

     negative rho (up, down):  1.072E-02 0.000E+00

     total cpu time spent up to now is     9834.6 secs

     total energy              =  -27816.12735547 Ry
     estimated scf accuracy    <       0.00031457 Ry

     iteration # 14     ecut=    60.00 Ry     beta= 0.70
     Davidson diagonalization with overlap
     ethr =  8.37E-08,  avg # of iterations =  2.0

     negative rho (up, down):  1.176E-02 0.000E+00

     total cpu time spent up to now is    10423.1 secs

     total energy              =  -27816.12735942 Ry
     estimated scf accuracy    <       0.00008832 Ry

     iteration # 15     ecut=    60.00 Ry     beta= 0.70
     Davidson diagonalization with overlap
     ethr =  2.35E-08,  avg # of iterations =  4.0

     negative rho (up, down):  1.283E-02 0.000E+00

     total cpu time spent up to now is    11089.7 secs

     total energy              =  -27816.12736429 Ry
     estimated scf accuracy    <       0.00005591 Ry

     iteration # 16     ecut=    60.00 Ry     beta= 0.70
     Davidson diagonalization with overlap
     ethr =  1.49E-08,  avg # of iterations =  2.0

     negative rho (up, down):  1.243E-02 0.000E+00

     total cpu time spent up to now is    11683.7 secs

     total energy              =  -27816.12737095 Ry
     estimated scf accuracy    <       0.00001599 Ry

     iteration # 17     ecut=    60.00 Ry     beta= 0.70
     Davidson diagonalization with overlap
     ethr =  4.25E-09,  avg # of iterations =  4.4

     negative rho (up, down):  1.272E-02 0.000E+00

     total cpu time spent up to now is    12396.3 secs

     total energy              =  -27816.12737474 Ry
     estimated scf accuracy    <       0.00000356 Ry

     iteration # 18     ecut=    60.00 Ry     beta= 0.70
     Davidson diagonalization with overlap
     ethr =  9.48E-10,  avg # of iterations =  4.4

     negative rho (up, down):  1.264E-02 0.000E+00

     total cpu time spent up to now is    13275.1 secs

     total energy              =  -27816.12737663 Ry
     estimated scf accuracy    <       0.00000283 Ry

     iteration # 19     ecut=    60.00 Ry     beta= 0.70
     Davidson diagonalization with overlap
     ethr =  7.52E-10,  avg # of iterations =  2.0

     negative rho (up, down):  1.261E-02 0.000E+00

     total cpu time spent up to now is    13844.9 secs

     End of self-consistent calculation

          k = 0.0000 0.0000 0.0000 ( 89201 PWs)   bands (ev):

   -13.3249 -10.1868  -8.2192  -6.6488  -5.3650  -5.1989  -5.0367  -4.3967
    -4.3322  -4.3206  -4.2819  -4.2740  -4.2600  -4.2384  -4.2003  -3.9689
    -3.9005  -3.7357  -3.7209  -3.7127  -3.7033  -3.6317  -3.4579  -3.3015
    -3.2978  -3.2408  -3.2337  -3.1513  -3.1203  -3.0628  -3.0496  -3.0430
    -3.0316  -2.9862  -2.9687  -2.8962  -2.8956  -2.8589  -2.8520  -2.8158
    -2.7898  -2.7862  -2.7619  -2.7599  -2.7326  -2.6932  -2.3780  -2.3459
    -2.2826  -2.2663  -2.2221  -2.2087  -2.1963  -2.1619  -2.1167  -2.1100
    -2.0497  -1.9875  -1.9608  -1.9290  -1.8636  -1.6660  -1.6207  -1.6165
    -1.4892  -1.4539  -1.4337  -1.4041  -1.4016  -1.3499  -1.3320  -1.3098
    -1.2606  -1.2319  -1.2073  -1.1998  -1.1834  -1.1769  -1.1714  -1.1606
    -1.1381  -1.1196  -1.1052  -1.0927  -1.0864  -1.0672  -1.0422  -1.0259
    -0.9889  -0.9563  -0.9507  -0.8631  -0.8416  -0.7995  -0.7806  -0.7773
    -0.7465  -0.7127  -0.6990  -0.6785  -0.6713  -0.6526  -0.5998  -0.5741
    -0.5662  -0.5319  -0.5286  -0.5284  -0.4620  -0.4407  -0.3982  -0.3747
    -0.3426  -0.3019  -0.2582  -0.1989  -0.0643  -0.0281   0.0252   0.0463
     0.0643   0.1222   0.1280   0.2014   0.2553   0.2611   0.2964   0.3023
     0.3160   0.3281   0.3532   0.3741   0.3805   0.4066   0.4967   0.5245
     0.5784   0.5959   0.6227   0.6291   0.6725   0.7310   0.8305   0.8410
     0.8540   0.8706   0.8954   0.9256   0.9422   0.9465   1.0246   1.0499
     1.0738   1.1172   1.1365   1.1574   1.1906   1.1985   1.2561   1.2701
     1.2776   1.2849   1.3089   1.3140   1.3223   1.3376   1.3441   1.3495
     1.3777   1.3882   1.4019   1.4186   1.4499   1.4917   1.5057   1.5105
     1.5286   1.5515   1.5585   1.5989   1.6302   1.6390   1.6458   1.6661
     1.6726   1.6863   1.6951   1.7240   1.7485   1.7765   1.7881   1.7988
     1.8458   1.8487   1.9778   1.9905   2.0467   2.0507   2.0954   2.1177
     2.1249   2.1448   2.3630   2.6481   2.6790   2.7674   2.9365   2.9999
     3.0009   3.9529   4.1283   4.1439   4.9271   5.2132   5.2764   5.5027
     5.8118   5.9968   6.0598   6.7184   6.8241   6.9054   6.9486   6.9526
     7.0034   7.0681

          k = 0.0000 0.2309 0.0000 ( 89218 PWs)   bands (ev):

   -13.3246 -10.1861  -8.2100  -6.5090  -5.2897  -5.1635  -5.0235  -4.7553
    -4.4164  -4.3841  -4.2317  -4.1740  -4.1063  -4.0611  -4.0309  -3.9137
    -3.8865  -3.8104  -3.7192  -3.6567  -3.6392  -3.5723  -3.4405  -3.3383
    -3.2542  -3.2362  -3.2080  -3.1602  -3.1363  -3.1040  -3.0832  -3.0514
    -3.0266  -2.9910  -2.9697  -2.9352  -2.9136  -2.8942  -2.8546  -2.8393
    -2.8257  -2.7066  -2.6659  -2.6345  -2.5915  -2.5561  -2.4454  -2.3608
    -2.3374  -2.2994  -2.2937  -2.2662  -2.2544  -2.1893  -2.1275  -2.0501
    -2.0090  -1.9962  -1.9473  -1.9177  -1.8438  -1.7907  -1.6803  -1.6683
    -1.6351  -1.5720  -1.5543  -1.5330  -1.4968  -1.4655  -1.4576  -1.3831
    -1.3700  -1.3604  -1.3306  -1.2777  -1.2634  -1.2425  -1.2317  -1.1969
    -1.1423  -1.1083  -1.0887  -1.0782  -1.0376  -1.0263  -1.0090  -0.9820
    -0.9589  -0.9208  -0.9063  -0.8720  -0.8586  -0.8193  -0.8155  -0.7865
    -0.7717  -0.7292  -0.7030  -0.6811  -0.6594  -0.6368  -0.6285  -0.6179
    -0.6006  -0.5834  -0.5660  -0.5447  -0.4934  -0.4662  -0.4238  -0.3740
    -0.3620  -0.3477  -0.3091  -0.2886  -0.2836  -0.2785  -0.2471  -0.1666
    -0.1220  -0.0180   0.0296   0.0968   0.1241   0.1406   0.1895   0.2009
     0.2414   0.3030   0.3093   0.3661   0.4039   0.4255   0.4729   0.5199
     0.5453   0.5528   0.5727   0.5950   0.6243   0.6780   0.7015   0.7543
     0.7645   0.7751   0.8322   0.8738   0.8904   0.9160   0.9413   0.9747
     1.0014   1.0366   1.0751   1.1027   1.1177   1.1589   1.1788   1.2165
     1.2430   1.2733   1.2944   1.3309   1.3432   1.3652   1.3830   1.4340
     1.4510   1.4842   1.5252   1.5626   1.6059   1.6177   1.6345   1.6582
     1.6642   1.7031   1.7132   1.7505   1.7544   1.7928   1.8130   1.8366
     1.8440   1.9128   1.9574   1.9770   1.9955   2.0183   2.0440   2.0638
     2.0715   2.0972   2.1065   2.1171   2.1922   2.2233   2.2525   2.3333
     2.3755   2.3926   2.4414   2.6038   2.7764   3.1178   3.1594   3.4326
     3.6562   3.9616   4.0681   4.2676   4.8820   4.9572   5.4066   5.6507
     5.7912   5.9036   6.0942   6.1602   6.2434   6.7261   6.8181   6.8498
     6.9626   7.1089

          k = 0.0000 0.4619 0.0000 ( 89284 PWs)   bands (ev):

   -13.3241 -10.1849  -8.1951  -6.1075  -5.5124  -5.1862  -5.0386  -4.7884
    -4.4367  -4.4178  -4.2898  -4.0630  -4.0372  -3.9071  -3.8005  -3.7616
    -3.7162  -3.6700  -3.6382  -3.5295  -3.4798  -3.4621  -3.4471  -3.3740
    -3.3611  -3.2995  -3.2765  -3.2552  -3.2457  -3.2129  -3.1787  -3.1316
    -3.1128  -3.0286  -2.9060  -2.8771  -2.8525  -2.8432  -2.8380  -2.7775
    -2.6658  -2.6527  -2.6216  -2.6129  -2.5632  -2.5047  -2.4037  -2.3619
    -2.3482  -2.3101  -2.2782  -2.2449  -2.2116  -2.1866  -2.1682  -2.1434
    -2.1064  -2.0623  -2.0042  -1.9581  -1.9269  -1.8959  -1.8387  -1.7883
    -1.7686  -1.7126  -1.7017  -1.6712  -1.6443  -1.5794  -1.5561  -1.5140
    -1.4913  -1.4474  -1.4100  -1.3965  -1.3658  -1.3227  -1.2760  -1.2533
    -1.2221  -1.1874  -1.1640  -1.1345  -1.1149  -1.0869  -1.0588  -1.0362
    -1.0136  -1.0026  -0.9731  -0.9515  -0.9254  -0.9092  -0.8856  -0.8672
    -0.8310  -0.8072  -0.7798  -0.7641  -0.7483  -0.7148  -0.6870  -0.6427
    -0.6147  -0.5773  -0.5654  -0.5303  -0.5156  -0.4845  -0.4119  -0.3870
    -0.3417  -0.3192  -0.3032  -0.2894  -0.2565  -0.1993  -0.1494  -0.1088
    -0.0909  -0.0473  -0.0095   0.0288   0.0681   0.0814   0.1052   0.1111
     0.1437   0.1613   0.1766   0.2073   0.2508   0.2692   0.2918   0.3200
     0.3670   0.3992   0.4229   0.4473   0.4929   0.5408   0.6282   0.6595
     0.6859   0.7519   0.7860   0.8246   0.8807   0.9015   0.9265   0.9318
     0.9781   1.0087   1.0296   1.0568   1.0948   1.1249   1.1545   1.1870
     1.2043   1.2621   1.2678   1.2904   1.3275   1.3797   1.4227   1.4424
     1.4754   1.5273   1.5659   1.6364   1.6628   1.6834   1.6932   1.7120
     1.7354   1.7948   1.8095   1.8508   1.8760   1.9420   1.9558   1.9745
     1.9904   2.0173   2.0392   2.0590   2.1001   2.1740   2.2430   2.2655
     2.2715   2.2769   2.3270   2.5056   2.5201   2.6416   2.7977   2.9015
     3.1437   3.2479   3.3689   3.4983   3.5615   3.7777   3.9499   3.9945
     4.1780   4.3218   4.5561   4.6031   4.7110   4.7443   4.9115   4.9226
     5.1432   5.4077   5.6362   5.7326   5.9266   6.2640   6.4410   6.5561
     6.8129   6.9598

          k = 0.2000-0.1155 0.0000 ( 89218 PWs)   bands (ev):

   -13.3246 -10.1861  -8.2100  -6.5090  -5.2897  -5.1636  -5.0235  -4.7553
    -4.4162  -4.3842  -4.2316  -4.1740  -4.1067  -4.0609  -4.0310  -3.9146
    -3.8860  -3.8103  -3.7185  -3.6566  -3.6392  -3.5728  -3.4404  -3.3385
    -3.2541  -3.2360  -3.2079  -3.1598  -3.1358  -3.1046  -3.0836  -3.0514
    -3.0270  -2.9905  -2.9693  -2.9351  -2.9135  -2.8941  -2.8550  -2.8393
    -2.8264  -2.7063  -2.6660  -2.6346  -2.5913  -2.5563  -2.4452  -2.3608
    -2.3379  -2.2998  -2.2937  -2.2658  -2.2546  -2.1891  -2.1274  -2.0502
    -2.0088  -1.9962  -1.9478  -1.9176  -1.8436  -1.7906  -1.6795  -1.6678
    -1.6358  -1.5718  -1.5544  -1.5331  -1.4964  -1.4657  -1.4580  -1.3832
    -1.3702  -1.3604  -1.3302  -1.2775  -1.2634  -1.2423  -1.2317  -1.1970
    -1.1426  -1.1084  -1.0887  -1.0783  -1.0374  -1.0262  -1.0089  -0.9820
    -0.9588  -0.9208  -0.9061  -0.8719  -0.8587  -0.8193  -0.8157  -0.7866
    -0.7716  -0.7295  -0.7029  -0.6811  -0.6593  -0.6368  -0.6285  -0.6179
    -0.6006  -0.5835  -0.5660  -0.5447  -0.4933  -0.4662  -0.4237  -0.3743
    -0.3621  -0.3476  -0.3092  -0.2886  -0.2835  -0.2785  -0.2474  -0.1657
    -0.1219  -0.0180   0.0296   0.0968   0.1241   0.1406   0.1895   0.2008
     0.2410   0.3026   0.3094   0.3661   0.4038   0.4258   0.4729   0.5198
     0.5455   0.5529   0.5725   0.5949   0.6243   0.6779   0.7016   0.7543
     0.7645   0.7752   0.8322   0.8738   0.8902   0.9160   0.9412   0.9747
     1.0015   1.0366   1.0750   1.1026   1.1177   1.1589   1.1788   1.2166
     1.2431   1.2734   1.2944   1.3310   1.3432   1.3651   1.3831   1.4340
     1.4510   1.4841   1.5252   1.5626   1.6058   1.6176   1.6344   1.6582
     1.6642   1.7030   1.7131   1.7505   1.7544   1.7928   1.8130   1.8366
     1.8439   1.9128   1.9572   1.9770   1.9954   2.0183   2.0440   2.0639
     2.0715   2.0972   2.1066   2.1171   2.1923   2.2235   2.2525   2.3332
     2.3756   2.3927   2.4412   2.6041   2.7765   3.1175   3.1593   3.4329
     3.6560   3.9619   4.0676   4.2682   4.8817   4.9572   5.4068   5.6507
     5.7913   5.9035   6.0942   6.1601   6.2435   6.7264   6.8180   6.8495
     6.9623   7.1092

          k = 0.2000 0.1155 0.0000 ( 89218 PWs)   bands (ev):

   -13.3246 -10.1870  -8.2099  -6.5080  -5.2545  -5.1953  -4.9982  -4.7888
    -4.3985  -4.3822  -4.2711  -4.1781  -4.0824  -4.0776  -4.0205  -3.9508
    -3.8373  -3.8150  -3.7090  -3.6671  -3.6421  -3.6166  -3.3995  -3.3413
    -3.2358  -3.2201  -3.2119  -3.1881  -3.1385  -3.1211  -3.0709  -3.0376
    -3.0260  -3.0023  -2.9821  -2.9375  -2.9135  -2.8595  -2.8579  -2.8286
    -2.8182  -2.7130  -2.6598  -2.6263  -2.6042  -2.5558  -2.4073  -2.4033
    -2.3713  -2.3134  -2.3014  -2.2622  -2.2084  -2.1979  -2.0784  -2.0552
    -1.9949  -1.9889  -1.9461  -1.9175  -1.8783  -1.7702  -1.7264  -1.6612
    -1.6009  -1.5792  -1.5395  -1.5270  -1.4979  -1.4657  -1.4245  -1.4229
    -1.3900  -1.3601  -1.3484  -1.2965  -1.2546  -1.2277  -1.2133  -1.1935
    -1.1673  -1.1229  -1.0747  -1.0718  -1.0627  -1.0303  -1.0253  -0.9589
    -0.9571  -0.9295  -0.9265  -0.8891  -0.8531  -0.8399  -0.8006  -0.7859
    -0.7748  -0.7462  -0.6902  -0.6873  -0.6522  -0.6521  -0.6270  -0.6214
    -0.6006  -0.5699  -0.5681  -0.4988  -0.4982  -0.4450  -0.4077  -0.3790
    -0.3517  -0.3175  -0.3143  -0.2916  -0.2784  -0.2742  -0.2105  -0.1676
    -0.1090  -0.0377   0.0099   0.0960   0.1016   0.1454   0.1639   0.1764
     0.2540   0.2783   0.3251   0.3483   0.4122   0.4468   0.4766   0.4927
     0.5391   0.5496   0.5752   0.5891   0.6448   0.6990   0.7010   0.7382
     0.7661   0.7782   0.7797   0.8892   0.9239   0.9253   0.9469   0.9571
     1.0045   1.0397   1.0666   1.1065   1.1069   1.1393   1.1463   1.2119
     1.2347   1.2716   1.2982   1.3307   1.3438   1.3698   1.3760   1.4262
     1.4782   1.4959   1.5168   1.5507   1.6065   1.6198   1.6302   1.6634
     1.6634   1.7064   1.7216   1.7420   1.7708   1.7771   1.8207   1.8339
     1.8480   1.9287   1.9322   1.9689   2.0080   2.0373   2.0465   2.0658
     2.0673   2.0808   2.0941   2.1310   2.2103   2.2287   2.2580   2.3146
     2.4035   2.4091   2.4419   2.6495   2.6886   3.0438   3.3024   3.4372
     3.6042   3.9094   4.1672   4.1802   4.8589   5.1404   5.2646   5.7265
     5.7570   5.9711   6.0838   6.0926   6.3188   6.6894   6.7229   6.8301
     6.9833   7.0880

          k = 0.2000 0.3464 0.0000 ( 89198 PWs)   bands (ev):

   -13.3242 -10.1863  -8.1979  -6.2344  -5.2548  -5.1067  -5.0086  -4.9810
    -4.8594  -4.2012  -4.0499  -3.9691  -3.9465  -3.9265  -3.9045  -3.8926
    -3.8449  -3.7825  -3.7568  -3.6571  -3.5834  -3.3946  -3.3706  -3.3678
    -3.3248  -3.2822  -3.2400  -3.1817  -3.1434  -3.1273  -3.1093  -3.0648
    -3.0335  -3.0135  -2.9897  -2.9462  -2.9199  -2.9058  -2.8803  -2.8221
    -2.7987  -2.7390  -2.6708  -2.5245  -2.4543  -2.4446  -2.4139  -2.3799
    -2.3423  -2.3192  -2.3061  -2.2667  -2.2091  -2.1664  -2.1359  -2.0857
    -2.0315  -2.0286  -1.9631  -1.9232  -1.9083  -1.8697  -1.8502  -1.7860
    -1.7353  -1.6957  -1.6533  -1.6238  -1.5892  -1.5501  -1.5406  -1.5274
    -1.4996  -1.4553  -1.3995  -1.3654  -1.3305  -1.2978  -1.2891  -1.2633
    -1.2255  -1.1781  -1.1627  -1.1324  -1.1136  -1.0600  -1.0465  -1.0222
    -1.0016  -0.9579  -0.9233  -0.9150  -0.8964  -0.8698  -0.8605  -0.8443
    -0.8164  -0.7846  -0.7491  -0.7266  -0.7076  -0.6800  -0.6541  -0.6312
    -0.6161  -0.5899  -0.5639  -0.5469  -0.5143  -0.5060  -0.4872  -0.4634
    -0.4358  -0.4009  -0.3580  -0.3457  -0.2858  -0.2524  -0.2068  -0.1812
    -0.1322  -0.0435  -0.0232   0.0145   0.0459   0.0976   0.1140   0.1392
     0.1680   0.1932   0.2197   0.2663   0.2829   0.3189   0.3506   0.3787
     0.4504   0.5036   0.5170   0.5282   0.5478   0.5899   0.6273   0.6808
     0.7141   0.7525   0.7686   0.7973   0.8229   0.8709   0.9088   0.9547
     0.9583   1.0154   1.0214   1.0567   1.0678   1.0860   1.1135   1.1521
     1.1595   1.2092   1.2391   1.2892   1.3390   1.3633   1.4191   1.5189
     1.5886   1.5993   1.6278   1.6571   1.6988   1.7215   1.7617   1.7725
     1.8022   1.8404   1.8484   1.8693   1.8826   1.8944   1.9231   1.9476
     1.9864   2.0169   2.0464   2.0599   2.0776   2.1344   2.1760   2.2334
     2.2655   2.2858   2.3205   2.3367   2.3975   2.4790   2.5198   2.6697
     2.8699   3.0509   3.2199   3.3650   3.4498   3.5697   3.6255   3.7389
     4.1257   4.1687   4.4556   4.4756   4.5971   4.8039   5.0220   5.4063
     5.5870   5.7675   5.9831   6.1230   6.2050   6.3668   6.4237   6.4695
     6.5292   6.7045

          k = 0.2000-0.5774 0.0000 ( 89276 PWs)   bands (ev):

   -13.3240 -10.1849  -8.1906  -5.7711  -5.6812  -5.2134  -5.1117  -4.9856
    -4.5170  -4.4201  -4.0916  -3.9859  -3.8989  -3.8208  -3.7934  -3.7114
    -3.6542  -3.5956  -3.5693  -3.5158  -3.4839  -3.4509  -3.4337  -3.4152
    -3.3901  -3.3661  -3.3123  -3.2416  -3.2281  -3.2148  -3.1841  -3.1578
    -3.1229  -3.0162  -2.9774  -2.9487  -2.9144  -2.8417  -2.8232  -2.7897
    -2.7682  -2.7446  -2.6191  -2.5961  -2.5418  -2.4413  -2.4114  -2.3826
    -2.3324  -2.3195  -2.2544  -2.2072  -2.1882  -2.1019  -2.0881  -2.0706
    -2.0161  -1.9631  -1.9458  -1.9303  -1.8939  -1.8665  -1.8437  -1.8210
    -1.7828  -1.7589  -1.7457  -1.7217  -1.6990  -1.6571  -1.6180  -1.6020
    -1.5413  -1.5120  -1.4702  -1.4499  -1.3894  -1.3764  -1.3504  -1.3243
    -1.2991  -1.2836  -1.2435  -1.1948  -1.1831  -1.1497  -1.1101  -1.0757
    -1.0512  -1.0143  -0.9848  -0.9480  -0.9373  -0.8963  -0.8862  -0.8569
    -0.8116  -0.7726  -0.7407  -0.6975  -0.6759  -0.6605  -0.6497  -0.6342
    -0.6100  -0.5906  -0.5809  -0.5468  -0.5205  -0.4922  -0.4818  -0.4757
    -0.4609  -0.4493  -0.4101  -0.3722  -0.3277  -0.2714  -0.2328  -0.1316
    -0.1089  -0.0558  -0.0266   0.0122   0.0198   0.0306   0.0652   0.0978
     0.1381   0.1670   0.1938   0.2263   0.2475   0.2812   0.3131   0.3411
     0.3813   0.3962   0.4684   0.5034   0.5253   0.5773   0.6359   0.6787
     0.7111   0.7417   0.7550   0.7797   0.8006   0.8136   0.8471   0.8761
     0.9110   0.9511   0.9686   1.0013   1.0146   1.0651   1.0850   1.1284
     1.1723   1.2393   1.2775   1.3218   1.4054   1.4620   1.4872   1.5173
     1.5396   1.6094   1.6202   1.6875   1.7399   1.7470   1.7817   1.8027
     1.8161   1.8373   1.8725   1.9043   1.9609   1.9808   1.9891   2.0017
     2.0335   2.0526   2.0620   2.1222   2.1685   2.2353   2.2595   2.2710
     2.2866   2.3257   2.3461   2.3889   2.5364   2.9587   3.0338   3.2249
     3.3353   3.4466   3.5323   3.7077   3.7625   3.9090   4.0208   4.2176
     4.2915   4.4759   4.5776   4.6238   4.9404   4.9633   5.1267   5.1929
     5.2798   5.3536   5.4546   5.5649   5.7817   5.8173   6.0337   6.4147
     6.4936   6.5621

          k = 0.2000-0.3464 0.0000 ( 89198 PWs)   bands (ev):

   -13.3242 -10.1848  -8.1980  -6.2378  -5.2843  -5.1164  -4.9796  -4.9683
    -4.8713  -4.1101  -4.0823  -3.9803  -3.9576  -3.9268  -3.9071  -3.8818
    -3.8413  -3.7910  -3.7611  -3.6814  -3.5377  -3.3900  -3.3691  -3.3586
    -3.3408  -3.2779  -3.2665  -3.1812  -3.1684  -3.1181  -3.1043  -3.0590
    -3.0330  -3.0201  -2.9743  -2.9587  -2.9323  -2.9024  -2.8665  -2.8382
    -2.8071  -2.7558  -2.7132  -2.5159  -2.4476  -2.4246  -2.3900  -2.3841
    -2.3649  -2.3280  -2.2777  -2.2568  -2.2281  -2.1792  -2.1487  -2.0959
    -2.0873  -1.9969  -1.9447  -1.9287  -1.9059  -1.8591  -1.8420  -1.7616
    -1.7427  -1.7063  -1.6496  -1.6252  -1.6006  -1.5438  -1.5263  -1.5090
    -1.4926  -1.4629  -1.4112  -1.3640  -1.3417  -1.2870  -1.2728  -1.2468
    -1.2390  -1.2074  -1.1516  -1.1127  -1.1060  -1.0708  -1.0438  -1.0093
    -0.9766  -0.9576  -0.9175  -0.9102  -0.8952  -0.8779  -0.8582  -0.8517
    -0.8317  -0.7916  -0.7476  -0.7047  -0.6923  -0.6749  -0.6490  -0.6270
    -0.6181  -0.5910  -0.5784  -0.5534  -0.5351  -0.5186  -0.4840  -0.4812
    -0.4726  -0.4047  -0.3625  -0.3466  -0.2987  -0.2784  -0.2284  -0.1557
    -0.1272  -0.0813   0.0061   0.0147   0.0469   0.1048   0.1383   0.1705
     0.1718   0.1997   0.2390   0.2627   0.2842   0.3010   0.3290   0.4105
     0.4444   0.4798   0.5070   0.5214   0.5685   0.6071   0.6720   0.6863
     0.7198   0.7414   0.7762   0.8152   0.8258   0.8489   0.9157   0.9329
     0.9836   1.0049   1.0213   1.0555   1.0756   1.0971   1.1219   1.1304
     1.1616   1.1806   1.2657   1.3012   1.3341   1.3587   1.4112   1.5419
     1.5591   1.6044   1.6331   1.6844   1.7008   1.7332   1.7555   1.7675
     1.7968   1.8317   1.8624   1.8717   1.8868   1.9087   1.9156   1.9572
     1.9839   2.0067   2.0301   2.0561   2.0720   2.1336   2.1719   2.2455
     2.2690   2.3021   2.3160   2.3500   2.4039   2.4981   2.5141   2.5866
     2.8350   3.0759   3.1874   3.3217   3.5149   3.5825   3.6987   3.7744
     3.9731   4.2719   4.4238   4.5255   4.6173   4.7854   4.8477   5.4355
     5.6751   5.7659   5.9116   6.0797   6.2099   6.4008   6.4305   6.4641
     6.5107   6.8155

          k = 0.4000-0.2309 0.0000 ( 89284 PWs)   bands (ev):

   -13.3241 -10.1849  -8.1951  -6.1075  -5.5124  -5.1861  -5.0388  -4.7883
    -4.4362  -4.4180  -4.2899  -4.0638  -4.0375  -3.9071  -3.8003  -3.7610
    -3.7164  -3.6697  -3.6381  -3.5293  -3.4799  -3.4619  -3.4472  -3.3738
    -3.3615  -3.2995  -3.2764  -3.2552  -3.2457  -3.2133  -3.1786  -3.1311
    -3.1128  -3.0272  -2.9062  -2.8771  -2.8529  -2.8442  -2.8381  -2.7777
    -2.6660  -2.6526  -2.6224  -2.6128  -2.5636  -2.5047  -2.4041  -2.3622
    -2.3482  -2.3093  -2.2771  -2.2445  -2.2113  -2.1873  -2.1683  -2.1434
    -2.1065  -2.0618  -2.0047  -1.9580  -1.9269  -1.8956  -1.8389  -1.7882
    -1.7684  -1.7130  -1.7017  -1.6712  -1.6446  -1.5778  -1.5557  -1.5137
    -1.4916  -1.4476  -1.4098  -1.3965  -1.3657  -1.3229  -1.2761  -1.2537
    -1.2223  -1.1875  -1.1642  -1.1345  -1.1148  -1.0870  -1.0589  -1.0361
    -1.0134  -1.0028  -0.9732  -0.9515  -0.9256  -0.9091  -0.8857  -0.8673
    -0.8309  -0.8072  -0.7798  -0.7640  -0.7484  -0.7140  -0.6871  -0.6428
    -0.6148  -0.5774  -0.5655  -0.5305  -0.5156  -0.4844  -0.4118  -0.3872
    -0.3416  -0.3192  -0.3034  -0.2892  -0.2564  -0.1992  -0.1496  -0.1087
    -0.0910  -0.0473  -0.0095   0.0288   0.0681   0.0816   0.1052   0.1112
     0.1438   0.1613   0.1767   0.2071   0.2506   0.2694   0.2918   0.3201
     0.3670   0.3991   0.4227   0.4473   0.4932   0.5407   0.6277   0.6594
     0.6855   0.7519   0.7861   0.8247   0.8807   0.9014   0.9264   0.9317
     0.9782   1.0088   1.0296   1.0568   1.0949   1.1249   1.1545   1.1869
     1.2043   1.2620   1.2677   1.2904   1.3276   1.3799   1.4226   1.4423
     1.4754   1.5272   1.5661   1.6363   1.6628   1.6834   1.6932   1.7121
     1.7354   1.7948   1.8094   1.8507   1.8759   1.9420   1.9559   1.9745
     1.9904   2.0173   2.0392   2.0591   2.1002   2.1741   2.2430   2.2656
     2.2716   2.2769   2.3270   2.5056   2.5200   2.6417   2.7977   2.9010
     3.1441   3.2479   3.3687   3.4983   3.5616   3.7775   3.9499   3.9950
     4.1781   4.3217   4.5563   4.6031   4.7113   4.7437   4.9115   4.9225
     5.1437   5.4075   5.6360   5.7327   5.9270   6.2636   6.4411   6.5563
     6.8141   6.9605

          k = 0.4000-0.0000 0.0000 ( 89198 PWs)   bands (ev):

   -13.3242 -10.1863  -8.1979  -6.2344  -5.2547  -5.1069  -5.0088  -4.9806
    -4.8595  -4.2011  -4.0502  -3.9691  -3.9465  -3.9268  -3.9046  -3.8926
    -3.8447  -3.7826  -3.7566  -3.6565  -3.5834  -3.3947  -3.3705  -3.3677
    -3.3252  -3.2823  -3.2405  -3.1816  -3.1430  -3.1273  -3.1088  -3.0648
    -3.0334  -3.0134  -2.9893  -2.9453  -2.9202  -2.9060  -2.8805  -2.8221
    -2.7999  -2.7386  -2.6721  -2.5244  -2.4541  -2.4448  -2.4136  -2.3797
    -2.3429  -2.3191  -2.3057  -2.2668  -2.2088  -2.1664  -2.1357  -2.0853
    -2.0320  -2.0283  -1.9634  -1.9231  -1.9082  -1.8694  -1.8502  -1.7865
    -1.7344  -1.6962  -1.6532  -1.6235  -1.5889  -1.5501  -1.5409  -1.5271
    -1.4995  -1.4553  -1.3994  -1.3654  -1.3302  -1.2979  -1.2890  -1.2632
    -1.2257  -1.1787  -1.1628  -1.1327  -1.1136  -1.0599  -1.0464  -1.0222
    -1.0016  -0.9579  -0.9232  -0.9152  -0.8963  -0.8698  -0.8604  -0.8444
    -0.8164  -0.7847  -0.7492  -0.7266  -0.7076  -0.6800  -0.6540  -0.6311
    -0.6161  -0.5897  -0.5640  -0.5467  -0.5144  -0.5060  -0.4872  -0.4631
    -0.4361  -0.4010  -0.3579  -0.3459  -0.2855  -0.2521  -0.2071  -0.1808
    -0.1323  -0.0434  -0.0230   0.0145   0.0457   0.0977   0.1137   0.1391
     0.1680   0.1932   0.2196   0.2663   0.2828   0.3188   0.3508   0.3790
     0.4503   0.5035   0.5169   0.5282   0.5477   0.5901   0.6272   0.6808
     0.7141   0.7525   0.7685   0.7973   0.8229   0.8709   0.9088   0.9546
     0.9583   1.0154   1.0212   1.0568   1.0677   1.0860   1.1136   1.1521
     1.1595   1.2092   1.2391   1.2892   1.3390   1.3634   1.4190   1.5189
     1.5887   1.5994   1.6277   1.6571   1.6988   1.7215   1.7617   1.7725
     1.8022   1.8403   1.8484   1.8692   1.8826   1.8944   1.9231   1.9477
     1.9864   2.0168   2.0464   2.0599   2.0777   2.1344   2.1759   2.2337
     2.2656   2.2859   2.3206   2.3367   2.3974   2.4789   2.5198   2.6701
     2.8695   3.0508   3.2204   3.3650   3.4494   3.5700   3.6253   3.7388
     4.1259   4.1686   4.4559   4.4757   4.5970   4.8039   5.0224   5.4060
     5.5867   5.7675   5.9831   6.1229   6.2054   6.3671   6.4237   6.4695
     6.5288   6.7041

          k = 0.4000 0.2309 0.0000 ( 89284 PWs)   bands (ev):

   -13.3241 -10.1873  -8.1951  -6.0995  -5.4830  -5.1895  -5.0544  -4.7872
    -4.4348  -4.4263  -4.3353  -4.1221  -3.9836  -3.8868  -3.8472  -3.7898
    -3.6870  -3.6576  -3.6344  -3.5225  -3.4838  -3.4733  -3.4635  -3.3697
    -3.3408  -3.3032  -3.2706  -3.2589  -3.2305  -3.1944  -3.1894  -3.1150
    -3.1033  -3.0350  -2.8900  -2.8791  -2.8551  -2.8382  -2.8182  -2.7716
    -2.6704  -2.6313  -2.6044  -2.6038  -2.5595  -2.5039  -2.4430  -2.3777
    -2.3204  -2.2903  -2.2588  -2.2536  -2.2055  -2.1737  -2.1667  -2.1248
    -2.1240  -2.0746  -2.0186  -1.9517  -1.9147  -1.8946  -1.8514  -1.7781
    -1.7726  -1.7427  -1.6961  -1.6879  -1.6722  -1.5709  -1.5363  -1.5147
    -1.4711  -1.4483  -1.4190  -1.4137  -1.3724  -1.2950  -1.2854  -1.2452
    -1.2265  -1.1951  -1.1603  -1.1473  -1.1246  -1.1078  -1.0796  -1.0304
    -1.0215  -1.0101  -0.9730  -0.9654  -0.9419  -0.9055  -0.9015  -0.8536
    -0.8461  -0.8107  -0.7735  -0.7696  -0.7438  -0.7245  -0.6569  -0.6227
    -0.6089  -0.5912  -0.5317  -0.5265  -0.4603  -0.4315  -0.4258  -0.3703
    -0.3569  -0.3313  -0.3187  -0.2695  -0.2682  -0.2052  -0.1867  -0.1284
    -0.0696  -0.0577  -0.0326  -0.0133   0.0421   0.0809   0.1184   0.1445
     0.1562   0.1757   0.1984   0.2259   0.2385   0.2703   0.2768   0.3155
     0.3356   0.3962   0.4439   0.4638   0.4888   0.5893   0.5897   0.6488
     0.7054   0.7310   0.7910   0.8355   0.8416   0.9094   0.9292   0.9563
     0.9784   0.9829   1.0015   1.0676   1.0931   1.1059   1.1165   1.1943
     1.1967   1.2423   1.2517   1.2932   1.3505   1.3687   1.4096   1.4586
     1.4989   1.5050   1.5909   1.6433   1.6455   1.6681   1.7006   1.7083
     1.7639   1.7816   1.8221   1.8407   1.8927   1.9225   1.9560   1.9817
     1.9821   2.0035   2.0111   2.0388   2.1022   2.2013   2.2482   2.2595
     2.2637   2.2794   2.3545   2.5091   2.5264   2.6492   2.6887   2.9372
     3.1986   3.3140   3.3973   3.5135   3.6322   3.6454   3.9028   4.0031
     4.1628   4.3842   4.5581   4.5711   4.7156   4.7526   4.7846   5.1224
     5.2368   5.4197   5.4434   5.7201   6.0128   6.3061   6.3739   6.5084
     6.9178   6.9227

          k = 0.4000-0.6928 0.0000 ( 89276 PWs)   bands (ev):

   -13.3240 -10.1864  -8.1907  -5.7214  -5.7131  -5.2504  -5.0524  -5.0065
    -4.5297  -4.4414  -4.0777  -4.0232  -3.8992  -3.8199  -3.7968  -3.7282
    -3.6590  -3.5998  -3.5531  -3.5091  -3.4695  -3.4442  -3.4297  -3.4094
    -3.3877  -3.3520  -3.3313  -3.2512  -3.2269  -3.2086  -3.1904  -3.1360
    -3.1023  -3.0495  -2.9751  -2.9503  -2.8923  -2.8384  -2.8144  -2.7988
    -2.7812  -2.7068  -2.6143  -2.5851  -2.5433  -2.4302  -2.4202  -2.4078
    -2.3490  -2.2832  -2.2578  -2.2055  -2.1392  -2.1098  -2.0837  -2.0548
    -2.0394  -1.9852  -1.9515  -1.9389  -1.9085  -1.8638  -1.8327  -1.8003
    -1.7805  -1.7580  -1.7492  -1.7297  -1.7187  -1.6820  -1.6166  -1.5938
    -1.5534  -1.4980  -1.4903  -1.4509  -1.4205  -1.3732  -1.3150  -1.3082
    -1.2866  -1.2777  -1.2586  -1.1774  -1.1675  -1.1560  -1.1163  -1.1046
    -1.0475  -1.0377  -0.9932  -0.9533  -0.9355  -0.9138  -0.8994  -0.8553
    -0.7880  -0.7499  -0.7367  -0.7136  -0.6974  -0.6653  -0.6535  -0.6288
    -0.6115  -0.5951  -0.5819  -0.5273  -0.5165  -0.5038  -0.4841  -0.4768
    -0.4734  -0.4374  -0.3999  -0.3662  -0.2877  -0.2349  -0.2092  -0.1381
    -0.1051  -0.0700  -0.0317   0.0147   0.0300   0.0403   0.0603   0.0842
     0.0977   0.1645   0.1773   0.2201   0.2508   0.2962   0.3230   0.3468
     0.3816   0.4081   0.4166   0.4644   0.5087   0.6067   0.6365   0.6715
     0.7100   0.7309   0.7510   0.7834   0.8341   0.8373   0.8543   0.8816
     0.9057   0.9488   0.9543   0.9827   1.0411   1.0510   1.0701   1.1324
     1.1611   1.2464   1.2874   1.3264   1.4346   1.4609   1.4838   1.4942
     1.5164   1.5880   1.6452   1.6607   1.7274   1.7609   1.7888   1.8016
     1.8358   1.8408   1.8616   1.8929   1.9552   1.9623   1.9863   2.0016
     2.0377   2.0517   2.0521   2.1393   2.1692   2.2186   2.2666   2.2797
     2.2980   2.3132   2.3462   2.3987   2.5399   2.8252   3.1426   3.2841
     3.3995   3.4722   3.5455   3.6829   3.7183   3.7882   3.9848   4.1759
     4.4252   4.4955   4.6725   4.7068   4.9154   4.9621   5.0436   5.1507
     5.2127   5.3460   5.3620   5.6694   5.7159   5.9219   6.1565   6.3382
     6.5264   6.5604

          k = 0.4000-0.4619 0.0000 ( 89276 PWs)   bands (ev):

   -13.3240 -10.1849  -8.1906  -5.7712  -5.6812  -5.2135  -5.1113  -4.9859
    -4.5167  -4.4205  -4.0915  -3.9859  -3.8990  -3.8209  -3.7939  -3.7109
    -3.6543  -3.5952  -3.5694  -3.5162  -3.4835  -3.4507  -3.4337  -3.4150
    -3.3901  -3.3660  -3.3129  -3.2417  -3.2280  -3.2144  -3.1840  -3.1580
    -3.1230  -3.0152  -2.9773  -2.9486  -2.9143  -2.8419  -2.8233  -2.7896
    -2.7686  -2.7457  -2.6192  -2.5963  -2.5416  -2.4414  -2.4116  -2.3830
    -2.3317  -2.3195  -2.2544  -2.2061  -2.1883  -2.1022  -2.0879  -2.0705
    -2.0160  -1.9633  -1.9457  -1.9303  -1.8939  -1.8667  -1.8436  -1.8211
    -1.7828  -1.7590  -1.7456  -1.7217  -1.6994  -1.6567  -1.6178  -1.6012
    -1.5413  -1.5119  -1.4705  -1.4499  -1.3895  -1.3762  -1.3504  -1.3245
    -1.2993  -1.2836  -1.2438  -1.1950  -1.1831  -1.1498  -1.1101  -1.0757
    -1.0511  -1.0144  -0.9846  -0.9480  -0.9373  -0.8963  -0.8863  -0.8567
    -0.8115  -0.7727  -0.7407  -0.6975  -0.6759  -0.6606  -0.6496  -0.6342
    -0.6100  -0.5908  -0.5808  -0.5467  -0.5205  -0.4922  -0.4819  -0.4757
    -0.4609  -0.4493  -0.4102  -0.3723  -0.3279  -0.2709  -0.2326  -0.1317
    -0.1088  -0.0558  -0.0266   0.0121   0.0199   0.0305   0.0651   0.0980
     0.1379   0.1669   0.1938   0.2262   0.2477   0.2814   0.3131   0.3411
     0.3813   0.3961   0.4684   0.5030   0.5253   0.5771   0.6358   0.6787
     0.7112   0.7417   0.7551   0.7798   0.8006   0.8137   0.8471   0.8762
     0.9110   0.9512   0.9686   1.0012   1.0145   1.0652   1.0849   1.1284
     1.1720   1.2394   1.2776   1.3219   1.4054   1.4621   1.4873   1.5174
     1.5394   1.6094   1.6202   1.6875   1.7399   1.7470   1.7816   1.8027
     1.8161   1.8373   1.8725   1.9044   1.9609   1.9808   1.9891   2.0017
     2.0334   2.0526   2.0619   2.1222   2.1685   2.2353   2.2595   2.2710
     2.2867   2.3257   2.3461   2.3889   2.5363   2.9585   3.0339   3.2253
     3.3348   3.4466   3.5323   3.7077   3.7622   3.9090   4.0213   4.2174
     4.2917   4.4759   4.5776   4.6243   4.9402   4.9637   5.1268   5.1929
     5.2800   5.3535   5.4548   5.5650   5.7811   5.8171   6.0337   6.4145
     6.4935   6.5622

     the Fermi energy is     2.0683 ev

!    total energy              =  -27816.12737666 Ry

     total all-electron energy =  -1326876.185072 Ry
     estimated scf accuracy    <       0.00000030 Ry
     smearing contrib. (-TS)   =       0.00335005 Ry
     internal energy E=F+TS    =  -27816.13072670 Ry

     The total energy is F=E-TS. E is the sum of the following terms:
     one-electron contribution =  -27185.41521830 Ry
     hartree contribution      =   13899.13971318 Ry
     xc contribution           =    -907.43165218 Ry
     ewald contribution        =   11871.20525502 Ry
     one-center paw contrib.   =  -25493.62882442 Ry

     convergence has been achieved in  19 iterations

     negative rho (up, down):  1.261E-02 0.000E+00

     Forces acting on atoms (cartesian axes, Ry/au):

     atom    1 type  1   force =    -0.00166842   -0.00097650   -0.00688929
     atom    2 type  1   force =     0.00044759   -0.00066168   -0.00335708
     atom    3 type  1   force =     0.00041002   -0.00003582   -0.00435422
     atom    4 type  1   force =    -0.00034188    0.00070498   -0.00336092
     atom    5 type  1   force =     0.00155099    0.00088450   -0.00497379
     atom    6 type  1   force =    -0.00006080   -0.00053806   -0.00412112
     atom    7 type  1   force =     0.00017635    0.00037598   -0.00436071
     atom    8 type  1   force =    -0.00048636    0.00022213   -0.00413334
     atom    9 type  1   force =     0.00026157    0.00015298   -0.00386294
     atom   10 type  1   force =     0.00241209    0.00139945   -0.00714751
     atom   11 type  1   force =    -0.00232601    0.00022118    0.00740628
     atom   12 type  1   force =     0.00064236   -0.00003988    0.00122948
     atom   13 type  1   force =    -0.00097937   -0.00212819    0.00739633
     atom   14 type  1   force =    -0.00295904   -0.00171622    0.00669349
     atom   15 type  1   force =     0.00296141    0.00043118    0.00480299
     atom   16 type  1   force =     0.00028896    0.00058161    0.00121174
     atom   17 type  1   force =     0.00185154    0.00236281    0.00478930
     atom   18 type  1   force =    -0.00172069   -0.00098141    0.00967899
     atom   19 type  1   force =    -0.00023292   -0.00015245   -0.00009429
     atom   20 type  1   force =    -0.00022991   -0.00014121    0.00019120
     atom   21 type  1   force =    -0.00025103   -0.00017970    0.00030250
     atom   22 type  1   force =     0.00003062   -0.00009817    0.00041675
     atom   23 type  1   force =    -0.00027828   -0.00010602    0.00027001
     atom   24 type  1   force =    -0.00000270    0.00000051   -0.00000119
     atom   25 type  1   force =    -0.00019377   -0.00011812   -0.00024846
     atom   26 type  1   force =    -0.00025089   -0.00013134   -0.00009592
     atom   27 type  1   force =    -0.00007992    0.00007768    0.00041346
     atom   28 type  1   force =    -0.00023006   -0.00012712    0.00055561
     atom   29 type  1   force =    -0.00034745   -0.00022756    0.00056346
     atom   30 type  1   force =     0.00008842   -0.00010407    0.00035510
     atom   31 type  1   force =    -0.00036043   -0.00017951    0.00057630
     atom   32 type  1   force =    -0.00058030    0.00008124    0.00084863
     atom   33 type  1   force =     0.00001098   -0.00029741   -0.00024518
     atom   34 type  1   force =    -0.00003194    0.00010982    0.00038055
     atom   35 type  1   force =    -0.00027508    0.00016051   -0.00023647
     atom   36 type  1   force =    -0.00036858   -0.00021353    0.00032245
     atom   37 type  2   force =     0.00102789    0.00057920    0.00042974
     atom   38 type  2   force =     0.00220562    0.00108295   -0.00077594
     atom   39 type  2   force =    -0.00442786    0.00176684    0.00078756
     atom   40 type  3   force =     0.00013739   -0.00029838    0.00031947
     atom   41 type  3   force =    -0.00014346    0.00019078    0.00024636
     atom   42 type  3   force =     0.00096692   -0.00041075    0.00032326
     atom   43 type  3   force =     0.00335643   -0.00152324   -0.00225266

     Total force =     0.007496     Total SCF correction =     0.002195
     SCF correction compared to forces is large: reduce conv_thr to get better values

     negative rho (up, down):  1.261E-02 0.000E+00

     negative rho (up, down):  1.261E-02 0.000E+00

     negative rho (up, down):  1.261E-02 0.000E+00

     negative rho (up, down):  1.261E-02 0.000E+00

     negative rho (up, down):  1.261E-02 0.000E+00

     negative rho (up, down):  1.261E-02 0.000E+00

     negative rho (up, down):  1.261E-02 0.000E+00

     negative rho (up, down):  1.261E-02 0.000E+00

     negative rho (up, down):  1.261E-02 0.000E+00

     negative rho (up, down):  1.261E-02 0.000E+00

     negative rho (up, down):  1.261E-02 0.000E+00

     negative rho (up, down):  1.261E-02 0.000E+00

     negative rho (up, down):  1.261E-02 0.000E+00

     negative rho (up, down):  1.261E-02 0.000E+00

     negative rho (up, down):  1.261E-02 0.000E+00

     negative rho (up, down):  1.261E-02 0.000E+00

     negative rho (up, down):  1.261E-02 0.000E+00

     negative rho (up, down):  1.261E-02 0.000E+00

     negative rho (up, down):  1.261E-02 0.000E+00

     negative rho (up, down):  1.261E-02 0.000E+00

     negative rho (up, down):  1.261E-02 0.000E+00

     negative rho (up, down):  1.261E-02 0.000E+00

     negative rho (up, down):  1.261E-02 0.000E+00

     negative rho (up, down):  1.261E-02 0.000E+00

     negative rho (up, down):  1.261E-02 0.000E+00

     negative rho (up, down):  1.261E-02 0.000E+00

     negative rho (up, down):  1.261E-02 0.000E+00

     negative rho (up, down):  1.261E-02 0.000E+00

     negative rho (up, down):  1.261E-02 0.000E+00

     negative rho (up, down):  1.261E-02 0.000E+00

     negative rho (up, down):  1.261E-02 0.000E+00

     negative rho (up, down):  1.261E-02 0.000E+00

     negative rho (up, down):  1.261E-02 0.000E+00

     negative rho (up, down):  1.261E-02 0.000E+00
 BEEFens 2000 ensemble energies
             -0.607443942281920E+02
             -0.362249261559322E+01
             -0.158496707939183E+02
              0.429988821563149E+02
             -0.221330606498820E+02
             -0.205378387580496E+02
             -0.352783018300989E+02
             -0.866109591890555E+02
             -0.465175408785967E+02
             -0.473046423101838E+02
             -0.369741273802891E+02
              0.226920245035062E+01
              0.407710808158168E+01
              0.760222661780332E+01
              0.266735016657256E+01
              0.475457246415948E+02
             -0.208985816099818E+02
             -0.230211757001066E+02
              0.193454482851389E+02
             -0.112483643888849E+03
              0.536896839071519E+02
             -0.290024160591911E+02
             -0.336705455792011E+01
             -0.114139895354782E+02
             -0.882461267434019E+01
             -0.464118376622255E+01
              0.883583948455824E+02
             -0.187552460652083E+02
             -0.900881868458396E+01
             -0.519080032655284E+02
              0.816110257188200E+02
             -0.187168281302672E+02
             -0.375556710069654E+02
              0.249309956616212E+02
             -0.285117821859001E+01
              0.164592864833284E+02
             -0.484344466170074E+01
              0.107923889884497E+02
              0.288883780364939E+02
             -0.103368304066195E+03
              0.558968618802498E+02
              0.142471744095783E+02
             -0.174503579625485E+01
             -0.361726066978701E+02
              0.123380137294387E+02
             -0.147029280518317E+02
              0.399172680464899E+02
              0.365087407292318E+02
             -0.308158535007224E+02
             -0.275553820346717E+02
             -0.328929211467467E+02
             -0.352498914583773E+02
              0.136586998929398E+02
             -0.491460504140748E+02
              0.115797569306981E+02
              0.623521156188873E+02
              0.636248137703595E+02
              0.356054558892365E+02
              0.154174311816450E+02
              0.270879620273464E+02
              0.892363754536384E+02
              0.212737628701732E+02
             -0.549134032907434E+02
             -0.156989829497955E+02
             -0.236292237290402E+02
              0.630515452368140E+02
             -0.773921908806106E+02
             -0.672299088051983E+02
             -0.259897333426090E+02
             -0.648658115116507E+01
             -0.471118678451070E+02
              0.270960114212299E+02
              0.802647640523503E+01
              0.869987724852751E+01
             -0.397549241522092E+02
             -0.347312461279740E+02
             -0.542577479995037E+02
              0.390742580938863E+02
             -0.296466757839721E+02
              0.265546315953752E+02
             -0.715873294096164E+01
             -0.318258544221829E+02
             -0.576692746700295E+02
             -0.176868410714060E+02
             -0.908402785569604E+01
             -0.124885868340736E+02
              0.412502377828252E+02
              0.683586868276559E+02
             -0.386048357125216E+02
             -0.795437030586653E+02
             -0.219646843970462E+02
              0.111609521845830E+03
             -0.593004419933516E+02
              0.356493654094807E+02
             -0.959129392034413E+01
             -0.663581731752686E+02
              0.254534007341522E+02
              0.398135089552065E+02
             -0.199086646941314E+02
              0.400397028756482E+02
             -0.296129134080347E+02
             -0.478960163209915E+02
              0.867193241167211E+02
              0.454534616081553E+02
              0.336492343964829E+02
              0.146606437865238E+02
              0.206019664041256E+02
              0.857196586966455E+02
             -0.256832481312003E+02
              0.787460494283501E+01
             -0.142521610298815E+03
              0.181271135651690E+02
             -0.716861788835966E+02
              0.151050207823118E+02
              0.204853287543818E+02
             -0.333230758140629E+02
             -0.557677931253870E+02
              0.653837296830613E+01
             -0.304495017795397E+02
              0.308626597794441E+02
             -0.530257751847969E+02
              0.169079243417116E+01
             -0.357301004873407E+02
             -0.424395451924994E+01
             -0.103376456349429E+01
              0.181567541057687E+02
              0.144038530424598E+01
             -0.651186272815062E+01
              0.591093113371181E+02
              0.909173324558151E+02
              0.484738444129132E+02
              0.830744187637816E+02
             -0.115078701633093E+02
              0.143328021330112E+02
              0.541507056173531E+02
             -0.110637403580357E+02
             -0.736484547738849E+02
             -0.384656082490649E+02
             -0.522240090402946E+02
             -0.276925589712148E+02
              0.327424748202087E+02
             -0.116906674930040E+03
             -0.187412565281022E+02
              0.414666506259551E+02
             -0.386576063683256E+02
             -0.365809373349172E+02
              0.544740118023024E+02
              0.401166016623705E+02
             -0.354246553632633E+02
              0.138181166167001E+02
             -0.273473047243759E+02
              0.343564250365756E+02
              0.445350164921911E+01
              0.210981296418414E+02
             -0.885447622180810E+02
             -0.480452848688250E+02
             -0.995015689354864E+01
              0.321315218673566E+01
             -0.367132552828114E+02
              0.106135298796996E+03
             -0.230861192356386E+02
             -0.398766860825457E+02
              0.389212591697349E+02
             -0.494609126361092E+02
             -0.363760632574779E+02
              0.325034292251162E+02
              0.124648360887886E+02
              0.164454654536254E+02
              0.116809979883598E+02
             -0.132938956365300E+02
              0.225038519583773E+02
              0.590477197424955E+02
             -0.311772704509471E+02
              0.162639395562207E+02
              0.935173789954866E+02
              0.341124533299946E+02
             -0.728617541348694E+01
             -0.189021743369887E+02
              0.153500982851717E+03
             -0.164548372261319E+02
              0.363671541630029E+02
              0.194883132407884E+02
              0.361680993350252E+02
              0.892894033565805E+02
              0.543376002056273E+02
             -0.240549159720246E+01
              0.228113978049300E+02
              0.485658104177318E+02
              0.364008517778288E+02
             -0.526176588813589E+02
              0.936833684081950E+02
             -0.826399269640550E+02
             -0.198165019469213E+02
              0.583253498675503E+02
              0.679671816802622E+01
              0.790978811052230E+01
              0.340961691057440E+02
              0.299225088621425E+02
              0.353929878772737E+02
             -0.638217860294218E+02
              0.287527601281715E+01
             -0.297754917211648E+02
             -0.871069154101430E+01
             -0.147512324396507E+01
             -0.726427365157446E+01
             -0.415976753386838E+01
              0.859998241815696E+02
             -0.100991109300013E+02
             -0.276649872159245E+02
             -0.495769414509596E+01
              0.140102270828637E+02
             -0.564802559369458E+02
             -0.407944181885568E+02
             -0.382257210267859E+02
             -0.631121841495710E+02
             -0.170042987116181E+02
             -0.447866383082129E+02
              0.163569159653586E+02
             -0.239322704496234E+01
             -0.104521541931875E+02
             -0.935247700766058E+01
              0.807454062668597E+01
             -0.242630891882255E+02
              0.689907047798669E+02
             -0.808121854953974E+02
             -0.141230727739365E+02
             -0.173989446527147E+02
              0.181852505199849E+02
              0.214854426615827E+02
             -0.464360210761545E+02
             -0.202143430877896E+02
              0.441241777389368E+02
             -0.276122933127718E+02
              0.187204232317936E+02
              0.382921320645875E+02
             -0.323855930954414E+01
              0.114267681198914E+03
             -0.230062135000186E+02
             -0.341363664709658E+02
              0.577669583542593E+01
             -0.228587806972977E+02
              0.528218618810227E+02
             -0.337791833419526E+02
              0.106662061727037E+02
              0.640963855605907E+02
             -0.126253926943268E+02
              0.120361363052820E+03
              0.126003610740838E+03
             -0.650582885005874E+02
              0.591242448920225E+02
              0.166844570835348E+02
             -0.518341988906855E+02
              0.216222534757715E+02
              0.354555895333880E+02
              0.363274800428472E+02
              0.135025020480106E+01
              0.159879156432960E+02
              0.696447931531928E+02
             -0.247155366242952E+02
              0.181203049747615E+02
              0.739398384993464E+02
             -0.372732524879720E+02
             -0.130069206799524E+02
              0.509310859491477E+02
              0.297721827942373E+02
              0.781090104108006E+02
              0.223011766868359E+02
              0.627341941309533E+01
              0.280537926139034E+02
              0.383676872634112E+02
             -0.472401550829274E+02
              0.333171278415176E+01
              0.130297790477665E+02
              0.114060607350251E+02
              0.220766124668031E+02
             -0.575493218816892E+02
              0.366419676307723E+02
             -0.444316313994306E+02
             -0.347795860489730E+02
              0.178314742989041E+02
             -0.181219341176239E+02
              0.555928328673826E+02
             -0.256167126336633E+02
              0.267182722664633E+02
              0.368528586319131E+02
              0.829937522587657E+02
              0.575072428394366E+02
              0.462122873645365E+02
             -0.105391573597863E+02
             -0.394238878402803E+01
             -0.332235584337425E+02
              0.751524801618933E+02
              0.797973154799856E+02
              0.362437487755572E+02
             -0.192355185744969E+02
              0.512376069189994E+02
             -0.162571054806641E+02
              0.214790005058353E+02
              0.615149777975058E+02
              0.214842599190823E+01
             -0.104308979811059E+02
             -0.283027826790244E+02
             -0.512440019578719E+02
              0.946497482508024E+02
              0.440380606006008E+02
             -0.559974173975454E+02
             -0.967705807117093E+01
              0.249978644260820E+02
             -0.996268372156186E+01
              0.592842136230188E+02
              0.152382086483640E+02
              0.800060721326871E+02
              0.279942303501485E+02
             -0.264223198636628E+02
              0.249215129208422E+02
             -0.502855264907299E+01
             -0.323832608960540E+02
              0.133385949865327E+02
              0.205820507136433E+02
              0.933845975324224E+02
              0.798071597882804E+02
              0.551541291479027E+02
              0.731321817778437E+02
              0.800732557633074E+01
             -0.274053009062524E+02
              0.163331849054512E+02
             -0.368167790717537E+02
             -0.476989724579343E+02
             -0.564137421644999E+02
             -0.266913797590882E+02
             -0.109792615234319E+03
             -0.291965378682526E+02
             -0.838230918728172E+02
              0.210438199676020E+02
             -0.477353788969480E+02
              0.397426167245771E+02
             -0.942422280074329E+02
             -0.330484857235769E+02
              0.548669614163015E+02
              0.207996984396430E+02
             -0.831803227547894E+02
              0.631503858484937E+02
             -0.257124856162492E+02
              0.512920086382796E+02
             -0.242714588539736E+02
             -0.752230260955240E+02
              0.111985937518496E+02
             -0.611958994985465E+02
             -0.167868484440535E+02
             -0.148379426371386E+01
              0.418550431796625E+02
              0.127138342314462E+03
             -0.462103288705390E+02
             -0.363119450636504E+02
             -0.979584232126456E+00
             -0.130166551891832E+02
             -0.823518750254890E+02
             -0.597179261048383E+02
              0.517735745994264E+02
             -0.288922209178889E+02
              0.169763593297903E+02
             -0.489797522674564E+02
             -0.132058299865092E+02
             -0.437616867273900E+02
              0.566055980517753E+02
              0.151126935501818E+02
             -0.231964771981836E+02
             -0.127166628901897E+02
              0.669468713281353E+01
             -0.618376742486367E+01
              0.441933756383059E+02
             -0.252175698731783E+02
              0.278492764980592E+01
              0.339808767948743E+02
              0.171288642243734E+02
             -0.160094018784148E+02
              0.156431362603207E+03
              0.538654429430401E+02
              0.119633542699574E+01
              0.161628964850413E+02
             -0.615305057825500E+02
              0.315448929857853E+02
             -0.722744041383167E+02
             -0.252631783460824E+02
             -0.523367261046791E+02
             -0.220296932018542E+02
              0.570007907911908E+02
             -0.537646502729628E+02
              0.161338385566434E+02
             -0.410286969162394E+01
              0.387052828786892E+01
             -0.434024137205561E+02
             -0.478817847272750E+02
             -0.401800566041686E+01
             -0.425078372501285E+02
             -0.217449031494600E+02
             -0.438848918844308E+02
             -0.119312999386390E+02
             -0.359207397288174E+02
             -0.517013006349823E+02
              0.212770575196420E+02
             -0.209152181415498E+02
              0.188157023068255E+02
              0.974999439552704E+01
             -0.738919241990372E+02
             -0.548580570504346E+02
             -0.398911866337940E+02
              0.354325096944360E+02
              0.268106488022823E+01
             -0.627088031885380E+02
              0.586378316593768E+02
             -0.401622557292642E+02
              0.545711415809436E+02
             -0.289901059444507E+02
             -0.446426282528105E+02
              0.298647330501423E+02
             -0.658542284117136E+02
             -0.380124023892675E+02
              0.673002032756031E+02
              0.204239918224739E+02
             -0.360684379005587E+02
              0.489925625019197E+02
             -0.174177222642589E+02
             -0.323300551763949E+02
             -0.301976458944172E+02
             -0.501221879069693E+02
              0.249786252729726E+02
             -0.933963393938772E+02
             -0.840809878162684E+02
             -0.736327690737789E+01
             -0.307232147199452E+02
             -0.576204658371459E+02
              0.722677461111969E+02
              0.131685869730521E+03
             -0.360965392019855E+02
             -0.257086518478286E+01
             -0.637479971151692E+02
              0.651483362142887E+02
              0.170903085889177E+02
             -0.181829058662348E+02
             -0.410373987223853E+02
              0.148805784898439E+02
             -0.586715730050511E+02
             -0.197854286246101E+02
             -0.905415892083323E+02
              0.337333100855553E+02
              0.168882025677443E+02
              0.183269447128362E+01
             -0.708719996746299E+01
             -0.330101113787950E+02
             -0.760802158216990E+01
              0.125674901021319E+03
             -0.199305248991316E+02
             -0.438026399043934E+02
             -0.684769855118699E+02
              0.109474315484200E+02
             -0.342654480552755E+02
              0.592715310673942E+01
              0.261896048252732E+02
              0.102173171048656E+02
              0.278347104803732E+02
              0.120151632863052E+02
              0.630290591086919E+02
              0.317027325046076E+02
             -0.327082502292214E+02
              0.356617647932628E+02
              0.379772601292988E+02
              0.120995872083494E+02
              0.487130654663302E+02
             -0.225327418132857E+02
              0.766344028656333E+02
              0.172730881641252E+02
             -0.272626953913158E+02
             -0.722326377078276E+01
             -0.186634180791224E+02
              0.261975462438437E+02
             -0.234841299270679E+02
             -0.153240761563552E+00
             -0.849848792179114E+01
              0.810846886274607E+02
              0.500684728382637E+02
             -0.687558494087670E+02
             -0.476589851386407E+01
             -0.555767734512708E+02
             -0.159634029102954E+02
             -0.268307541697102E+02
              0.377181542579262E+01
              0.587160142092236E+00
             -0.257839481713643E+02
              0.817312481141869E+01
             -0.604137392143117E+01
             -0.128403228377396E+02
              0.860020627940663E+02
              0.181962366396612E+02
             -0.808194555929327E+02
             -0.458670138305117E+02
              0.946153968886399E+02
              0.278077674916060E+02
             -0.106914421195241E+02
              0.104681826431882E+03
             -0.194949311573102E+02
             -0.123132970979797E+02
             -0.540640522963770E+01
              0.107536039713665E+02
              0.272984262981739E+02
              0.779455304958478E+01
              0.305615108113425E+02
             -0.188107256695650E+02
             -0.304320268095751E+02
             -0.418409957533364E+02
             -0.477278610549416E+02
              0.464361401819463E+02
              0.126964483611184E+02
              0.387936799666121E+02
              0.133608887125813E+02
              0.856682075649085E+02
              0.156705642472098E+02
             -0.846988191522327E+02
             -0.334731670536169E+02
              0.133609825934903E+02
             -0.302988920228464E+02
              0.627203767287195E+02
             -0.888445416931722E+01
              0.148991614956181E+02
              0.497842304055641E+02
             -0.708376507045708E+02
              0.149885832579860E+03
              0.208844664824657E+02
              0.271572145201567E+02
              0.348049577684222E+02
              0.103484410856255E+02
             -0.157845195770625E+01
              0.358638465988940E+02
             -0.357446599813228E+02
              0.774420087254069E+02
              0.685793952011106E+02
             -0.406396960259517E+02
              0.149474525300735E+02
              0.671014497216365E+02
             -0.224101958656500E+02
              0.154694580853235E+02
              0.435273959038070E+02
              0.422654469362769E+02
             -0.785472453225880E+02
             -0.152669471571988E+02
             -0.356248069696626E+02
             -0.148463526664307E+01
             -0.764846454716439E+01
             -0.541399085580997E+01
             -0.180742638628470E+02
             -0.294114916875383E+02
              0.636821278124532E+01
              0.111775287609246E+02
              0.536148229942141E+02
             -0.390887840844126E+02
              0.375109364756360E+02
              0.439052049568822E+02
             -0.186479700225576E+02
              0.872979691958768E+02
             -0.698695158203449E+02
             -0.103306759991826E+03
             -0.662633631983290E+01
             -0.270144819332256E+01
              0.384771572168938E+01
              0.790517626006484E+02
             -0.106977519310521E+02
              0.417241711990039E+02
              0.444339684973850E+02
              0.385852042421177E+02
             -0.996565549320519E+01
              0.628086868755797E+02
             -0.133950334999742E+02
             -0.307911436522919E+02
             -0.479376421314699E+02
              0.589587093889540E+01
              0.369634363255238E+02
             -0.602687739618335E+01
              0.393238936001991E+02
             -0.178180839252929E+01
              0.655822501541901E+02
              0.187569541678430E+02
              0.100068626502637E+02
             -0.121510086627417E+02
              0.332456538582768E+02
              0.363267421906369E+02
              0.232816428817007E+02
             -0.518127889746211E+00
             -0.551085847007702E+02
              0.261282896879995E+02
              0.175502378124490E+02
              0.402774691024070E+02
              0.272601299462363E+02
              0.372986654298805E+02
             -0.606124359986552E+01
              0.251521124744700E+02
             -0.299017572048801E+02
             -0.196299892074330E+01
             -0.569748949407030E+02
             -0.308491617034508E+02
              0.379201173496747E+02
             -0.936553657460534E+02
              0.294665891754400E+02
              0.184031460514590E+02
              0.841296757553062E+02
             -0.300342873275876E+02
              0.329823081616701E+02
             -0.137943886446164E+02
             -0.464710960049690E+02
             -0.762247871358807E+02
             -0.529753049947479E+01
             -0.860945186128728E+02
              0.199715921925523E+02
             -0.247633272416894E+02
              0.306281943644347E+02
              0.237375231766779E+02
             -0.241501766447978E+02
             -0.265676800863770E+02
              0.391500174375663E+02
             -0.588891730994215E+02
             -0.116922937239937E+02
             -0.196315154337120E+02
              0.212927220835867E+02
             -0.888086305746754E+01
              0.364677901941553E+01
             -0.200732246791927E+02
              0.559530953600657E+02
             -0.440453709160095E+02
              0.787430796189278E+01
              0.586131009113766E+02
             -0.323871701798672E+02
              0.361171005310524E+01
             -0.880277431331717E+01
             -0.670086021652926E+02
             -0.482824206337859E+02
             -0.860755721403705E+01
              0.241265238888863E+02
              0.302922362737835E+02
              0.858398031023637E+01
             -0.419069509726307E+01
              0.152092049800250E+02
             -0.440224631420178E+02
              0.332954683803337E+01
             -0.531534335043710E+02
             -0.325171955643117E+02
              0.475492733642714E+02
             -0.295529222506722E+02
              0.623404246612416E+02
             -0.214919420431791E+02
              0.353983240066864E+02
              0.242026753723189E+02
             -0.644781442676108E+02
             -0.280617145881297E+02
              0.934658457923393E+01
             -0.372530769366368E+02
             -0.340070484293490E+02
             -0.831328640972242E+02
             -0.539891380173057E+02
             -0.511128131034942E+02
             -0.416165263726546E+02
             -0.981408891728961E+00
              0.100125817574557E+02
              0.106922449709970E+01
              0.153797403617279E+02
             -0.550096769945716E+02
              0.142023635813860E+02
              0.257077055675679E+02
             -0.667482388036415E+02
             -0.702506434548022E+02
             -0.431830136607672E+02
             -0.172593701182155E+02
              0.178647418764319E+02
              0.454596048488543E+01
             -0.426341735768970E+02
              0.366477386611848E+02
             -0.216442288867923E+02
              0.518009137288919E+02
             -0.888428756977196E+02
              0.598740061726808E+02
             -0.216800273725521E+01
             -0.368840734467512E+02
             -0.216833502306705E+02
              0.471869291576810E+01
              0.375368364063364E+02
             -0.757025592878800E+02
             -0.120998458978351E+02
             -0.216854833444684E+02
              0.511427354316778E+02
              0.865733340984598E+02
             -0.966559765372792E+02
              0.945089977140000E+02
              0.468034487782340E+02
             -0.726371850270131E+02
             -0.366838130308847E+02
              0.752820425933068E+02
              0.632597614564435E+02
             -0.181227905402960E+02
             -0.463705239491998E+01
              0.734675962389770E+01
              0.650128207098847E+02
             -0.509226276041696E+02
              0.158485025754910E+02
             -0.475076842177725E+01
              0.347836559933563E+02
             -0.747835286058910E+02
             -0.647768229527679E+01
             -0.351215316645337E+02
              0.461231592864073E+02
              0.469136593730387E+02
             -0.863143474805731E+02
             -0.487741835726199E+02
             -0.256367024325547E+02
             -0.340095657564022E+02
             -0.109485384310039E+02
             -0.242743772925998E+02
              0.427832492513858E+02
              0.401578265345292E+02
             -0.563694134184624E+01
             -0.416968028887623E+02
             -0.851569353369040E+02
              0.443753146925790E+02
             -0.523721092138772E+02
             -0.313584228772699E+02
              0.548086285261634E+01
             -0.323207148345486E+02
             -0.398539087724159E+02
             -0.240535185269890E+02
             -0.386154175491338E+02
             -0.271183380409391E+02
             -0.483098194554730E+02
              0.564546526504903E+02
              0.638604192605535E+02
             -0.174196436439900E+01
             -0.261399212240023E+02
             -0.623018548164782E+01
              0.441605394530725E+02
             -0.868737615418602E+02
             -0.146631801341638E+02
              0.524170437703405E+02
[...]
              0.283527138948484E+02
              0.141951014236493E+03
              0.242638229639516E+02
              0.122743796470943E+02
             -0.464915997468995E+02
             -0.638362115700972E+02
             -0.188976096852734E+02
              0.329759356862851E+02
             -0.427698890302156E+01
              0.190365542929072E+02
              0.336694527519056E+02
             -0.587116334662725E+02
              0.222684233565395E+02
              0.582153990948600E+02
              0.553455466945960E+02
             -0.422007508981864E+01
             -0.135512652268051E+01
             -0.993183894190392E+01
             -0.482669452680203E+02
             -0.675765389003215E+02
              0.786245738903003E+02
             -0.525202354544817E+01
             -0.588329361510401E+02
              0.174392091027761E+01
             -0.205611526992118E+02
              0.939139926334510E+02
             -0.216902451672885E+02
             -0.354065742766334E+02
              0.335590885407773E+02
             -0.145971813800683E+02
              0.390106227575498E+02
             -0.234783034885743E+01
              0.101162539004293E+03
              0.490372353459429E+02
             -0.505243585299829E+01
             -0.322528150379665E+02
              0.232535933301760E+02
             -0.529105372293677E+02
             -0.127993678526699E+02
              0.586382555009945E+02
             -0.287991735970917E+02
             -0.438817371305054E+02
             -0.223578393094267E+02
              0.519198727628147E+02
              0.124886952861487E+02
             -0.849385329993073E+02
              0.304061527476899E+02
              0.151907663357933E+02
              0.578081964908571E+01
             -0.513932323104040E+02
             -0.376376915935555E+01
              0.323541190196880E+02
              0.512960809154735E+02
              0.633408341932687E+02
              0.229443770284245E+02
              0.790385316798933E+00
             -0.498598866576903E+02
             -0.510264559596390E+02
             -0.748242046024025E+02
             -0.619564606311621E+01
              0.309256272444261E+02
             -0.374819794830290E+01
              0.547423755620355E+02
             -0.318336427293320E+02
              0.166859410942255E+02
             -0.102961656073453E+02
             -0.289705746631048E+02
              0.586098006626430E+02
              0.792277984931246E+01
              0.604956731023694E+02
              0.507314965651256E+01
              0.265145489208589E+02
             -0.192860035743256E+02
              0.586686728668208E+02
             -0.111613757467125E+02
             -0.126918033435988E+00
             -0.790841592931574E+02
             -0.128307402370100E+02
              0.719554013430026E+02
              0.673582961885943E+02
              0.252321809501969E+02
             -0.130623885997425E+02
              0.345678067518770E+01
             -0.173890641862419E+02
             -0.210438501529757E+01
              0.908676001340449E+02
              0.126803574520181E+01
             -0.190928677989577E+02
             -0.110849755756130E+03
             -0.552771416608700E+02
             -0.375303189447941E+02
             -0.659069039362792E+02
             -0.556120588231706E+02
             -0.683071023325102E+02
             -0.447559273383962E+02
             -0.411022646631463E+02
             -0.452413721948816E+02
              0.483777272625293E+02
             -0.294165735743501E+02
             -0.995682185803686E+02
              0.419057203385179E+02
             -0.260463027977130E+02
             -0.791727066928010E+02
              0.944698066453032E+02
             -0.220049756562881E+02
              0.228114540531242E+02
              0.455158924176960E+02
             -0.131576017614378E+01
              0.254726540706054E+02
              0.468310021723468E+01
              0.421667665816599E+00
             -0.150685601271588E+02
             -0.716378903084539E+02
              0.133067355289347E+02
             -0.129472658699159E+03
              0.624968213857861E+02
             -0.440983075961216E+02
             -0.163315755016206E+02
             -0.158596647151043E+02
              0.717919772608224E+01
             -0.227745581422543E+02
              0.297241923829014E+02
             -0.521240932479488E+02
              0.367367644429331E+02
              0.371230432998520E+02
              0.168406822137536E+02
              0.100528898697867E+02
              0.198036501791886E+02
              0.623876324421178E+01
              0.310513867877372E+02
             -0.797145792674215E+01
             -0.593206601029814E+02
              0.758040018490152E+01
             -0.153102223352908E+02
             -0.193141487976629E+01
              0.506802906389327E+02
             -0.827413512820061E+02
             -0.148873110073782E+01
              0.586639490351502E+00
              0.996055518983815E+01
              0.318797874083436E+02
             -0.123743562371720E+02
              0.836594345578932E+02
              0.487689364413921E+02
             -0.183181024339268E+02
             -0.956141933861221E+01
              0.106076851164235E+01
              0.770218061158387E+02
             -0.586638515723158E+02
             -0.105835853350653E+03
              0.309348416633781E+02
             -0.163211812706906E+02
             -0.139500069946971E+02
              0.130959113021995E+02
              0.769093861413565E+02
              0.464391426591785E+02
             -0.153654812221665E+02
             -0.503636618816744E+02
             -0.551632032046088E+01
              0.306632642559565E+02
             -0.111747362688713E+02
             -0.756461813736005E+02
             -0.273425032176641E+01
             -0.891016150722637E+02
             -0.476183307462723E+02
              0.769584603392169E+02
             -0.484054330583228E+02
             -0.637237018319280E+02
             -0.514675482753286E+02
             -0.350235469591198E+02
              0.341035113950197E+02
              0.822270657989043E+02
             -0.358842929671420E+01
              0.276882378372173E+02
             -0.183954479277320E+02
             -0.694713605379795E+02
              0.465488904987876E+02
             -0.445502280918012E+02
              0.321758290161500E+02
              0.376319133516933E+02
             -0.656753398576609E+01
              0.390668581923910E+02
              0.438508565515790E+02
              0.100805717152850E+03
             -0.155960494928246E+02
             -0.456946364765026E+02
             -0.613527856709121E+02
             -0.124360501132964E+02
             -0.233435408258955E+02
              0.103074289623267E+03
             -0.449298068869975E+02
              0.105308366486847E+02
              0.971166715587566E+01
             -0.264748805123185E+02
             -0.799663697520263E+02
             -0.698750598010247E+01
              0.980731191856302E+02
              0.941474463995871E+01
              0.808073314534676E+01
             -0.527765674978752E+02
             -0.606060543853669E+02
             -0.567180647943216E+01
              0.500990040674684E+02
             -0.222122548225393E+02
              0.108054164337102E+03
             -0.435945413193536E+02
              0.146566764134636E+02
             -0.224152238171700E+02
             -0.718960653605823E+02
              0.170105333727292E+01
             -0.502229063479940E+02
             -0.761277790375215E+02
              0.618052476184516E+01
              0.238580084256918E+01
              0.514560065440920E+02
              0.187592393769747E+02
             -0.323950493242097E+02
              0.230074416973160E+02
             -0.811872481006579E+02
             -0.522139724457780E+02
              0.902517090896085E+02
              0.142284484613760E+02
             -0.187877783266181E+02
             -0.352411797023890E+02
             -0.270045426419415E+01
             -0.589443740191655E+01
              0.830904596745351E+02
              0.417973166955729E+02
             -0.166029380623405E+02
             -0.121615524490645E+02
             -0.427696902515465E+02
             -0.200519484122287E+02
             -0.670469079352402E+02
              0.460137389900219E+02
              0.546952036661742E+01
              0.144882204841826E+02
              0.156386024217062E+02
             -0.599220589062757E+00
             -0.168662865690585E+02
             -0.304376651583858E+01
             -0.100547258375296E+03
             -0.229845931365672E+02
             -0.766607378351898E+01
             -0.948668823136177E+01
              0.546839297218895E+02
              0.624464623107611E+02
              0.165041750201102E+02
             -0.971315022160586E+02
              0.648189921400664E+02
             -0.215234722010890E+02
             -0.377419379218345E+02
             -0.865015578709672E+02
             -0.386866247698545E+02
              0.565229363658141E+02
              0.244483732346351E+02
              0.514267634086451E+01
              0.292619922984110E+02
             -0.565347284352395E+02
             -0.422788918735210E+02
              0.515939814015865E+02
              0.387595635744576E+02
              0.519276895922608E+02
             -0.118104879445573E+01
              0.687043373274179E+01
              0.569863470406157E+02
              0.963503154146743E+02
             -0.300247538647897E+02
              0.323332042474976E+02
             -0.119110604162877E+02
             -0.412408360796175E+02
             -0.314671775312716E+02
             -0.300576020764379E+02
             -0.131572670057546E+02
             -0.523807996560676E+02
             -0.217257473745059E+02
             -0.141263329678172E+03
              0.368964968756162E+02
              0.207124168162007E+02
             -0.394580897269728E+01
             -0.380420853580464E+02
             -0.204272280648860E+02
             -0.527521404272798E+02
              0.150974365344059E+02
              0.820653273616809E+02
             -0.252201061472325E+02
             -0.163259339914193E+02
              0.238435295191355E+02
             -0.489761792002911E+02
              0.880986592357839E+02
              0.154432112951249E+02
              0.226057404881046E+02
              0.490827500124531E+02
              0.318446399733290E+01
              0.542710111436580E+02
              0.143381473110701E+02
             -0.106353918131057E+02
              0.734934965968915E+01
              0.775700293154500E+00
              0.727614223833303E+02
              0.100994954190606E+02
              0.120837759950517E+02
             -0.130053637187306E+02
              0.132233773622471E+02
             -0.911899684864449E+02
             -0.326084564020764E+02
             -0.457899571959127E+02
              0.485604608777148E+02
             -0.291491904027973E+02
             -0.658666836342190E+02
              0.539104272020307E+02
             -0.121972186056478E+02
              0.440395956362933E+02
             -0.899311178610632E+02
              0.232027479679013E+02
              0.857174256951666E+01
              0.586048348756572E+01
             -0.834760303829052E+01
             -0.904463367661913E+01
              0.479589328006272E+02
              0.198477901642070E+01
             -0.475757065009622E+02
             -0.176293420624549E+02
              0.276587456201194E+02
             -0.118003679064363E+03
             -0.930379520646745E+02
              0.395643886881652E+01
              0.117862090357906E+02
             -0.413793009723127E+02
             -0.386583985594575E+01
              0.112178940067795E+03
              0.306714751494098E+02
             -0.571990323840321E+02
              0.926013761047554E+01
             -0.965400031541867E+01
              0.105656892160638E+02
             -0.338074059954407E+02
              0.195663036238391E+02
              0.284818328882624E+02
             -0.302760262886130E+01
              0.108281817275227E+03
             -0.140039744618055E+02
             -0.316051910053461E+02
              0.143372540657451E+02
              0.466698745652507E+02
             -0.355906576964751E+02
             -0.318534116692335E+01
              0.965580460100618E+02
             -0.462176552635083E+01
              0.622065502410370E+02
              0.135540314127695E+02
             -0.903127838526703E+01
             -0.305441962472655E+02
              0.566938170051012E+02
             -0.514732514270796E+02
             -0.218930178672576E+01
             -0.170180406606825E+02
             -0.405423005151529E+02
              0.184935487494344E+02
              0.239565118260988E+02
              0.115887816881801E+02
              0.717487928712785E+00
             -0.385123253027360E+02
              0.215504741920160E+02
             -0.673430590882600E+01
             -0.246709578348418E+02
             -0.210704385127221E+02
              0.203282144413888E+02
             -0.595553898691912E+01
             -0.349565772793930E+02
             -0.106707014475814E+03
              0.103114817954544E+02
              0.248609057712484E+02
             -0.387857352264691E+02
             -0.211298701858899E+02
              0.807753067893136E+02
              0.653436668535713E+01
              0.311504550471608E+02
              0.394099502378202E+01
              0.322442159829124E+02
              0.644770446075847E+01
             -0.373401218235800E+02
             -0.235011747677203E+01
              0.876686245327346E+01
              0.274150453262634E+02
              0.782348710992866E+02
              0.507775731056573E+02
              0.180919071659105E+00
              0.169187326512484E+02
              0.613717839136983E+02
              0.236258842607423E+02
             -0.753287961065663E+02
             -0.273745179086211E+02
              0.150880385118046E+02
              0.563928632642325E+01
              0.255410701970570E+02
             -0.548050835458989E+02
              0.899107701345275E+01
              0.386368951208545E+02
              0.498349242410871E+02
             -0.435363109740549E+02
             -0.689194201928092E+01
             -0.208777325394249E+01
             -0.133989364288541E+02
             -0.365735843812364E+02
             -0.215294340559495E+02
             -0.205629740797167E+01
              0.793425042354954E+01
              0.421661881072091E+02
             -0.308742622168229E+02
              0.826814851551052E+02
              0.327877705443947E+02
              0.220093392286536E+02
              0.333310626793189E+02
              0.323183717820383E+02
              0.346521066134243E+02
              0.537683951351127E+02
             -0.434237328437196E+02
              0.620082926339450E+02
             -0.112356150007537E+03
              0.307606308663097E+02
             -0.106612168130684E+03
              0.855378359992102E+02
              0.691394791595033E+02
             -0.109964705307608E+02
             -0.493462393593907E+02
             -0.429831717828503E+02
             -0.623750145534974E+02
             -0.629361656869716E+02
              0.552253773909639E+02
              0.405994701258975E+02
              0.237114197016810E+02
              0.373820876839898E+02
              0.403795862994735E+02
             -0.382471197040147E+02
             -0.197948948344892E+02
              0.586936022123284E+02
             -0.116196910364130E+02
              0.552173822471476E+02
              0.700298214900265E+02
             -0.555850831116010E+01
             -0.707002267565854E+02
             -0.878277357333673E+00
             -0.246062875557682E+01
             -0.884121315371931E+01
             -0.179697435477112E+01
             -0.653445253809255E+02
             -0.210674041737961E+02
              0.540702399363320E+01
              0.900689560577115E+01
              0.469471978426720E+02
             -0.398318683385415E+02
              0.657466593277624E+02
             -0.425687632155261E+02
              0.210741686307971E+02
              0.350835040335700E+02
 
 BEEF-vdW xc energy contributions
           1 :   -783.492173959230     
           2 :    719.775258984120     
           3 :   -609.388240169933     
           4 :    479.342427573861     
           5 :   -357.168951907775     
           6 :    262.768585105171     
           7 :   -203.853287776620     
           8 :    175.891657266239     
           9 :   -166.150154251308     
          10 :    159.905378769974     
          11 :   -146.278583214919     
          12 :    121.486642609879     
          13 :   -88.6683296443331     
          14 :    54.9220835988265     
          15 :   -27.2715744533857     
          16 :    9.39531506568562     
          17 :  -0.388372468965372     
          18 :   -4.21646643218548     
          19 :    9.91739723159174     
          20 :   -20.5363419651287     
          21 :    36.5786124146910     
          22 :   -55.3005786173976     
          23 :    72.2768194282720     
          24 :   -83.6102861338792     
          25 :    87.6999092936601     
          26 :   -85.7932755298860     
          27 :    81.1752599656919     
          28 :   -77.4804486559472     
          29 :    76.9707049447666     
          30 :   -79.5903766616972     
          31 :   -85.9910017685783     
          32 :   -65.9140236942412     

     Writing output data file ./pwscf.save/
 
     init_run     :    337.28s CPU    341.72s WALL (       1 calls)
     electrons    :  13379.70s CPU  13503.07s WALL (       1 calls)
     forces       :    101.12s CPU    102.29s WALL (       1 calls)

     Called by init_run:
     wfcinit      :    289.11s CPU    292.57s WALL (       1 calls)
     potinit      :     45.29s CPU     45.61s WALL (       1 calls)
     hinit0       :      1.12s CPU      1.15s WALL (       1 calls)

     Called by electrons:
     c_bands      :  11193.17s CPU  11289.52s WALL (      20 calls)
     sum_band     :   1544.39s CPU   1556.57s WALL (      20 calls)
     v_of_rho     :    127.74s CPU    131.80s WALL (      20 calls)
     newd         :     29.32s CPU     40.26s WALL (      20 calls)
     PAW_pot      :    134.02s CPU    134.02s WALL (      20 calls)
     mix_rho      :    397.05s CPU    397.74s WALL (      20 calls)
     vdW_kernel   :     33.47s CPU     33.47s WALL (       1 calls)

     Called by c_bands:
     init_us_2    :     79.11s CPU     79.40s WALL (     546 calls)
     cegterg      :  10395.83s CPU  10491.27s WALL (     260 calls)

     Called by *egterg:
     cdiaghg      :    118.01s CPU    118.04s WALL (    1632 calls)
     h_psi        :   6641.91s CPU   6675.55s WALL (    1658 calls)
     s_psi        :   1113.49s CPU   1113.57s WALL (    1658 calls)
     g_psi        :     16.65s CPU     16.66s WALL (    1385 calls)

     Called by h_psi:
     h_psi:calbec :   1034.97s CPU   1035.41s WALL (    1658 calls)
     vloc_psi     :   4466.76s CPU   4468.33s WALL (    1658 calls)
     add_vuspsi   :   1113.80s CPU   1113.91s WALL (    1658 calls)

     General routines
     calbec       :   1511.49s CPU   1511.97s WALL (    1970 calls)
     fft          :     48.81s CPU     48.83s WALL (    3220 calls)
     ffts         :    125.77s CPU    125.80s WALL (    8868 calls)
     fftw         :   4554.79s CPU   4555.79s WALL (  338550 calls)
 
     Parallel routines
 
     PWSCF        :      3h52m CPU      3h55m WALL

 
   This run was terminated on:  14: 8:59   4Jan2023            

=------------------------------------------------------------------------------=
   JOB DONE.
=------------------------------------------------------------------------------=
