
     Program PWSCF v.6.7MaX starts on 20May2022 at 16:44:13 

     This program is part of the open-source Quantum ESPRESSO suite
     for quantum simulation of materials; please cite
         "P. Giannozzi et al., J. Phys.:Condens. Matter 21 395502 (2009);
         "P. Giannozzi et al., J. Phys.:Condens. Matter 29 465901 (2017);
          URL http://www.quantum-espresso.org", 
     in publications or presentations arising from this work. More details at
     http://www.quantum-espresso.org/quote

     Parallel version (MPI), running on     1 processors

     MPI processes distributed on     1 nodes
     Reading input from cch2ch3-ensemble.in
Warning: card &CELL ignored
Warning: card / ignored

     Current dimensions of program PWSCF are:
     Max number of different atomic species (ntypx) = 10
     Max number of k-points (npk) =  40000
     Max angular momentum in pseudopotentials (lmaxx) =  3
     file Pt.pbe-n-kjpaw_psl.1.0.0.UPF: wavefunction(s)  6S 5D renormalized
     file C.pbe-n-kjpaw_psl.1.0.0.UPF: wavefunction(s)  2S 2P renormalized
     file H.pbe-kjpaw_psl.1.0.0.UPF: wavefunction(s)  1S renormalized

     **************************************************************************
     Initializing libbeef V0.1.2 with the BEEF-vdW functional.
     Citation: Wellendorff et al., PRB 85, 235149 (2012).
     **************************************************************************


     IMPORTANT: XC functional enforced from input :
     Exchange-correlation= BEEF-VDW
                           (   1   4  43  14   2   0   0)
     Any further DFT definition will be discarded
     Please, verify this is what you really want


     Subspace diagonalization in iterative solution of the eigenvalue problem:
     a serial algorithm will be used

 
     G-vector sticks info
     --------------------
     sticks:   dense  smooth     PW     G-vecs:    dense   smooth      PW
     Sum        4267    4267   1159               752791   752791  106057
 


     bravais-lattice index     =            0
     lattice parameter (alat)  =      16.0349  a.u.
     unit-cell volume          =   11982.2708 (a.u.)^3
     number of atoms/cell      =           44
     number of atomic types    =            3
     number of electrons       =       377.00
     number of Kohn-Sham states=          227
     kinetic-energy cutoff     =      60.0000  Ry
     charge density cutoff     =     240.0000  Ry
     scf convergence threshold =      1.0E-06
     mixing beta               =       0.7000
     number of iterations used =            8  local-TF  mixing
     Exchange-correlation= BEEF-VDW
                           (   1   4  43  14   2   0   0)

     celldm(1)=  16.034858  celldm(2)=   0.000000  celldm(3)=   0.000000
     celldm(4)=   0.000000  celldm(5)=   0.000000  celldm(6)=   0.000000

     crystal axes: (cart. coord. in units of alat)
               a(1) = (   1.000000   0.000000   0.000000 )  
               a(2) = (   0.500000   0.866025   0.000000 )  
               a(3) = (   0.000000   0.000000   3.355932 )  

     reciprocal axes: (cart. coord. in units 2 pi/alat)
               b(1) = (  1.000000 -0.577350  0.000000 )  
               b(2) = (  0.000000  1.154701  0.000000 )  
               b(3) = (  0.000000  0.000000  0.297980 )  


     PseudoPot. # 1 for Pt read from file:
     /users/bkreitz1/quantum-espresso/potentials/Pt.pbe-n-kjpaw_psl.1.0.0.UPF
     MD5 check sum: 04dc8a03c51ece93fc7b5889c2958091
     Pseudo is Projector augmented-wave + core cor, Zval = 10.0
     Generated using 'atomic' code by A. Dal Corso  v.6.7MaX
     Shape of augmentation charge: PSQ
     Using radial grid of 1277 points,  6 beta functions with: 
                l(1) =   0
                l(2) =   0
                l(3) =   1
                l(4) =   1
                l(5) =   2
                l(6) =   2
     Q(r) pseudized with 0 coefficients 


     PseudoPot. # 2 for C  read from file:
     /users/bkreitz1/quantum-espresso/potentials/C.pbe-n-kjpaw_psl.1.0.0.UPF
     MD5 check sum: a169b0ebad56f5ec0d79c4633f80bf22
     Pseudo is Projector augmented-wave + core cor, Zval =  4.0
     Generated using 'atomic' code by A. Dal Corso  v.6.7MaX
     Shape of augmentation charge: PSQ
     Using radial grid of 1073 points,  4 beta functions with: 
                l(1) =   0
                l(2) =   0
                l(3) =   1
                l(4) =   1
     Q(r) pseudized with 0 coefficients 


     PseudoPot. # 3 for H  read from file:
     /users/bkreitz1/quantum-espresso/potentials/H.pbe-kjpaw_psl.1.0.0.UPF
     MD5 check sum: ae98473e6dc62675f0d0baffdab24f65
     Pseudo is Projector augmented-wave, Zval =  1.0
     Generated using 'atomic' code by A. Dal Corso  v.6.7MaX
     Shape of augmentation charge: PSQ
     Using radial grid of  929 points,  2 beta functions with: 
                l(1) =   0
                l(2) =   0
     Q(r) pseudized with 0 coefficients 


     atomic species   valence    mass     pseudopotential
        Pt            10.00   195.08400     Pt( 1.00)
        C              4.00    12.01100     C ( 1.00)
        H              1.00     1.00800     H ( 1.00)

     No symmetry found



   Cartesian axes

     site n.     atom                  positions (alat units)
         1           Pt  tau(   1) = (   0.0000000   0.0000000   1.0017346  )
         2           Pt  tau(   2) = (   0.3333333   0.0000000   1.0017346  )
         3           Pt  tau(   3) = (   0.6666667   0.0000000   1.0017346  )
         4           Pt  tau(   4) = (   0.1666667   0.2886751   1.0017346  )
         5           Pt  tau(   5) = (   0.5000000   0.2886751   1.0017346  )
         6           Pt  tau(   6) = (   0.8333333   0.2886751   1.0017346  )
         7           Pt  tau(   7) = (   0.3333333   0.5773503   1.0017346  )
         8           Pt  tau(   8) = (   0.6666667   0.5773503   1.0017346  )
         9           Pt  tau(   9) = (   1.0000000   0.5773503   1.0017346  )
        10           Pt  tau(  10) = (   0.1666667   0.0962250   1.2739001  )
        11           Pt  tau(  11) = (   0.5000000   0.0962250   1.2739001  )
        12           Pt  tau(  12) = (   0.8333333   0.0962250   1.2739001  )
        13           Pt  tau(  13) = (   0.3333333   0.3849002   1.2739001  )
        14           Pt  tau(  14) = (   0.6666667   0.3849002   1.2739001  )
        15           Pt  tau(  15) = (   1.0000000   0.3849002   1.2739001  )
        16           Pt  tau(  16) = (   0.5000000   0.6735753   1.2739001  )
        17           Pt  tau(  17) = (   0.8333333   0.6735753   1.2739001  )
        18           Pt  tau(  18) = (   1.1666667   0.6735753   1.2739001  )
        19           Pt  tau(  19) = (  -0.0009725   0.1931691   1.5451779  )
        20           Pt  tau(  20) = (   0.3353535   0.1932635   1.5450942  )
        21           Pt  tau(  21) = (   0.6668637   0.1931847   1.5456046  )
        22           Pt  tau(  22) = (   0.1673202   0.4808278   1.5420650  )
        23           Pt  tau(  23) = (   0.5014040   0.4808091   1.5460578  )
        24           Pt  tau(  24) = (   0.8332729   0.4807018   1.5455917  )
        25           Pt  tau(  25) = (   0.3340779   0.7699298   1.5422560  )
        26           Pt  tau(  26) = (   0.6672431   0.7676047   1.5454838  )
        27           Pt  tau(  27) = (   1.0002827   0.7699290   1.5421190  )
        28           Pt  tau(  28) = (   0.0016866  -0.0010352   1.8170009  )
        29           Pt  tau(  29) = (   0.3347261  -0.0002316   1.8171973  )
        30           Pt  tau(  30) = (   0.6677959  -0.0038504   1.8165649  )
        31           Pt  tau(  31) = (   0.1681351   0.2882540   1.8168428  )
        32           Pt  tau(  32) = (   0.4984472   0.2873672   1.8331953  )
        33           Pt  tau(  33) = (   0.8376071   0.2855703   1.8316723  )
        34           Pt  tau(  34) = (   0.3318158   0.5787190   1.8165928  )
        35           Pt  tau(  35) = (   0.6691692   0.5796329   1.8347180  )
        36           Pt  tau(  36) = (   1.0044580   0.5787124   1.8160894  )
        37           C   tau(  37) = (   0.6700243   0.3824314   1.9682121  )
        38           C   tau(  38) = (   0.6655967   0.3789872   2.1452432  )
        39           C   tau(  39) = (   0.8271204   0.3966195   2.2257080  )
        40           H   tau(  40) = (   0.5855821   0.4727012   2.1842732  )
        41           H   tau(  41) = (   0.6116916   0.2668768   2.1804595  )
        42           H   tau(  42) = (   0.8108386   0.3978810   2.3533782  )
        43           H   tau(  43) = (   0.9048780   0.2988400   2.1951233  )
        44           H   tau(  44) = (   0.8845172   0.5063897   2.1919819  )

     number of k points=    13  Marzari-Vanderbilt smearing, width (Ry)=  0.0200
                       cart. coord. in units 2pi/alat
        k(    1) = (   0.0000000   0.0000000   0.0000000), wk =   0.0800000
        k(    2) = (   0.0000000   0.2309401   0.0000000), wk =   0.1600000
        k(    3) = (   0.0000000   0.4618802   0.0000000), wk =   0.1600000
        k(    4) = (   0.2000000  -0.1154701   0.0000000), wk =   0.1600000
        k(    5) = (   0.2000000   0.1154701   0.0000000), wk =   0.1600000
        k(    6) = (   0.2000000   0.3464102   0.0000000), wk =   0.1600000
        k(    7) = (   0.2000000  -0.5773503   0.0000000), wk =   0.1600000
        k(    8) = (   0.2000000  -0.3464102   0.0000000), wk =   0.1600000
        k(    9) = (   0.4000000  -0.2309401   0.0000000), wk =   0.1600000
        k(   10) = (   0.4000000  -0.0000000   0.0000000), wk =   0.1600000
        k(   11) = (   0.4000000   0.2309401   0.0000000), wk =   0.1600000
        k(   12) = (   0.4000000  -0.6928203   0.0000000), wk =   0.1600000
        k(   13) = (   0.4000000  -0.4618802   0.0000000), wk =   0.1600000

     Dense  grid:   752791 G-vectors     FFT dimensions: (  80,  80, 270)

     Estimated max dynamical RAM per process >       9.16 GB

     Check: negative core charge=   -0.000002

     Initial potential from superposition of free atoms

     starting charge  376.99372, renormalised to  377.00000

     negative rho (up, down):  1.125E-02 0.000E+00


     %%%%%%%%%%%%%%%%%%%%%%%%%%%%%%%%%%%%%%%%%%%%%%%%%%%%%%%%%%%%%%%%%%%%%%%%
     %                                                                      %
     % You are using vdW-DF, which was implemented by the Thonhauser group. %
     % Please cite the following two papers that made this development      %
     % possible and the two reviews that describe the various versions:     %
     %                                                                      %
     %   T. Thonhauser et al., PRL 115, 136402 (2015).                      %
     %   T. Thonhauser et al., PRB 76, 125112 (2007).                       %
     %   K. Berland et al., Rep. Prog. Phys. 78, 066501 (2015).             %
     %   D.C. Langreth et al., J. Phys.: Condens. Matter 21, 084203 (2009). %
     %                                                                      %
     %                                                                      %
     % If you are calculating the stress with vdW-DF, please also cite:     %
     %                                                                      %
     %   R. Sabatini et al., J. Phys.: Condens. Matter 24, 424209 (2012).   %
     %                                                                      %
     %%%%%%%%%%%%%%%%%%%%%%%%%%%%%%%%%%%%%%%%%%%%%%%%%%%%%%%%%%%%%%%%%%%%%%%%


     Starting wfcs are  341 randomized atomic wfcs
     Checking if some PAW data can be deallocated... 

     total cpu time spent up to now is      364.8 secs

     Self-consistent Calculation

     iteration #  1     ecut=    60.00 Ry     beta= 0.70
     Davidson diagonalization with overlap
     ethr =  1.00E-02,  avg # of iterations =  2.5

     Threshold (ethr) on eigenvalues was too large:
     Diagonalizing with lowered threshold

     Davidson diagonalization with overlap
     ethr =  7.58E-04,  avg # of iterations =  3.2

     negative rho (up, down):  1.097E-02 0.000E+00

     total cpu time spent up to now is     1798.3 secs

     total energy              =  -27817.18582185 Ry
     estimated scf accuracy    <       3.13836622 Ry

     iteration #  2     ecut=    60.00 Ry     beta= 0.70
     Davidson diagonalization with overlap
     ethr =  8.32E-04,  avg # of iterations =  2.2

     negative rho (up, down):  9.205E-03 0.000E+00

     total cpu time spent up to now is     2453.4 secs

     total energy              =  -27817.32994890 Ry
     estimated scf accuracy    <       1.33864821 Ry

     iteration #  3     ecut=    60.00 Ry     beta= 0.70
     Davidson diagonalization with overlap
     ethr =  3.55E-04,  avg # of iterations =  6.7

     negative rho (up, down):  6.380E-03 0.000E+00

     total cpu time spent up to now is     3154.2 secs

     total energy              =  -27817.36337261 Ry
     estimated scf accuracy    <       0.57690874 Ry

     iteration #  4     ecut=    60.00 Ry     beta= 0.70
     Davidson diagonalization with overlap
     ethr =  1.53E-04,  avg # of iterations =  9.5

     negative rho (up, down):  4.589E-03 0.000E+00

     total cpu time spent up to now is     3919.1 secs

     total energy              =  -27817.40696894 Ry
     estimated scf accuracy    <       0.27620724 Ry

     iteration #  5     ecut=    60.00 Ry     beta= 0.70
     Davidson diagonalization with overlap
     c_bands:  2 eigenvalues not converged
     ethr =  7.33E-05,  avg # of iterations =  8.0

     negative rho (up, down):  2.974E-03 0.000E+00

     total cpu time spent up to now is     4640.1 secs

     total energy              =  -27817.41743301 Ry
     estimated scf accuracy    <       0.05647104 Ry

     iteration #  6     ecut=    60.00 Ry     beta= 0.70
     Davidson diagonalization with overlap
     c_bands:  1 eigenvalues not converged
     ethr =  1.50E-05,  avg # of iterations = 13.5

     negative rho (up, down):  2.507E-03 0.000E+00

     total cpu time spent up to now is     5680.9 secs

     total energy              =  -27817.42984825 Ry
     estimated scf accuracy    <       0.03047777 Ry

     iteration #  7     ecut=    60.00 Ry     beta= 0.70
     Davidson diagonalization with overlap
     ethr =  8.08E-06,  avg # of iterations =  3.5

     negative rho (up, down):  2.347E-03 0.000E+00

     total cpu time spent up to now is     6344.7 secs

     total energy              =  -27817.43005524 Ry
     estimated scf accuracy    <       0.02648824 Ry

     iteration #  8     ecut=    60.00 Ry     beta= 0.70
     Davidson diagonalization with overlap
     c_bands:  1 eigenvalues not converged
     c_bands:  2 eigenvalues not converged
     ethr =  7.03E-06,  avg # of iterations = 12.8

     negative rho (up, down):  3.131E-03 0.000E+00

     total cpu time spent up to now is     7121.9 secs

     total energy              =  -27817.43062455 Ry
     estimated scf accuracy    <       0.01308130 Ry

     iteration #  9     ecut=    60.00 Ry     beta= 0.70
     Davidson diagonalization with overlap
     c_bands:  1 eigenvalues not converged
     c_bands:  1 eigenvalues not converged
     c_bands:  1 eigenvalues not converged
     ethr =  3.47E-06,  avg # of iterations = 13.3

     negative rho (up, down):  5.623E-03 0.000E+00

     total cpu time spent up to now is     7902.7 secs

     total energy              =  -27817.43098971 Ry
     estimated scf accuracy    <       0.00390885 Ry

     iteration # 10     ecut=    60.00 Ry     beta= 0.70
     Davidson diagonalization with overlap
     c_bands:  1 eigenvalues not converged
     ethr =  1.04E-06,  avg # of iterations = 13.0

     negative rho (up, down):  7.946E-03 0.000E+00

     total cpu time spent up to now is     8648.8 secs

     total energy              =  -27817.43120152 Ry
     estimated scf accuracy    <       0.00210157 Ry

     iteration # 11     ecut=    60.00 Ry     beta= 0.70
     Davidson diagonalization with overlap
     c_bands:  1 eigenvalues not converged
     ethr =  5.57E-07,  avg # of iterations =  3.4

     negative rho (up, down):  9.303E-03 0.000E+00

     total cpu time spent up to now is     9290.7 secs

     total energy              =  -27817.43135571 Ry
     estimated scf accuracy    <       0.00098298 Ry

     iteration # 12     ecut=    60.00 Ry     beta= 0.70
     Davidson diagonalization with overlap
     c_bands:  1 eigenvalues not converged
     ethr =  2.61E-07,  avg # of iterations =  4.8

     negative rho (up, down):  8.771E-03 0.000E+00

     total cpu time spent up to now is     9960.5 secs

     total energy              =  -27817.43145067 Ry
     estimated scf accuracy    <       0.00047376 Ry

     iteration # 13     ecut=    60.00 Ry     beta= 0.70
     Davidson diagonalization with overlap
     ethr =  1.26E-07,  avg # of iterations =  2.0

     negative rho (up, down):  9.385E-03 0.000E+00

     total cpu time spent up to now is    10642.6 secs

     total energy              =  -27817.43149824 Ry
     estimated scf accuracy    <       0.00019047 Ry

     iteration # 14     ecut=    60.00 Ry     beta= 0.70
     Davidson diagonalization with overlap
     ethr =  5.05E-08,  avg # of iterations =  3.2

     negative rho (up, down):  9.135E-03 0.000E+00

     total cpu time spent up to now is    11324.6 secs

     total energy              =  -27817.43152268 Ry
     estimated scf accuracy    <       0.00010915 Ry

     iteration # 15     ecut=    60.00 Ry     beta= 0.70
     Davidson diagonalization with overlap
     ethr =  2.90E-08,  avg # of iterations =  2.0

     negative rho (up, down):  9.388E-03 0.000E+00

     total cpu time spent up to now is    11973.7 secs

     total energy              =  -27817.43152136 Ry
     estimated scf accuracy    <       0.00008525 Ry

     iteration # 16     ecut=    60.00 Ry     beta= 0.70
     Davidson diagonalization with overlap
     ethr =  2.26E-08,  avg # of iterations =  1.1

     negative rho (up, down):  1.030E-02 0.000E+00

     total cpu time spent up to now is    12563.1 secs

     total energy              =  -27817.43151907 Ry
     estimated scf accuracy    <       0.00004205 Ry

     iteration # 17     ecut=    60.00 Ry     beta= 0.70
     Davidson diagonalization with overlap
     ethr =  1.12E-08,  avg # of iterations =  2.0

     negative rho (up, down):  1.151E-02 0.000E+00

     total cpu time spent up to now is    13223.5 secs

     total energy              =  -27817.43151511 Ry
     estimated scf accuracy    <       0.00003134 Ry

     iteration # 18     ecut=    60.00 Ry     beta= 0.70
     Davidson diagonalization with overlap
     ethr =  8.31E-09,  avg # of iterations =  1.5

     negative rho (up, down):  1.231E-02 0.000E+00

     total cpu time spent up to now is    13830.5 secs

     total energy              =  -27817.43151464 Ry
     estimated scf accuracy    <       0.00001782 Ry

     iteration # 19     ecut=    60.00 Ry     beta= 0.70
     Davidson diagonalization with overlap
     ethr =  4.73E-09,  avg # of iterations =  2.0

     negative rho (up, down):  1.247E-02 0.000E+00

     total cpu time spent up to now is    14512.2 secs

     total energy              =  -27817.43151605 Ry
     estimated scf accuracy    <       0.00000349 Ry

     iteration # 20     ecut=    60.00 Ry     beta= 0.70
     Davidson diagonalization with overlap
     ethr =  9.25E-10,  avg # of iterations =  5.7

     negative rho (up, down):  1.264E-02 0.000E+00

     total cpu time spent up to now is    15494.8 secs

     total energy              =  -27817.43151693 Ry
     estimated scf accuracy    <       0.00000141 Ry

     iteration # 21     ecut=    60.00 Ry     beta= 0.70
     Davidson diagonalization with overlap
     ethr =  3.73E-10,  avg # of iterations =  3.5

     negative rho (up, down):  1.262E-02 0.000E+00

     total cpu time spent up to now is    16271.3 secs

     total energy              =  -27817.43151704 Ry
     estimated scf accuracy    <       0.00000132 Ry

     iteration # 22     ecut=    60.00 Ry     beta= 0.70
     Davidson diagonalization with overlap
     ethr =  3.50E-10,  avg # of iterations =  2.0

     negative rho (up, down):  1.280E-02 0.000E+00

     total cpu time spent up to now is    16892.5 secs

     End of self-consistent calculation

          k = 0.0000 0.0000 0.0000 ( 94237 PWs)   bands (ev):

   -13.5441 -10.6687  -8.4747  -7.0821  -5.8063  -5.2696  -5.2291  -4.7876
    -4.7378  -4.7177  -4.7067  -4.6893  -4.6664  -4.6641  -4.5477  -4.4056
    -4.2103  -4.1583  -4.1446  -4.1405  -4.0940  -4.0371  -3.8989  -3.7049
    -3.7009  -3.6972  -3.6171  -3.5581  -3.5114  -3.4818  -3.4777  -3.4743
    -3.4006  -3.3716  -3.3455  -3.2895  -3.2726  -3.2701  -3.2576  -3.2185
    -3.1976  -3.1965  -3.1862  -3.1603  -3.1530  -3.0005  -2.7952  -2.6903
    -2.6403  -2.6257  -2.6117  -2.6076  -2.5867  -2.5587  -2.5459  -2.5419
    -2.5262  -2.3832  -2.3800  -2.3088  -2.2792  -2.2532  -2.1149  -1.9667
    -1.8905  -1.8793  -1.8281  -1.8100  -1.8050  -1.7623  -1.7250  -1.6503
    -1.6449  -1.6260  -1.6146  -1.6125  -1.6107  -1.5989  -1.5736  -1.5627
    -1.5622  -1.5152  -1.5128  -1.5093  -1.5034  -1.5011  -1.4314  -1.4166
    -1.4116  -1.3967  -1.3956  -1.3837  -1.2205  -1.2003  -1.1993  -1.1704
    -1.1671  -1.1644  -1.1512  -1.1477  -1.0863  -1.0861  -1.0689  -0.9822
    -0.9819  -0.9429  -0.9385  -0.9175  -0.8322  -0.8295  -0.8032  -0.7992
    -0.7934  -0.7826  -0.6775  -0.6559  -0.6378  -0.3437  -0.3418  -0.3206
    -0.2778  -0.2755  -0.2656  -0.2565  -0.2505  -0.2486  -0.1302  -0.1282
    -0.0730  -0.0712  -0.0689  -0.0315  -0.0304  -0.0005   0.0353   0.0766
     0.1780   0.1817   0.2089   0.2212   0.2663   0.2712   0.4201   0.4571
     0.4592   0.4749   0.5116   0.5161   0.5598   0.5668   0.6318   0.6355
     0.6589   0.7034   0.7253   0.7291   0.7655   0.8266   0.8307   0.8444
     0.8903   0.8923   0.9088   0.9102   0.9131   0.9215   0.9415   0.9422
     0.9447   1.0143   1.0177   1.0311   1.0324   1.0367   1.1074   1.1106
     1.1255   1.1273   1.1298   1.1685   1.1692   1.2168   1.2667   1.2707
     1.2722   1.2755   1.2770   1.3281   1.3506   1.3513   1.3859   1.3926
     1.3935   1.4171   1.4310   1.5654   1.5698   1.6756   1.6815   1.6842
     1.7188   1.7194   1.7387   2.2640   2.2797   2.2908   2.5060   2.5817
     2.5846   2.6132   3.7258   3.7429   4.5663   4.8811   4.8838   4.8981
     5.3364   5.3611   5.6630   6.3521   6.4372   6.5037   6.5041   6.5464
     6.6555   6.6623   6.7121

          k = 0.0000 0.2309 0.0000 ( 94018 PWs)   bands (ev):

   -13.5439 -10.6673  -8.4668  -6.9407  -5.6836  -5.3198  -5.2086  -5.1290
    -4.8475  -4.7963  -4.5980  -4.5505  -4.5045  -4.4693  -4.4270  -4.3414
    -4.2702  -4.2380  -4.0863  -4.0773  -4.0523  -3.9620  -3.8601  -3.7558
    -3.6575  -3.6412  -3.6331  -3.5624  -3.5483  -3.5197  -3.4753  -3.4579
    -3.4487  -3.4015  -3.3623  -3.3509  -3.3135  -3.2744  -3.2546  -3.2390
    -3.1427  -3.0920  -3.0513  -3.0263  -3.0042  -2.9395  -2.8474  -2.7644
    -2.7456  -2.7049  -2.6820  -2.6681  -2.6525  -2.6063  -2.5106  -2.4858
    -2.4322  -2.3999  -2.3716  -2.3190  -2.3138  -2.2219  -2.1319  -2.0732
    -2.0135  -1.9826  -1.9730  -1.9320  -1.9022  -1.8654  -1.8459  -1.8314
    -1.8166  -1.7984  -1.7653  -1.7145  -1.6807  -1.6347  -1.6308  -1.6097
    -1.5861  -1.5288  -1.5145  -1.5042  -1.4346  -1.4316  -1.4121  -1.3832
    -1.3631  -1.3460  -1.3201  -1.2908  -1.2515  -1.2440  -1.2144  -1.1950
    -1.1763  -1.1581  -1.1445  -1.1106  -1.0810  -1.0728  -1.0437  -1.0372
    -1.0026  -0.9818  -0.9716  -0.9293  -0.8904  -0.8818  -0.8553  -0.8292
    -0.7931  -0.7827  -0.7574  -0.7219  -0.7183  -0.6889  -0.6877  -0.5560
    -0.5025  -0.4732  -0.3525  -0.3236  -0.2947  -0.2675  -0.2651  -0.2417
    -0.2232  -0.1462  -0.0687  -0.0063   0.0268   0.0342   0.0820   0.0944
     0.1154   0.1252   0.1448   0.1601   0.1923   0.2067   0.3214   0.3450
     0.3508   0.3711   0.3915   0.4575   0.4968   0.5371   0.5443   0.5691
     0.5757   0.6413   0.6486   0.7107   0.7192   0.7296   0.7510   0.7832
     0.8164   0.8708   0.8753   0.9245   0.9331   0.9344   0.9580   0.9947
     1.0645   1.0883   1.0956   1.1452   1.1625   1.2239   1.2317   1.2433
     1.2724   1.2766   1.2913   1.3433   1.3524   1.3618   1.3822   1.3978
     1.4355   1.4392   1.5263   1.5456   1.5843   1.6064   1.6312   1.6394
     1.6646   1.6926   1.7051   1.7244   1.7552   1.8049   1.8480   1.8909
     1.9634   2.0045   2.0191   2.0458   2.2847   2.3907   2.7219   2.9969
     3.1814   3.2647   3.6145   3.8050   4.3571   4.6549   4.8786   5.2205
     5.3602   5.4974   5.6323   5.6907   5.8064   6.3309   6.3922   6.4685
     6.5168   6.6981   6.7954

          k = 0.0000 0.4619 0.0000 ( 94026 PWs)   bands (ev):

   -13.5437 -10.6652  -8.4542  -6.5325  -5.9163  -5.3868  -5.2325  -5.0941
    -4.8717  -4.8300  -4.6814  -4.4668  -4.3743  -4.3234  -4.2110  -4.1640
    -4.1089  -4.0987  -3.9860  -3.9234  -3.9103  -3.8845  -3.8322  -3.7835
    -3.7607  -3.7256  -3.6960  -3.6749  -3.6454  -3.6336  -3.5849  -3.5398
    -3.5295  -3.3312  -3.3052  -3.2813  -3.2668  -3.2640  -3.2020  -3.1082
    -3.0529  -3.0350  -3.0264  -3.0142  -2.9558  -2.9248  -2.8145  -2.7782
    -2.7286  -2.7133  -2.6810  -2.6637  -2.6388  -2.5877  -2.5643  -2.5488
    -2.5292  -2.5168  -2.4360  -2.3774  -2.3421  -2.3329  -2.2651  -2.2023
    -2.1801  -2.1627  -2.1224  -2.0910  -2.0541  -2.0469  -1.9617  -1.9239
    -1.8994  -1.8585  -1.8513  -1.7913  -1.7845  -1.7705  -1.6754  -1.6565
    -1.6353  -1.5955  -1.5538  -1.5507  -1.5063  -1.4881  -1.4632  -1.4336
    -1.4150  -1.4047  -1.3938  -1.3810  -1.3764  -1.3486  -1.3311  -1.2705
    -1.2525  -1.2216  -1.1982  -1.1932  -1.1531  -1.1238  -1.0837  -1.0543
    -1.0137  -1.0025  -0.9801  -0.9495  -0.9388  -0.8945  -0.8779  -0.8347
    -0.7802  -0.7444  -0.7308  -0.7010  -0.6464  -0.6013  -0.5541  -0.5110
    -0.4581  -0.4504  -0.4402  -0.3881  -0.3464  -0.3373  -0.3304  -0.2895
    -0.2666  -0.2349  -0.2295  -0.1964  -0.1865  -0.1819  -0.1546  -0.1090
    -0.0342  -0.0258   0.0216   0.0506   0.0930   0.1299   0.1803   0.2553
     0.2610   0.3307   0.3494   0.3756   0.4526   0.4646   0.5316   0.5368
     0.5821   0.6036   0.6091   0.6406   0.6779   0.6808   0.7141   0.7795
     0.7831   0.8387   0.8544   0.8849   0.8870   0.9400   0.9942   1.0341
     1.0976   1.1286   1.1552   1.1838   1.2618   1.2672   1.2886   1.2939
     1.3208   1.3575   1.4123   1.4204   1.4397   1.4695   1.5602   1.5680
     1.5896   1.5988   1.6149   1.6261   1.6634   1.6874   1.8178   1.8396
     1.8568   1.8619   1.8802   1.9672   2.0971   2.1980   2.2941   2.3990
     2.5852   2.8829   2.8948   3.0507   3.1660   3.1802   3.5367   3.6306
     3.7445   3.9037   4.1508   4.1837   4.2609   4.3164   4.4035   4.5694
     4.6912   5.0277   5.0854   5.3077   5.4650   5.9188   5.9825   6.1480
     6.4322   6.5433   6.6812

          k = 0.2000-0.1155 0.0000 ( 94018 PWs)   bands (ev):

   -13.5439 -10.6674  -8.4664  -6.9408  -5.6827  -5.3075  -5.2285  -5.1323
    -4.8346  -4.7977  -4.6037  -4.5698  -4.4854  -4.4688  -4.4482  -4.3294
    -4.2446  -4.2184  -4.0987  -4.0766  -4.0664  -3.9716  -3.8377  -3.7605
    -3.6602  -3.6349  -3.6329  -3.5729  -3.5454  -3.5316  -3.4670  -3.4598
    -3.4372  -3.4063  -3.3736  -3.3461  -3.3180  -3.2824  -3.2535  -3.2430
    -3.1387  -3.1084  -3.0424  -3.0276  -3.0145  -2.9490  -2.8145  -2.7606
    -2.7366  -2.7073  -2.6881  -2.6702  -2.6406  -2.6118  -2.5182  -2.4839
    -2.4348  -2.3953  -2.3777  -2.3247  -2.3018  -2.2233  -2.1409  -2.0684
    -2.0232  -1.9836  -1.9720  -1.9380  -1.8850  -1.8776  -1.8407  -1.8345
    -1.8130  -1.7955  -1.7664  -1.7113  -1.6795  -1.6404  -1.6308  -1.6121
    -1.5856  -1.5213  -1.5144  -1.5003  -1.4356  -1.4322  -1.4139  -1.3825
    -1.3651  -1.3455  -1.3287  -1.2887  -1.2527  -1.2462  -1.2150  -1.1963
    -1.1744  -1.1569  -1.1403  -1.1096  -1.0830  -1.0722  -1.0428  -1.0357
    -1.0011  -0.9833  -0.9745  -0.9324  -0.8907  -0.8815  -0.8577  -0.8220
    -0.7885  -0.7831  -0.7575  -0.7230  -0.7187  -0.6886  -0.6882  -0.5432
    -0.5107  -0.4784  -0.3545  -0.3198  -0.2912  -0.2658  -0.2628  -0.2396
    -0.2242  -0.1473  -0.0664  -0.0061   0.0245   0.0356   0.0789   0.0959
     0.1186   0.1194   0.1479   0.1587   0.1891   0.2039   0.3192   0.3457
     0.3497   0.3707   0.4000   0.4537   0.4974   0.5385   0.5474   0.5727
     0.5771   0.6443   0.6472   0.7103   0.7203   0.7296   0.7497   0.7804
     0.8177   0.8715   0.8753   0.9258   0.9314   0.9338   0.9575   0.9959
     1.0610   1.0900   1.0960   1.1445   1.1648   1.2234   1.2299   1.2446
     1.2733   1.2758   1.2910   1.3435   1.3524   1.3597   1.3832   1.3971
     1.4367   1.4411   1.5246   1.5455   1.5850   1.6047   1.6322   1.6379
     1.6626   1.6903   1.7033   1.7222   1.7560   1.8045   1.8482   1.8893
     1.9633   2.0037   2.0158   2.0477   2.2914   2.3875   2.7126   2.9970
     3.1818   3.2716   3.6059   3.8173   4.3594   4.6543   4.8700   5.2242
     5.3602   5.4946   5.6366   5.7045   5.7722   6.3272   6.3909   6.4571
     6.5359   6.6913   6.7920

          k = 0.2000 0.1155 0.0000 ( 94018 PWs)   bands (ev):

   -13.5439 -10.6674  -8.4671  -6.9406  -5.6802  -5.2779  -5.2216  -5.1758
    -4.8192  -4.7997  -4.6047  -4.5778  -4.5026  -4.4615  -4.4378  -4.3760
    -4.2417  -4.1673  -4.0958  -4.0763  -4.0657  -4.0105  -3.8231  -3.7601
    -3.6627  -3.6397  -3.6269  -3.5568  -3.5430  -3.5263  -3.4831  -3.4629
    -3.4517  -3.3831  -3.3652  -3.3374  -3.3196  -3.2691  -3.2542  -3.2502
    -3.1384  -3.1119  -3.0528  -3.0271  -3.0017  -2.9512  -2.8104  -2.7657
    -2.7424  -2.7260  -2.7009  -2.6740  -2.6245  -2.6053  -2.5016  -2.4838
    -2.4419  -2.3877  -2.3817  -2.3197  -2.3020  -2.2323  -2.1540  -2.0597
    -2.0237  -1.9785  -1.9726  -1.9372  -1.8908  -1.8653  -1.8437  -1.8346
    -1.8168  -1.7952  -1.7659  -1.7098  -1.6809  -1.6383  -1.6290  -1.6090
    -1.5874  -1.5310  -1.5148  -1.5046  -1.4350  -1.4310  -1.4116  -1.3838
    -1.3609  -1.3439  -1.3207  -1.2924  -1.2521  -1.2470  -1.2147  -1.1950
    -1.1762  -1.1591  -1.1441  -1.1097  -1.0817  -1.0738  -1.0442  -1.0363
    -1.0036  -0.9807  -0.9742  -0.9284  -0.8892  -0.8806  -0.8556  -0.8319
    -0.7912  -0.7879  -0.7572  -0.7233  -0.7169  -0.6889  -0.6877  -0.5555
    -0.5036  -0.4696  -0.3520  -0.3228  -0.2928  -0.2670  -0.2649  -0.2412
    -0.2243  -0.1463  -0.0689  -0.0066   0.0272   0.0321   0.0816   0.0961
     0.1154   0.1265   0.1421   0.1597   0.1936   0.2044   0.3202   0.3461
     0.3500   0.3730   0.3932   0.4572   0.4965   0.5357   0.5446   0.5706
     0.5755   0.6448   0.6469   0.7114   0.7192   0.7285   0.7501   0.7837
     0.8165   0.8711   0.8740   0.9251   0.9321   0.9365   0.9577   0.9948
     1.0623   1.0890   1.0957   1.1457   1.1639   1.2228   1.2304   1.2444
     1.2720   1.2752   1.2915   1.3434   1.3523   1.3614   1.3825   1.3983
     1.4349   1.4386   1.5262   1.5450   1.5840   1.6066   1.6328   1.6393
     1.6652   1.6934   1.7053   1.7250   1.7551   1.8044   1.8482   1.8898
     1.9607   2.0047   2.0152   2.0445   2.2916   2.3916   2.7154   2.9977
     3.1747   3.2721   3.6172   3.8077   4.3641   4.6554   4.8735   5.2218
     5.3608   5.4988   5.6507   5.6874   5.7720   6.3254   6.3574   6.4537
     6.5658   6.6896   6.7960

          k = 0.2000 0.3464 0.0000 ( 94032 PWs)   bands (ev):

   -13.5437 -10.6656  -8.4571  -6.6645  -5.5157  -5.4814  -5.4165  -5.2016
    -5.1149  -4.5709  -4.3981  -4.3818  -4.3771  -4.3434  -4.3239  -4.2928
    -4.2303  -4.1947  -4.1795  -4.0739  -3.8576  -3.8114  -3.7943  -3.7855
    -3.7551  -3.6920  -3.6772  -3.5775  -3.5748  -3.5414  -3.4837  -3.4620
    -3.4400  -3.4173  -3.3924  -3.3426  -3.3255  -3.3110  -3.2573  -3.2264
    -3.1665  -3.0998  -3.0538  -2.9245  -2.8789  -2.8311  -2.7989  -2.7848
    -2.7474  -2.7357  -2.7171  -2.6843  -2.6249  -2.5761  -2.5502  -2.5228
    -2.4492  -2.4204  -2.3770  -2.3672  -2.3274  -2.2787  -2.2540  -2.2305
    -2.1789  -2.0896  -2.0767  -2.0536  -2.0324  -1.9785  -1.9489  -1.9240
    -1.9057  -1.8861  -1.8582  -1.8119  -1.7156  -1.7007  -1.6943  -1.6651
    -1.6364  -1.6321  -1.5606  -1.5415  -1.5108  -1.4893  -1.4186  -1.3960
    -1.3793  -1.3666  -1.3478  -1.3452  -1.3275  -1.2875  -1.2747  -1.2480
    -1.2431  -1.2104  -1.1370  -1.1313  -1.0989  -1.0772  -1.0761  -1.0585
    -1.0304  -1.0009  -0.9829  -0.9691  -0.9568  -0.9429  -0.9398  -0.9101
    -0.8913  -0.7983  -0.7958  -0.7415  -0.6936  -0.6673  -0.6516  -0.6220
    -0.5059  -0.4948  -0.4433  -0.4097  -0.3917  -0.3105  -0.2856  -0.2779
    -0.2460  -0.2055  -0.1925  -0.1510  -0.1307  -0.1175  -0.0496  -0.0274
     0.0443   0.0804   0.1046   0.1200   0.1398   0.1705   0.2282   0.2545
     0.2945   0.3240   0.3474   0.4164   0.4373   0.4610   0.4762   0.4975
     0.5518   0.5935   0.6138   0.6566   0.6798   0.6866   0.7068   0.7256
     0.7370   0.7594   0.7823   0.8494   0.8968   0.9785   1.0054   1.0519
     1.1364   1.2255   1.2312   1.2429   1.2739   1.2982   1.3426   1.3819
     1.3973   1.4107   1.4376   1.4506   1.4635   1.4856   1.4991   1.5293
     1.5494   1.5910   1.6189   1.6443   1.6585   1.6832   1.7334   1.8056
     1.8560   1.9056   1.9153   1.9347   1.9704   2.0030   2.0656   2.1278
     2.3210   2.5591   2.6552   2.8911   2.9592   3.1714   3.2028   3.3424
     3.6908   3.7565   3.9655   4.0908   4.1592   4.3166   4.4329   5.0217
     5.2015   5.3650   5.4673   5.6526   5.8145   5.9913   6.0057   6.0756
     6.1086   6.2080   6.4888

          k = 0.2000-0.5774 0.0000 ( 94070 PWs)   bands (ev):

   -13.5436 -10.6645  -8.4503  -6.1727  -6.1186  -5.5557  -5.2832  -5.2041
    -4.8996  -4.8130  -4.4950  -4.3618  -4.2727  -4.2394  -4.1828  -4.0904
    -4.0744  -3.9969  -3.9634  -3.9500  -3.8759  -3.8664  -3.8456  -3.8248
    -3.7921  -3.7566  -3.6919  -3.6532  -3.6452  -3.6270  -3.6079  -3.5813
    -3.5039  -3.4001  -3.3542  -3.3171  -3.2951  -3.2578  -3.2347  -3.2077
    -3.1675  -3.0817  -3.0291  -2.9961  -2.9700  -2.8340  -2.8269  -2.7770
    -2.7290  -2.6946  -2.6590  -2.6452  -2.5605  -2.5274  -2.4995  -2.4700
    -2.4360  -2.4104  -2.3756  -2.3472  -2.3116  -2.3010  -2.2559  -2.2320
    -2.2048  -2.1817  -2.1761  -2.1402  -2.1329  -2.1082  -2.0571  -2.0360
    -1.9728  -1.9441  -1.9126  -1.8887  -1.7877  -1.7627  -1.7572  -1.7237
    -1.6999  -1.6794  -1.6492  -1.6045  -1.5640  -1.5531  -1.5255  -1.5106
    -1.4673  -1.4311  -1.3811  -1.3611  -1.3459  -1.3163  -1.3054  -1.2367
    -1.2086  -1.1664  -1.1542  -1.1266  -1.0994  -1.0809  -1.0593  -1.0546
    -1.0347  -1.0182  -0.9833  -0.9656  -0.9503  -0.9342  -0.9042  -0.8928
    -0.8856  -0.8749  -0.8415  -0.8258  -0.7786  -0.6354  -0.6052  -0.5570
    -0.5216  -0.4875  -0.4248  -0.4036  -0.3747  -0.3680  -0.3456  -0.3031
    -0.2903  -0.2778  -0.2485  -0.2099  -0.1786  -0.1400  -0.1280  -0.0380
    -0.0261  -0.0184   0.0558   0.0624   0.1525   0.1929   0.2069   0.2448
     0.2863   0.3149   0.3376   0.3617   0.3894   0.4046   0.4302   0.4381
     0.5102   0.5301   0.5518   0.5575   0.6168   0.6311   0.6731   0.6781
     0.7459   0.7976   0.8772   0.9136   0.9717   1.0289   1.0814   1.0992
     1.1452   1.1646   1.2268   1.2388   1.2765   1.3286   1.3711   1.3878
     1.4160   1.4387   1.4527   1.4998   1.5148   1.5766   1.5867   1.5920
     1.6118   1.6407   1.6541   1.6665   1.7402   1.7676   1.8195   1.8561
     1.8839   1.8892   1.9382   1.9631   2.0183   2.1253   2.6134   2.7762
     2.9602   3.0484   3.1158   3.2768   3.3427   3.3577   3.5539   3.7296
     3.9022   4.0687   4.1749   4.1964   4.5264   4.5448   4.7308   4.7661
     4.8777   4.9357   4.9943   5.1171   5.3325   5.4220   5.6691   5.9092
     6.0961   6.1490   6.3135

          k = 0.2000-0.3464 0.0000 ( 94032 PWs)   bands (ev):

   -13.5437 -10.6657  -8.4560  -6.6651  -5.5292  -5.4836  -5.4142  -5.2009
    -5.1141  -4.5279  -4.3996  -4.3808  -4.3778  -4.3456  -4.3237  -4.2933
    -4.2199  -4.1982  -4.1555  -4.1259  -3.8455  -3.8048  -3.7935  -3.7849
    -3.7569  -3.6897  -3.6655  -3.5802  -3.5760  -3.5457  -3.5091  -3.4568
    -3.4449  -3.4211  -3.3964  -3.3532  -3.3171  -3.3121  -3.2861  -3.2344
    -3.1629  -3.1417  -3.0122  -2.9169  -2.8529  -2.8393  -2.8066  -2.7793
    -2.7490  -2.7256  -2.7075  -2.6766  -2.6250  -2.5958  -2.5476  -2.5186
    -2.4541  -2.4316  -2.3763  -2.3632  -2.3307  -2.2759  -2.2542  -2.2243
    -2.1573  -2.1073  -2.0780  -2.0525  -2.0348  -1.9711  -1.9646  -1.9225
    -1.9065  -1.8866  -1.8591  -1.8105  -1.7174  -1.7009  -1.6916  -1.6652
    -1.6390  -1.6252  -1.5620  -1.5387  -1.5111  -1.4882  -1.4225  -1.4010
    -1.3794  -1.3649  -1.3476  -1.3402  -1.3256  -1.2868  -1.2804  -1.2442
    -1.2389  -1.2053  -1.1395  -1.1313  -1.0981  -1.0809  -1.0768  -1.0615
    -1.0312  -0.9993  -0.9825  -0.9647  -0.9558  -0.9450  -0.9381  -0.9115
    -0.8918  -0.8004  -0.7950  -0.7414  -0.6867  -0.6663  -0.6468  -0.6227
    -0.5020  -0.4900  -0.4477  -0.4090  -0.3916  -0.3113  -0.2874  -0.2740
    -0.2444  -0.2072  -0.1955  -0.1527  -0.1315  -0.1173  -0.0501  -0.0369
     0.0485   0.0863   0.1035   0.1217   0.1395   0.1723   0.2279   0.2534
     0.2945   0.3240   0.3473   0.4165   0.4344   0.4610   0.4804   0.4995
     0.5511   0.5919   0.6136   0.6572   0.6782   0.6861   0.7040   0.7258
     0.7384   0.7571   0.7877   0.8496   0.8971   0.9813   1.0059   1.0542
     1.1359   1.2235   1.2312   1.2444   1.2719   1.2965   1.3429   1.3809
     1.3969   1.4111   1.4390   1.4517   1.4654   1.4863   1.5015   1.5295
     1.5478   1.5914   1.6198   1.6421   1.6591   1.6830   1.7346   1.8064
     1.8522   1.9043   1.9109   1.9325   1.9655   2.0044   2.0657   2.1295
     2.3094   2.5751   2.6605   2.8927   2.9544   3.1720   3.2002   3.3268
     3.7048   3.7521   3.9799   4.1017   4.1538   4.2825   4.4352   5.0121
     5.1958   5.3625   5.4506   5.6589   5.8488   5.9802   6.0118   6.0424
     6.1321   6.2615   6.4723

          k = 0.4000-0.2309 0.0000 ( 94026 PWs)   bands (ev):

   -13.5437 -10.6653  -8.4531  -6.5326  -5.9161  -5.3796  -5.2416  -5.1086
    -4.8665  -4.8285  -4.6991  -4.4718  -4.3556  -4.2955  -4.2073  -4.1492
    -4.1190  -4.0802  -3.9983  -3.9239  -3.9108  -3.8843  -3.8371  -3.7749
    -3.7544  -3.7244  -3.6981  -3.6768  -3.6480  -3.6218  -3.5822  -3.5416
    -3.5245  -3.3944  -3.3070  -3.2867  -3.2807  -3.2635  -3.2115  -3.1324
    -3.0489  -3.0389  -3.0316  -3.0180  -2.9577  -2.8784  -2.8166  -2.7516
    -2.7284  -2.7061  -2.6818  -2.6604  -2.6388  -2.5978  -2.5670  -2.5441
    -2.5297  -2.5086  -2.4254  -2.3722  -2.3419  -2.3379  -2.2805  -2.2129
    -2.1775  -2.1640  -2.1256  -2.0980  -2.0798  -2.0096  -1.9632  -1.9285
    -1.8987  -1.8649  -1.8403  -1.7940  -1.7820  -1.7713  -1.6698  -1.6512
    -1.6385  -1.5971  -1.5545  -1.5528  -1.5110  -1.4884  -1.4640  -1.4354
    -1.4160  -1.4075  -1.3957  -1.3807  -1.3783  -1.3482  -1.3351  -1.2690
    -1.2528  -1.2245  -1.1970  -1.1919  -1.1518  -1.1225  -1.0811  -1.0517
    -1.0088  -1.0036  -0.9773  -0.9464  -0.9337  -0.8937  -0.8750  -0.8341
    -0.7784  -0.7438  -0.7308  -0.6978  -0.6399  -0.6012  -0.5471  -0.5142
    -0.4563  -0.4496  -0.4383  -0.3903  -0.3506  -0.3354  -0.3321  -0.2883
    -0.2669  -0.2365  -0.2291  -0.2065  -0.1882  -0.1763  -0.1536  -0.1118
    -0.0349  -0.0238   0.0224   0.0553   0.0906   0.1294   0.1725   0.2598
     0.2624   0.3370   0.3437   0.3709   0.4536   0.4669   0.5332   0.5365
     0.5853   0.6015   0.6077   0.6437   0.6788   0.6798   0.7139   0.7773
     0.7848   0.8373   0.8532   0.8859   0.8932   0.9412   0.9969   1.0350
     1.0996   1.1299   1.1506   1.1798   1.2621   1.2671   1.2869   1.2955
     1.3219   1.3561   1.4124   1.4212   1.4404   1.4718   1.5598   1.5670
     1.5894   1.5971   1.6142   1.6262   1.6593   1.6854   1.8152   1.8358
     1.8566   1.8614   1.8773   1.9657   2.0971   2.2000   2.2986   2.3990
     2.5877   2.8797   2.8942   3.0449   3.1631   3.1777   3.5449   3.6383
     3.7385   3.9012   4.1502   4.1832   4.2588   4.3094   4.4049   4.5764
     4.6845   5.0234   5.0833   5.3136   5.4603   5.9012   5.9861   6.1167
     6.4218   6.5255   6.6423

          k = 0.4000-0.0000 0.0000 ( 94032 PWs)   bands (ev):

   -13.5437 -10.6657  -8.4564  -6.6647  -5.5122  -5.4830  -5.4125  -5.2167
    -5.1143  -4.5789  -4.4023  -4.3811  -4.3741  -4.3327  -4.3237  -4.2858
    -4.2342  -4.1935  -4.1676  -4.0481  -3.8867  -3.8120  -3.7934  -3.7854
    -3.7477  -3.6910  -3.6515  -3.5817  -3.5749  -3.5411  -3.4951  -3.4752
    -3.4420  -3.4149  -3.3988  -3.3400  -3.3265  -3.3120  -3.2717  -3.2478
    -3.1683  -3.1443  -3.0192  -2.9097  -2.8604  -2.8258  -2.8144  -2.7753
    -2.7488  -2.7319  -2.7205  -2.6678  -2.6365  -2.5722  -2.5487  -2.5234
    -2.4483  -2.4087  -2.3700  -2.3636  -2.3458  -2.2795  -2.2538  -2.2311
    -2.1913  -2.0907  -2.0767  -2.0541  -2.0298  -1.9710  -1.9582  -1.9256
    -1.9000  -1.8885  -1.8594  -1.8179  -1.7160  -1.7014  -1.6920  -1.6674
    -1.6325  -1.6267  -1.5600  -1.5426  -1.5114  -1.4891  -1.4206  -1.4011
    -1.3842  -1.3643  -1.3470  -1.3399  -1.3263  -1.2872  -1.2805  -1.2454
    -1.2386  -1.2074  -1.1385  -1.1318  -1.0978  -1.0798  -1.0755  -1.0620
    -1.0334  -0.9990  -0.9825  -0.9651  -0.9515  -0.9429  -0.9374  -0.9143
    -0.8911  -0.8021  -0.7959  -0.7419  -0.6874  -0.6665  -0.6447  -0.6228
    -0.5012  -0.4910  -0.4501  -0.4088  -0.3927  -0.3112  -0.2877  -0.2730
    -0.2448  -0.2064  -0.1947  -0.1522  -0.1307  -0.1174  -0.0498  -0.0349
     0.0472   0.0830   0.1037   0.1215   0.1402   0.1720   0.2296   0.2520
     0.2951   0.3245   0.3473   0.4174   0.4362   0.4601   0.4800   0.4993
     0.5518   0.5910   0.6148   0.6576   0.6794   0.6873   0.7042   0.7257
     0.7370   0.7576   0.7833   0.8490   0.8978   0.9804   1.0058   1.0530
     1.1385   1.2223   1.2312   1.2451   1.2721   1.2968   1.3429   1.3812
     1.3970   1.4125   1.4385   1.4511   1.4651   1.4865   1.5005   1.5287
     1.5480   1.5906   1.6194   1.6417   1.6578   1.6836   1.7341   1.8070
     1.8544   1.9028   1.9112   1.9327   1.9684   2.0049   2.0649   2.1296
     2.3081   2.5652   2.6600   2.9009   2.9538   3.1699   3.2014   3.3235
     3.7024   3.7577   3.9713   4.0986   4.1603   4.3030   4.4392   5.0226
     5.1758   5.3655   5.4570   5.6541   5.8408   5.9567   6.0308   6.0533
     6.1116   6.2132   6.5181

          k = 0.4000 0.2309 0.0000 ( 94026 PWs)   bands (ev):

   -13.5437 -10.6652  -8.4549  -6.5317  -5.9113  -5.3513  -5.2511  -5.1120
    -4.8635  -4.8303  -4.7256  -4.4975  -4.3918  -4.2845  -4.2051  -4.1340
    -4.1148  -4.0655  -4.0089  -3.9264  -3.9100  -3.8853  -3.8635  -3.7745
    -3.7446  -3.7184  -3.7077  -3.6777  -3.6444  -3.6011  -3.5833  -3.5379
    -3.4978  -3.3384  -3.3047  -3.2867  -3.2800  -3.2607  -3.1954  -3.1274
    -3.0542  -3.0460  -3.0307  -3.0111  -2.9916  -2.8787  -2.8339  -2.8069
    -2.7336  -2.7073  -2.6787  -2.6404  -2.6317  -2.5913  -2.5714  -2.5457
    -2.5270  -2.5072  -2.3961  -2.3522  -2.3402  -2.3317  -2.2934  -2.2437
    -2.1719  -2.1412  -2.1252  -2.1023  -2.0882  -2.0280  -1.9606  -1.9216
    -1.8974  -1.8654  -1.8457  -1.7920  -1.7841  -1.7666  -1.6761  -1.6569
    -1.6345  -1.5957  -1.5558  -1.5527  -1.5087  -1.4859  -1.4631  -1.4333
    -1.4149  -1.4067  -1.3959  -1.3813  -1.3777  -1.3484  -1.3320  -1.2736
    -1.2526  -1.2223  -1.1984  -1.1942  -1.1513  -1.1230  -1.0828  -1.0561
    -1.0146  -1.0014  -0.9802  -0.9511  -0.9432  -0.8946  -0.8781  -0.8372
    -0.7791  -0.7435  -0.7313  -0.6999  -0.6436  -0.5977  -0.5516  -0.5121
    -0.4540  -0.4503  -0.4382  -0.3867  -0.3463  -0.3355  -0.3314  -0.2893
    -0.2631  -0.2353  -0.2282  -0.2017  -0.1872  -0.1818  -0.1557  -0.1070
    -0.0349  -0.0272   0.0197   0.0519   0.0940   0.1285   0.1771   0.2556
     0.2590   0.3306   0.3512   0.3741   0.4508   0.4646   0.5322   0.5384
     0.5822   0.6023   0.6092   0.6419   0.6781   0.6811   0.7132   0.7781
     0.7842   0.8386   0.8554   0.8850   0.8878   0.9405   0.9934   1.0339
     1.0990   1.1286   1.1540   1.1820   1.2607   1.2673   1.2881   1.2924
     1.3214   1.3576   1.4121   1.4215   1.4384   1.4693   1.5602   1.5668
     1.5905   1.5956   1.6158   1.6256   1.6646   1.6884   1.8185   1.8399
     1.8578   1.8622   1.8806   1.9665   2.0971   2.2016   2.3021   2.3900
     2.5774   2.8833   2.8941   3.0441   3.1641   3.1832   3.5380   3.6375
     3.7498   3.9037   4.1509   4.1821   4.2672   4.3149   4.4030   4.5805
     4.6919   5.0287   5.0698   5.3124   5.4774   5.8921   5.9810   6.0986
     6.4448   6.5350   6.5933

          k = 0.4000-0.6928 0.0000 ( 94070 PWs)   bands (ev):

   -13.5436 -10.6646  -8.4508  -6.1725  -6.1150  -5.5648  -5.2375  -5.2023
    -4.9695  -4.8147  -4.4597  -4.3670  -4.3227  -4.2260  -4.1613  -4.0931
    -4.0809  -4.0051  -3.9800  -3.9021  -3.8751  -3.8603  -3.8448  -3.8179
    -3.7882  -3.7541  -3.7105  -3.6568  -3.6452  -3.6394  -3.6078  -3.5266
    -3.5036  -3.4008  -3.3788  -3.3340  -3.2773  -3.2558  -3.2332  -3.2134
    -3.1775  -3.0926  -3.0303  -2.9987  -2.9407  -2.8394  -2.8296  -2.7967
    -2.7463  -2.6981  -2.6762  -2.6155  -2.5525  -2.5139  -2.4787  -2.4690
    -2.4478  -2.4137  -2.3565  -2.3445  -2.3308  -2.2822  -2.2611  -2.2228
    -2.2004  -2.1910  -2.1789  -2.1635  -2.1265  -2.1145  -2.0555  -2.0403
    -1.9712  -1.9407  -1.9185  -1.8865  -1.7863  -1.7654  -1.7570  -1.7200
    -1.7008  -1.6830  -1.6520  -1.6100  -1.5633  -1.5519  -1.5268  -1.5102
    -1.4641  -1.4332  -1.3811  -1.3614  -1.3461  -1.3155  -1.3037  -1.2395
    -1.2046  -1.1663  -1.1558  -1.1246  -1.0982  -1.0833  -1.0599  -1.0550
    -1.0352  -1.0181  -0.9856  -0.9624  -0.9519  -0.9356  -0.9039  -0.8926
    -0.8841  -0.8745  -0.8422  -0.8254  -0.7796  -0.6372  -0.6030  -0.5533
    -0.5222  -0.4849  -0.4239  -0.4034  -0.3769  -0.3697  -0.3446  -0.3036
    -0.2891  -0.2781  -0.2480  -0.2079  -0.1794  -0.1399  -0.1278  -0.0390
    -0.0274  -0.0193   0.0549   0.0628   0.1530   0.1935   0.2075   0.2437
     0.2865   0.3154   0.3376   0.3602   0.3895   0.4043   0.4307   0.4377
     0.5099   0.5284   0.5520   0.5585   0.6184   0.6334   0.6720   0.6778
     0.7452   0.7980   0.8758   0.9122   0.9714   1.0293   1.0815   1.1000
     1.1470   1.1650   1.2264   1.2364   1.2767   1.3290   1.3711   1.3866
     1.4161   1.4379   1.4523   1.5003   1.5155   1.5750   1.5865   1.5915
     1.6117   1.6404   1.6541   1.6649   1.7409   1.7675   1.8221   1.8565
     1.8851   1.8886   1.9397   1.9645   2.0186   2.1249   2.6033   2.7873
     2.9553   3.0481   3.1156   3.2650   3.3406   3.3585   3.5559   3.7474
     3.9068   4.0655   4.1831   4.1928   4.5243   4.5430   4.7268   4.7634
     4.8699   4.9309   4.9618   5.1665   5.3395   5.4250   5.6826   5.9254
     6.0873   6.1458   6.2714

          k = 0.4000-0.4619 0.0000 ( 94070 PWs)   bands (ev):

   -13.5436 -10.6647  -8.4497  -6.1711  -6.1204  -5.5583  -5.2746  -5.2009
    -4.9488  -4.7914  -4.4664  -4.3566  -4.2971  -4.2341  -4.1698  -4.0919
    -4.0794  -4.0020  -3.9702  -3.9095  -3.8772  -3.8643  -3.8440  -3.8221
    -3.7930  -3.7540  -3.7007  -3.6541  -3.6441  -3.6345  -3.6092  -3.5656
    -3.5017  -3.4041  -3.3861  -3.3409  -3.3018  -3.2630  -3.2421  -3.2133
    -3.1780  -3.0597  -3.0281  -3.0126  -2.9348  -2.8328  -2.8238  -2.7765
    -2.7227  -2.6975  -2.6740  -2.6265  -2.5607  -2.5189  -2.4978  -2.4710
    -2.4427  -2.4127  -2.3678  -2.3538  -2.3126  -2.2939  -2.2540  -2.2323
    -2.2072  -2.1801  -2.1776  -2.1576  -2.1284  -2.1102  -2.0555  -2.0263
    -1.9857  -1.9362  -1.9182  -1.8903  -1.7822  -1.7616  -1.7551  -1.7214
    -1.7027  -1.6785  -1.6507  -1.6101  -1.5623  -1.5511  -1.5360  -1.5109
    -1.4697  -1.4240  -1.3827  -1.3608  -1.3471  -1.3126  -1.3045  -1.2311
    -1.2079  -1.1699  -1.1584  -1.1250  -1.0996  -1.0806  -1.0567  -1.0547
    -1.0318  -1.0159  -0.9836  -0.9672  -0.9465  -0.9379  -0.9054  -0.8897
    -0.8837  -0.8751  -0.8423  -0.8256  -0.7769  -0.6283  -0.6032  -0.5564
    -0.5207  -0.4884  -0.4239  -0.4067  -0.3799  -0.3661  -0.3450  -0.3040
    -0.2922  -0.2782  -0.2478  -0.2101  -0.1791  -0.1365  -0.1270  -0.0359
    -0.0250  -0.0186   0.0562   0.0621   0.1517   0.1932   0.2095   0.2402
     0.2833   0.3170   0.3362   0.3606   0.3888   0.4038   0.4290   0.4399
     0.5102   0.5293   0.5507   0.5547   0.6159   0.6337   0.6734   0.6814
     0.7481   0.7979   0.8796   0.9129   0.9709   1.0311   1.0803   1.0985
     1.1475   1.1641   1.2262   1.2363   1.2774   1.3280   1.3721   1.3878
     1.4170   1.4399   1.4539   1.4990   1.5144   1.5757   1.5849   1.5931
     1.6114   1.6403   1.6537   1.6679   1.7407   1.7682   1.8196   1.8548
     1.8830   1.8859   1.9375   1.9618   2.0191   2.1262   2.6022   2.7838
     2.9556   3.0483   3.1158   3.2763   3.3432   3.3659   3.5623   3.7246
     3.8977   4.0681   4.1809   4.1892   4.5298   4.5390   4.7319   4.7585
     4.8688   4.9328   5.0021   5.1048   5.3223   5.4277   5.6747   5.9344
     6.1110   6.1504   6.2971

     the Fermi energy is     1.6602 ev

!    total energy              =  -27817.43151653 Ry

     total all-electron energy =  -1326877.489207 Ry
     estimated scf accuracy    <       0.00000031 Ry
     smearing contrib. (-TS)   =       0.00472066 Ry
     internal energy E=F+TS    =  -27817.43623719 Ry

     The total energy is F=E-TS. E is the sum of the following terms:
     one-electron contribution =  -30133.06771045 Ry
     hartree contribution      =   15367.87670775 Ry
     xc contribution           =    -908.25988002 Ry
     ewald contribution        =   13349.63716984 Ry
     one-center paw contrib.   =  -25493.62252432 Ry

     convergence has been achieved in  22 iterations

     negative rho (up, down):  1.280E-02 0.000E+00

     Forces acting on atoms (cartesian axes, Ry/au):

     atom    1 type  1   force =    -0.00107671   -0.00053533   -0.00377354
     atom    2 type  1   force =     0.00107301   -0.00065552   -0.00396068
     atom    3 type  1   force =    -0.00015834   -0.00037019   -0.00402316
     atom    4 type  1   force =    -0.00017975    0.00124846   -0.00386781
     atom    5 type  1   force =    -0.00017626   -0.00002191   -0.00314477
     atom    6 type  1   force =     0.00002308    0.00003141   -0.00327074
     atom    7 type  1   force =    -0.00041196    0.00024538   -0.00390931
     atom    8 type  1   force =    -0.00011546    0.00010442   -0.00317222
     atom    9 type  1   force =     0.00019822    0.00020538   -0.00401659
     atom   10 type  1   force =     0.00028721   -0.00037579   -0.00650360
     atom   11 type  1   force =    -0.00188441    0.00097163    0.00372913
     atom   12 type  1   force =     0.00210426    0.00100605    0.00388016
     atom   13 type  1   force =     0.00018362   -0.00201925    0.00377114
     atom   14 type  1   force =     0.00001311    0.00018374    0.00990119
     atom   15 type  1   force =     0.00036377   -0.00218598    0.00360344
     atom   16 type  1   force =     0.00194092    0.00102402    0.00414284
     atom   17 type  1   force =    -0.00176438    0.00133926    0.00388494
     atom   18 type  1   force =     0.00018773    0.00004548    0.00135263
     atom   19 type  1   force =     0.00014377   -0.00018042   -0.00001717
     atom   20 type  1   force =     0.00008927   -0.00023316    0.00015115
     atom   21 type  1   force =     0.00030175   -0.00003242   -0.00000177
     atom   22 type  1   force =    -0.00002030    0.00010466    0.00054872
     atom   23 type  1   force =     0.00018118   -0.00005571    0.00002532
     atom   24 type  1   force =    -0.00029929   -0.00033013    0.00028266
     atom   25 type  1   force =    -0.00015669   -0.00023691    0.00033171
     atom   26 type  1   force =     0.00002370    0.00014431   -0.00010114
     atom   27 type  1   force =     0.00011465   -0.00014919    0.00052525
     atom   28 type  1   force =    -0.00023970    0.00013869    0.00073301
     atom   29 type  1   force =     0.00010054   -0.00035068    0.00054318
     atom   30 type  1   force =     0.00013808   -0.00032187    0.00021933
     atom   31 type  1   force =    -0.00026897    0.00012744    0.00056106
     atom   32 type  1   force =     0.00000425    0.00004276   -0.00013469
     atom   33 type  1   force =     0.00075560   -0.00040318    0.00013005
     atom   34 type  1   force =     0.00001503    0.00004120    0.00037116
     atom   35 type  1   force =    -0.00024054    0.00006976    0.00031784
     atom   36 type  1   force =     0.00029252    0.00011490    0.00029251
     atom   37 type  2   force =    -0.00201876    0.00039216    0.00083350
     atom   38 type  2   force =     0.00082326   -0.00023217   -0.00000306
     atom   39 type  2   force =    -0.00099283    0.00010214    0.00266142
     atom   40 type  3   force =     0.00015723   -0.00074026   -0.00009682
     atom   41 type  3   force =     0.00024841    0.00016122    0.00022415
     atom   42 type  3   force =    -0.00017515   -0.00129331    0.00000195
     atom   43 type  3   force =    -0.00027532    0.00070446   -0.00027597
     atom   44 type  3   force =     0.00069068    0.00217446   -0.00274635

     Total force =     0.005816     Total SCF correction =     0.000966
     SCF correction compared to forces is large: reduce conv_thr to get better values

     negative rho (up, down):  1.280E-02 0.000E+00

     negative rho (up, down):  1.280E-02 0.000E+00

     negative rho (up, down):  1.280E-02 0.000E+00

     negative rho (up, down):  1.280E-02 0.000E+00

     negative rho (up, down):  1.280E-02 0.000E+00

     negative rho (up, down):  1.280E-02 0.000E+00

     negative rho (up, down):  1.280E-02 0.000E+00

     negative rho (up, down):  1.280E-02 0.000E+00

     negative rho (up, down):  1.280E-02 0.000E+00

     negative rho (up, down):  1.280E-02 0.000E+00

     negative rho (up, down):  1.280E-02 0.000E+00

     negative rho (up, down):  1.280E-02 0.000E+00

     negative rho (up, down):  1.280E-02 0.000E+00

     negative rho (up, down):  1.280E-02 0.000E+00

     negative rho (up, down):  1.280E-02 0.000E+00

     negative rho (up, down):  1.280E-02 0.000E+00

     negative rho (up, down):  1.280E-02 0.000E+00

     negative rho (up, down):  1.280E-02 0.000E+00

     negative rho (up, down):  1.280E-02 0.000E+00

     negative rho (up, down):  1.280E-02 0.000E+00

     negative rho (up, down):  1.280E-02 0.000E+00

     negative rho (up, down):  1.280E-02 0.000E+00

     negative rho (up, down):  1.280E-02 0.000E+00

     negative rho (up, down):  1.280E-02 0.000E+00

     negative rho (up, down):  1.280E-02 0.000E+00

     negative rho (up, down):  1.280E-02 0.000E+00

     negative rho (up, down):  1.280E-02 0.000E+00

     negative rho (up, down):  1.280E-02 0.000E+00

     negative rho (up, down):  1.280E-02 0.000E+00

     negative rho (up, down):  1.280E-02 0.000E+00

     negative rho (up, down):  1.280E-02 0.000E+00

     negative rho (up, down):  1.280E-02 0.000E+00

     negative rho (up, down):  1.280E-02 0.000E+00

     negative rho (up, down):  1.280E-02 0.000E+00
 BEEFens 2000 ensemble energies
             -0.608045751491732E+02
             -0.361834435560925E+01
             -0.158555957654531E+02
              0.430431477966271E+02
             -0.221609701040069E+02
             -0.205550508809237E+02
             -0.353300279270534E+02
             -0.867012242354231E+02
             -0.465541100624502E+02
             -0.473425385748693E+02
             -0.370062225226737E+02
              0.228491700034054E+01
              0.407133044213168E+01
              0.760445339967052E+01
              0.266539028889804E+01
              0.475914366303515E+02
             -0.209179677223799E+02
             -0.230243571397239E+02
              0.193539214015879E+02
             -0.112600775571074E+03
              0.537465902191297E+02
             -0.290210764160360E+02
             -0.336955991296339E+01
             -0.114284223762633E+02
             -0.881746267795927E+01
             -0.463413143940548E+01
              0.884491739139983E+02
             -0.187780432421576E+02
             -0.901084440987950E+01
             -0.519540265809225E+02
              0.816731549800113E+02
             -0.187164675071277E+02
             -0.375848803540729E+02
              0.249459833348910E+02
             -0.285489633381485E+01
              0.164818236523379E+02
             -0.484782989934234E+01
              0.107980520790592E+02
              0.289269181426691E+02
             -0.103460714841387E+03
              0.559585855678217E+02
              0.142611091849279E+02
             -0.175827165775956E+01
             -0.361945874989131E+02
              0.123484674159821E+02
             -0.147304744836617E+02
              0.399572514892676E+02
              0.365449064329182E+02
             -0.308366380186450E+02
             -0.275722619328586E+02
             -0.329140622729687E+02
             -0.352902228241566E+02
              0.136879404207401E+02
             -0.491912105560730E+02
              0.115974852175478E+02
              0.624179927548014E+02
              0.636975797029916E+02
              0.356497728331684E+02
              0.154333316045031E+02
              0.271256447244289E+02
              0.893371964157196E+02
              0.212833765642270E+02
             -0.549698989742766E+02
             -0.157145892484483E+02
             -0.236589425136397E+02
              0.631031884613669E+02
             -0.774675001199513E+02
             -0.672961691309171E+02
             -0.260324617497753E+02
             -0.652228077928351E+01
             -0.471371740064056E+02
              0.271247219706676E+02
              0.804010249990961E+01
              0.871005749397068E+01
             -0.398068116916735E+02
             -0.347612368741874E+02
             -0.543149895803418E+02
              0.390977604790896E+02
             -0.296793924646618E+02
              0.265999870675872E+02
             -0.717623182197141E+01
             -0.318541277860156E+02
             -0.577127837805637E+02
             -0.176933466880210E+02
             -0.908925867632922E+01
             -0.124947124133279E+02
              0.413013486538491E+02
              0.684479736867365E+02
             -0.386466761744557E+02
             -0.796181962129700E+02
             -0.219888937915196E+02
              0.111717911332926E+03
             -0.593684727940865E+02
              0.356766227413297E+02
             -0.959610328667850E+01
             -0.664183075538479E+02
              0.254812557437764E+02
              0.398435476350406E+02
             -0.199216139017394E+02
              0.400721158264890E+02
             -0.296378297313279E+02
             -0.479530972593062E+02
              0.868076649120119E+02
              0.454819203750520E+02
              0.336793304923549E+02
              0.146629401540049E+02
              0.206224293717568E+02
              0.857994671643999E+02
             -0.257190914838010E+02
              0.788422708391822E+01
             -0.142655759996798E+03
              0.181433274048160E+02
             -0.717486601566017E+02
              0.151245623221124E+02
              0.205065925423685E+02
             -0.333631772713409E+02
             -0.558173976663199E+02
              0.653580928190775E+01
             -0.304842553031631E+02
              0.308941414254064E+02
             -0.530733598520822E+02
              0.168651923442360E+01
             -0.357647713310098E+02
             -0.423895244367100E+01
             -0.102985259125731E+01
              0.181813196779233E+02
              0.143508628838651E+01
             -0.651878254942528E+01
              0.591816384778636E+02
              0.910124266596792E+02
              0.485201680196609E+02
              0.831414211118226E+02
             -0.115286146671886E+02
              0.143259822200519E+02
              0.542078649832147E+02
             -0.110631939131923E+02
             -0.737385156366040E+02
             -0.385179614048915E+02
             -0.522786788942151E+02
             -0.277288057170552E+02
              0.327722742333362E+02
             -0.117018260705853E+03
             -0.187570226240373E+02
              0.415024484565425E+02
             -0.386968897280296E+02
             -0.366094355948734E+02
              0.545362423114109E+02
              0.401605599783588E+02
             -0.354622171226785E+02
              0.138522214342815E+02
             -0.273829081462179E+02
              0.343943668455021E+02
              0.445271483623765E+01
              0.211102046951710E+02
             -0.886358931473599E+02
             -0.480973910676379E+02
             -0.997384878153355E+01
              0.319449763627595E+01
             -0.367578596483168E+02
              0.106246032398336E+03
             -0.231075247790490E+02
             -0.399186438589023E+02
              0.389539413159416E+02
             -0.495007369928801E+02
             -0.364096805106027E+02
              0.325354458652114E+02
              0.124756314938067E+02
              0.164706964820930E+02
              0.116963119208781E+02
             -0.133044677813157E+02
              0.225236702584914E+02
              0.591071326719426E+02
             -0.312057920336321E+02
              0.162783697380982E+02
              0.936176751804428E+02
              0.341450032540926E+02
             -0.729198470996585E+01
             -0.189165723975763E+02
              0.153649955086678E+03
             -0.164718384256390E+02
              0.364095967399558E+02
              0.195153404361603E+02
              0.361958818856644E+02
              0.893740744469181E+02
              0.543790044418938E+02
             -0.240032507082263E+01
              0.228328053236011E+02
              0.486071474355680E+02
              0.364318758568904E+02
             -0.526804066680274E+02
              0.937813681920147E+02
             -0.827400624013910E+02
             -0.198250757102343E+02
              0.583793089666161E+02
              0.681079113659157E+01
              0.790044073914271E+01
              0.341236213740344E+02
              0.299447250279284E+02
              0.354286398674124E+02
             -0.638763058852878E+02
              0.287324363772711E+01
             -0.298034655205445E+02
             -0.870629546292736E+01
             -0.147042582059214E+01
             -0.727532968232253E+01
             -0.416605139022039E+01
              0.860908835000906E+02
             -0.101053064521088E+02
             -0.276918054083891E+02
             -0.496126577319115E+01
              0.140213928908679E+02
             -0.565308314259639E+02
             -0.408508178693760E+02
             -0.382577506261051E+02
             -0.631668179707930E+02
             -0.170112661653837E+02
             -0.448246775544597E+02
              0.163679249876200E+02
             -0.238954004228705E+01
             -0.104662351514744E+02
             -0.935861543743638E+01
              0.808202529442150E+01
             -0.242791323445260E+02
              0.690637032554485E+02
             -0.809021831274541E+02
             -0.141356775657430E+02
             -0.174165514802900E+02
              0.182105924681629E+02
              0.215063718672193E+02
             -0.464751649806776E+02
             -0.202141162852392E+02
              0.441755543765002E+02
             -0.276442942183735E+02
              0.187379367522259E+02
              0.383360485934081E+02
             -0.323447470111330E+01
              0.114365457312445E+03
             -0.230080718760092E+02
             -0.341649090469149E+02
              0.577806044890934E+01
             -0.228892267673957E+02
              0.528622987632784E+02
             -0.338292372965954E+02
              0.106781959274093E+02
              0.641372459672916E+02
             -0.126473925004779E+02
              0.120479811751323E+03
              0.126128190924372E+03
             -0.651298318330873E+02
              0.591801924218440E+02
              0.167035544200945E+02
             -0.518902221357151E+02
              0.216356401190221E+02
              0.355012274777894E+02
              0.363709675425021E+02
              0.134849301729028E+01
              0.160140808777812E+02
              0.697345072156256E+02
             -0.247390823614677E+02
              0.181455106408976E+02
              0.740122443399163E+02
             -0.373090282703484E+02
             -0.130337114302166E+02
              0.509908840337629E+02
              0.298028776251234E+02
              0.781669942966677E+02
              0.223435955007782E+02
              0.629054100269855E+01
              0.280775509523097E+02
              0.384164609262574E+02
             -0.473059539938255E+02
              0.334048830341521E+01
              0.130614937042866E+02
              0.114110380885280E+02
              0.221045292397294E+02
             -0.576197229563153E+02
              0.366650664410688E+02
             -0.444703118905160E+02
             -0.348140536312646E+02
              0.178582281091816E+02
             -0.181404047255037E+02
              0.556440774201799E+02
             -0.256247537413585E+02
              0.267439343046005E+02
              0.368732328658637E+02
              0.830711102863385E+02
              0.575678535510203E+02
              0.462772632846553E+02
             -0.105368110234593E+02
             -0.394717680981637E+01
             -0.332678416942207E+02
              0.752368824405652E+02
              0.798741055855530E+02
              0.362780038762917E+02
             -0.192628786390291E+02
              0.512798716717197E+02
             -0.162609576284728E+02
              0.214974892694880E+02
              0.615855708925778E+02
              0.213786122741928E+01
             -0.104500392252251E+02
             -0.283245531351346E+02
             -0.513151405537620E+02
              0.947455772928868E+02
              0.440956425549285E+02
             -0.560562116359499E+02
             -0.969062632578201E+01
              0.250225408938023E+02
             -0.997948798738261E+01
              0.593462346773495E+02
              0.152430441357114E+02
              0.800758444754393E+02
              0.280295562711228E+02
             -0.264293047265670E+02
              0.249263568205257E+02
             -0.502868392900058E+01
             -0.323972488585267E+02
              0.133487149285540E+02
              0.205909559215997E+02
              0.934836857278191E+02
              0.798847314508046E+02
              0.552165754126195E+02
              0.731916087783852E+02
              0.802727820366300E+01
             -0.274323833546504E+02
              0.163439792196779E+02
             -0.368492819081195E+02
             -0.477601804711974E+02
             -0.564671617754351E+02
             -0.267184196659363E+02
             -0.109905765449489E+03
             -0.292304977674890E+02
             -0.839125809474679E+02
              0.210628428510209E+02
             -0.477868527596365E+02
              0.397898442677839E+02
             -0.943480039611568E+02
             -0.330800110896791E+02
              0.549023557914935E+02
              0.208133429917036E+02
             -0.832648889409318E+02
              0.631953502823018E+02
             -0.257445739221178E+02
              0.513458685945746E+02
             -0.242899317017644E+02
             -0.752976731524187E+02
              0.112106734593373E+02
             -0.612581182825261E+02
             -0.167992641210599E+02
             -0.149229455981363E+01
              0.418928222303185E+02
              0.127262888228144E+03
             -0.462520077747432E+02
             -0.363348733850379E+02
             -0.988520161346912E+00
             -0.130366977097247E+02
             -0.824225660522111E+02
             -0.597787882961470E+02
              0.518179940648370E+02
             -0.289164595749147E+02
              0.169910749815054E+02
             -0.490244875724923E+02
             -0.132236745768485E+02
             -0.437983862118275E+02
              0.566541023932901E+02
              0.151135011552782E+02
             -0.232205707782435E+02
             -0.127356518710703E+02
              0.670798510988203E+01
             -0.619599462703405E+01
              0.442279341667349E+02
             -0.252428714559219E+02
              0.281178312920247E+01
              0.340200199147502E+02
              0.171378351224469E+02
             -0.160421320741737E+02
              0.156577959900881E+03
              0.539352417283804E+02
              0.119836275109229E+01
              0.161573953614437E+02
             -0.616035046010330E+02
              0.315714719848940E+02
             -0.723421047694508E+02
             -0.252865608233849E+02
             -0.523979205921677E+02
             -0.220485726692201E+02
              0.570595786183812E+02
             -0.538237737786157E+02
              0.161546424022657E+02
             -0.411159463400099E+01
              0.386840753861247E+01
             -0.434354444341965E+02
             -0.479178683686269E+02
             -0.403348921408428E+01
             -0.425392628249225E+02
             -0.217575771757986E+02
             -0.439263745359622E+02
             -0.119347411647061E+02
             -0.359587687168078E+02
             -0.517492671660489E+02
              0.213034104994268E+02
             -0.209285361115930E+02
              0.188366834523305E+02
              0.976522812458882E+01
             -0.739629246854935E+02
             -0.549085458121344E+02
             -0.399423266170180E+02
              0.354705963148785E+02
              0.267837607799996E+01
             -0.627710617735581E+02
              0.587016013001529E+02
             -0.402079722009459E+02
              0.546247201838433E+02
             -0.290301669810334E+02
             -0.446901693393696E+02
              0.298766771820224E+02
             -0.659167417170865E+02
             -0.380565820540260E+02
              0.673738293430336E+02
              0.204526489131808E+02
             -0.361247461236153E+02
              0.490652326690675E+02
             -0.174391562080957E+02
             -0.323751492278691E+02
             -0.302312530088862E+02
             -0.501737303563184E+02
              0.250078275371776E+02
             -0.934923859356305E+02
             -0.841684625896436E+02
             -0.737074447012549E+01
             -0.307477655065773E+02
             -0.576858865336744E+02
              0.723349505874415E+02
              0.131818831328283E+03
             -0.361262008099526E+02
             -0.257048585932631E+01
             -0.638232277070441E+02
              0.652034567636841E+02
              0.171161330191308E+02
             -0.182171634167456E+02
             -0.410766835152941E+02
              0.148916473376116E+02
             -0.587312376651866E+02
             -0.198101715508387E+02
             -0.906277800597372E+02
              0.337706189598850E+02
              0.169052614012172E+02
              0.183326717401576E+01
             -0.709997131719808E+01
             -0.330601564805077E+02
             -0.762459169584793E+01
              0.125821017635719E+03
             -0.199352005965058E+02
             -0.438647520091643E+02
             -0.685413067744666E+02
              0.109674547860401E+02
             -0.343069151990852E+02
              0.593987187567674E+01
              0.262217942516543E+02
              0.102276465844475E+02
              0.278727039831764E+02
              0.120350364337564E+02
              0.630857199760203E+02
              0.317252665993385E+02
             -0.327463626611941E+02
              0.357084736324723E+02
              0.380143537643033E+02
              0.121078548569322E+02
              0.487722007264696E+02
             -0.225615452336295E+02
              0.767060339794862E+02
              0.172933638389749E+02
             -0.272921128360712E+02
             -0.724415746615915E+01
             -0.186866282901128E+02
              0.262136074913889E+02
             -0.234951400307464E+02
             -0.164182318296298E+00
             -0.851550719290515E+01
              0.811510836817638E+02
              0.501274957872216E+02
             -0.688139279257794E+02
             -0.477996628484615E+01
             -0.556278802950927E+02
             -0.159670401853575E+02
             -0.268668906231269E+02
              0.378464682344656E+01
              0.592969855417181E+00
             -0.258199304530588E+02
              0.818345538267033E+01
             -0.604738909816142E+01
             -0.128535875431842E+02
              0.860795125093232E+02
              0.182117858170286E+02
             -0.809019434900500E+02
             -0.459192035188507E+02
              0.947111994060366E+02
              0.278351615701740E+02
             -0.106970120375530E+02
              0.104795742689190E+03
             -0.194988151810408E+02
             -0.123206737835113E+02
             -0.542409371874714E+01
              0.107760682523841E+02
              0.273316022886607E+02
              0.780134708491610E+01
              0.305882277694939E+02
             -0.188154339495392E+02
             -0.304785618475903E+02
             -0.418877991045922E+02
             -0.477817436884251E+02
              0.464864225824605E+02
              0.127089927521940E+02
              0.388400016429101E+02
              0.133837372555292E+02
              0.857588462076272E+02
              0.156859077212809E+02
             -0.847758166993816E+02
             -0.335130822211008E+02
              0.133660734679309E+02
             -0.303274007489257E+02
              0.627879660014231E+02
             -0.889742288937873E+01
              0.149068873695482E+02
              0.498370936617545E+02
             -0.709108486374795E+02
              0.150034136602312E+03
              0.209096322622395E+02
              0.271793462806862E+02
              0.348471446690412E+02
              0.103653197046738E+02
             -0.156804551961636E+01
              0.358952258157458E+02
             -0.357955564071380E+02
              0.775289839442324E+02
              0.686601574053952E+02
             -0.406886899323397E+02
              0.149812289400307E+02
              0.671721753051212E+02
             -0.224294074569102E+02
              0.154889792717744E+02
              0.435652579529150E+02
              0.423038698600719E+02
             -0.786351787830075E+02
             -0.152814449117984E+02
             -0.356561021437122E+02
             -0.149782819005407E+01
             -0.766871749869604E+01
             -0.540217151531408E+01
             -0.180848748075951E+02
             -0.294561936367118E+02
              0.638873517374451E+01
              0.111867685011728E+02
              0.536765195260533E+02
             -0.391377745710161E+02
              0.375615938478692E+02
              0.439618740666649E+02
             -0.186542372001003E+02
              0.873777427440483E+02
             -0.699338528498433E+02
             -0.103410983404948E+03
             -0.662656129396929E+01
             -0.271061418997851E+01
              0.385056945165672E+01
              0.791331044263726E+02
             -0.107016701228869E+02
              0.417650994755141E+02
              0.444953566269258E+02
              0.386152125356905E+02
             -0.997065193394576E+01
              0.628636881793274E+02
             -0.134083963687420E+02
             -0.308288098167283E+02
             -0.479958724749819E+02
              0.589961206465652E+01
              0.370042189474749E+02
             -0.603082556306407E+01
              0.393552013808645E+02
             -0.176871247442921E+01
              0.656347854926639E+02
              0.187621487179745E+02
              0.100098870788226E+02
             -0.121611503759216E+02
              0.332761574843551E+02
              0.363552194734763E+02
              0.232933339821078E+02
             -0.515184729643863E+00
             -0.551669536876185E+02
              0.261530615002618E+02
              0.175681022020802E+02
              0.403118462502283E+02
              0.272914755407684E+02
              0.373280816058053E+02
             -0.605401583847848E+01
              0.251947602696430E+02
             -0.299298120212527E+02
             -0.197563096091858E+01
             -0.570281459539528E+02
             -0.308679456336495E+02
              0.379618544580537E+02
             -0.937491307447489E+02
              0.294913784471765E+02
              0.184268397300416E+02
              0.842227561416910E+02
             -0.300508179314177E+02
              0.330224749064970E+02
             -0.138027338057606E+02
             -0.465154298084123E+02
             -0.762823567733245E+02
             -0.531258653777542E+01
             -0.861992440601688E+02
              0.199813316352933E+02
             -0.247911722913599E+02
              0.306601512762575E+02
              0.237637929562809E+02
             -0.241854779248389E+02
             -0.266127256607158E+02
              0.391836738818958E+02
             -0.589587412213652E+02
             -0.117134248037572E+02
             -0.196497092561292E+02
              0.213256007622277E+02
             -0.887720052579891E+01
              0.364361908370492E+01
             -0.200928661409476E+02
              0.560029823076110E+02
             -0.441113169288577E+02
              0.789392473976625E+01
              0.586825466100983E+02
             -0.324230257104448E+02
              0.361811768468962E+01
             -0.880285238999681E+01
             -0.670779944956065E+02
             -0.483202073000196E+02
             -0.860878362105671E+01
              0.241553794586349E+02
              0.303219546234797E+02
              0.860174317463571E+01
             -0.418651290038292E+01
              0.152259334966927E+02
             -0.440615621895863E+02
              0.331626445426070E+01
             -0.532164537064463E+02
             -0.325415240666191E+02
              0.475951001532400E+02
             -0.295824107342675E+02
              0.624128962295844E+02
             -0.215281317638823E+02
              0.354289399433560E+02
              0.242334113886409E+02
             -0.645395555487689E+02
             -0.280873427171642E+02
              0.935136724118837E+01
             -0.372929101359767E+02
             -0.340440032521705E+02
             -0.832137836453105E+02
             -0.540485944377662E+02
             -0.511616727515405E+02
             -0.416550393116117E+02
             -0.982586472769469E+00
              0.100237685204856E+02
              0.108472690166840E+01
              0.154016040744125E+02
             -0.550681824035434E+02
              0.142252127186778E+02
              0.257508628122581E+02
             -0.668173454580751E+02
             -0.703138741954162E+02
             -0.432262877434342E+02
             -0.172920988137471E+02
              0.178814334751860E+02
              0.454583573531988E+01
             -0.426651755269264E+02
              0.366767973101670E+02
             -0.216645781212699E+02
              0.518544955141649E+02
             -0.889240908756199E+02
              0.599359046261817E+02
             -0.217373235506204E+01
             -0.369401083745828E+02
             -0.216943123654136E+02
              0.471420500828496E+01
              0.375729580531346E+02
             -0.757808939329364E+02
             -0.121053975133523E+02
             -0.217084193120200E+02
              0.511920866960090E+02
              0.866589857109063E+02
             -0.967610532432511E+02
              0.945958109585054E+02
              0.468351575004500E+02
             -0.727114741859225E+02
             -0.367174791142201E+02
              0.753644438090712E+02
              0.633179719040454E+02
[...]
              0.283791341602209E+02
              0.142075268976799E+03
              0.243017132192849E+02
              0.122925770432603E+02
             -0.465281711906941E+02
             -0.638914517367726E+02
             -0.189254243512592E+02
              0.330239011320117E+02
             -0.428596479288296E+01
              0.190762615982612E+02
              0.337042864909151E+02
             -0.587537421099751E+02
              0.223000362525542E+02
              0.582457467005306E+02
              0.553885778792696E+02
             -0.421930065824665E+01
             -0.135128071575014E+01
             -0.994201375159528E+01
             -0.483158143511629E+02
             -0.676418034383634E+02
              0.786960489946915E+02
             -0.525350237587244E+01
             -0.588896373861414E+02
              0.174323252529979E+01
             -0.205909046727610E+02
              0.940078093566490E+02
             -0.217130246040776E+02
             -0.354406714049063E+02
              0.336045111057978E+02
             -0.146137289583446E+02
              0.390535869664653E+02
             -0.234056314961498E+01
              0.101253403485314E+03
              0.490826655828589E+02
             -0.505229461895682E+01
             -0.322854145104504E+02
              0.232859629936830E+02
             -0.529651943256206E+02
             -0.128019115810528E+02
              0.587023204100385E+02
             -0.288277220846729E+02
             -0.439177434198723E+02
             -0.223731234287240E+02
              0.519646251750290E+02
              0.124920346401595E+02
             -0.850214573182953E+02
              0.304486610743697E+02
              0.152112887097182E+02
              0.579777121083853E+01
             -0.514433533786178E+02
             -0.375299054722421E+01
              0.323823228625422E+02
              0.513474254658759E+02
              0.634099140605464E+02
              0.229778172755946E+02
              0.776668011145688E+00
             -0.499176812030670E+02
             -0.510785863631071E+02
             -0.748897109922456E+02
             -0.620937484056697E+01
              0.309686973902171E+02
             -0.376783820700945E+01
              0.547910941202390E+02
             -0.318679536073079E+02
              0.166863411841523E+02
             -0.103257555814281E+02
             -0.290094018003591E+02
              0.586761280534779E+02
              0.792845517144070E+01
              0.605634743335164E+02
              0.508845435694650E+01
              0.265357356194416E+02
             -0.193006024187476E+02
              0.587251289631274E+02
             -0.111900777008932E+02
             -0.117464641560248E+00
             -0.791629795528419E+02
             -0.128407099348491E+02
              0.720278307910826E+02
              0.674217043483959E+02
              0.252545246756182E+02
             -0.130661815293873E+02
              0.346612301220787E+01
             -0.174090720104217E+02
             -0.211468825730964E+01
              0.909587608386268E+02
              0.127097996835005E+01
             -0.191156935338616E+02
             -0.110948269485606E+03
             -0.553202965891709E+02
             -0.375734284507339E+02
             -0.659634299940333E+02
             -0.556759833049431E+02
             -0.683815999659431E+02
             -0.448067429573229E+02
             -0.411361543871951E+02
             -0.452822819457777E+02
              0.484308716531217E+02
             -0.294332537365833E+02
             -0.996489694810382E+02
              0.419597875078757E+02
             -0.260808524601868E+02
             -0.792398093002082E+02
              0.945690019254326E+02
             -0.220312072001409E+02
              0.228254738949175E+02
              0.455610529722564E+02
             -0.129994483625791E+01
              0.255012806751693E+02
              0.468710638467695E+01
              0.416803114266205E+00
             -0.150946660944419E+02
             -0.717230867689574E+02
              0.133280353335834E+02
             -0.129597403303738E+03
              0.625724773399026E+02
             -0.441458889062430E+02
             -0.163379378148095E+02
             -0.158644397959541E+02
              0.720228312260587E+01
             -0.227930742187026E+02
              0.297478871028089E+02
             -0.521711291112662E+02
              0.367785806659301E+02
              0.371798089791024E+02
              0.168438929503368E+02
              0.100772768662551E+02
              0.198229738235699E+02
              0.624837394272777E+01
              0.310789254715833E+02
             -0.798741093453486E+01
             -0.593972175425536E+02
              0.759390762164128E+01
             -0.153399562027440E+02
             -0.194068510630984E+01
              0.507447598252839E+02
             -0.828270011083722E+02
             -0.147284881823350E+01
              0.587332126245371E+00
              0.997253195586273E+01
              0.319044695684321E+02
             -0.123873909945188E+02
              0.837301792612228E+02
              0.488029807515119E+02
             -0.183322676386480E+02
             -0.956048273805879E+01
              0.107214751543921E+01
              0.770928246014594E+02
             -0.587051911816638E+02
             -0.105940097245427E+03
              0.309734039919917E+02
             -0.163406795513086E+02
             -0.139795022811892E+02
              0.131050434745217E+02
              0.769851189913994E+02
              0.464884668076815E+02
             -0.153783777108483E+02
             -0.504142087287308E+02
             -0.552696992315282E+01
              0.306923150342294E+02
             -0.111948846507146E+02
             -0.757200997390316E+02
             -0.274646002791729E+01
             -0.891929842421904E+02
             -0.476606576559315E+02
              0.770438497252561E+02
             -0.484607207272094E+02
             -0.637959462968173E+02
             -0.515301613203046E+02
             -0.350587405523672E+02
              0.341567917271148E+02
              0.823149605603373E+02
             -0.360852921318377E+01
              0.277117687127907E+02
             -0.184172198399911E+02
             -0.695334907482404E+02
              0.466086732903541E+02
             -0.446032687145305E+02
              0.322038345994473E+02
              0.376615033633507E+02
             -0.658632145449468E+01
              0.390979471599243E+02
              0.438904101380098E+02
              0.100921734041044E+03
             -0.156063092121444E+02
             -0.457472443745193E+02
             -0.614087536244911E+02
             -0.124423563169532E+02
             -0.233856045854424E+02
              0.103177433874618E+03
             -0.449902009524603E+02
              0.105322495890561E+02
              0.970982213517283E+01
             -0.264973612327504E+02
             -0.800616311711365E+02
             -0.700228988070063E+01
              0.981726663076368E+02
              0.943105168597366E+01
              0.808847013857377E+01
             -0.528313716654358E+02
             -0.606493516829989E+02
             -0.568143645661360E+01
              0.501360609337479E+02
             -0.222400805715799E+02
              0.108154260174899E+03
             -0.436609384852983E+02
              0.146673477685533E+02
             -0.224245565955390E+02
             -0.719657246850614E+02
              0.170265751774423E+01
             -0.502783719163117E+02
             -0.761964861577868E+02
              0.619201527544988E+01
              0.237360529052083E+01
              0.515042302466981E+02
              0.187798568894725E+02
             -0.324378201546899E+02
              0.230330629538796E+02
             -0.812804995126537E+02
             -0.522578513524279E+02
              0.903470282355266E+02
              0.142234686022531E+02
             -0.187938601146133E+02
             -0.352672892315527E+02
             -0.270534730418399E+01
             -0.589943438581361E+01
              0.832062537180428E+02
              0.418533304420923E+02
             -0.166035110527409E+02
             -0.121620529794584E+02
             -0.428114211094581E+02
             -0.200688138458250E+02
             -0.671036350041108E+02
              0.460740187211608E+02
              0.548172597462332E+01
              0.144975401971241E+02
              0.156563630413161E+02
             -0.606118075164382E+00
             -0.168879836564484E+02
             -0.303752130762287E+01
             -0.100651768820568E+03
             -0.230092784186537E+02
             -0.768269179328695E+01
             -0.949449705799276E+01
              0.547193640997849E+02
              0.625175198439655E+02
              0.165168130985381E+02
             -0.972261125293004E+02
              0.648722353225888E+02
             -0.215398532947057E+02
             -0.377746614748378E+02
             -0.865841630229539E+02
             -0.387189567423565E+02
              0.565913953530134E+02
              0.244990260875990E+02
              0.516795981005367E+01
              0.292941588588504E+02
             -0.565888766808049E+02
             -0.423264078353616E+02
              0.516576209935070E+02
              0.387938406914491E+02
              0.519711489883762E+02
             -0.116759057063246E+01
              0.688586377461098E+01
              0.570392415688844E+02
              0.964532854116330E+02
             -0.300427024207018E+02
              0.323803446499369E+02
             -0.119456589981188E+02
             -0.412871398355693E+02
             -0.315107856510440E+02
             -0.300943270137552E+02
             -0.131677891570046E+02
             -0.524235251464335E+02
             -0.217438494307599E+02
             -0.141400727955210E+03
              0.369426176337662E+02
              0.207311259324609E+02
             -0.394915933520814E+01
             -0.380767475675622E+02
             -0.204440113874649E+02
             -0.528032143006731E+02
              0.151194270463992E+02
              0.821462139263002E+02
             -0.252353690661141E+02
             -0.163447360010988E+02
              0.238586666439061E+02
             -0.490390439712244E+02
              0.881912552462501E+02
              0.154606847208824E+02
              0.226166193111574E+02
              0.491211001001230E+02
              0.317187397935834E+01
              0.543193701185827E+02
              0.143506874085603E+02
             -0.106443734746075E+02
              0.734928131690111E+01
              0.751664301849814E+00
              0.728247928994136E+02
              0.101245807108004E+02
              0.121068163032845E+02
             -0.130210577452382E+02
              0.132419792369926E+02
             -0.912830757384028E+02
             -0.326446326380047E+02
             -0.458307461093954E+02
              0.486057032621936E+02
             -0.291790906990363E+02
             -0.659296251095598E+02
              0.539694357022219E+02
             -0.122105172592244E+02
              0.440852817643369E+02
             -0.900211725590194E+02
              0.232293595363909E+02
              0.857125286991118E+01
              0.586347156809302E+01
             -0.835505678980149E+01
             -0.905371377796575E+01
              0.480180128940680E+02
              0.198545394452731E+01
             -0.476232306152619E+02
             -0.176563413960574E+02
              0.276790093413004E+02
             -0.118135928462972E+03
             -0.931277386670778E+02
              0.395554287023629E+01
              0.118017189950935E+02
             -0.414344041007794E+02
             -0.387485097038689E+01
              0.112282196419474E+03
              0.306930348823971E+02
             -0.572557456339349E+02
              0.926383912632451E+01
             -0.965832942336306E+01
              0.105911529020721E+02
             -0.338476701111178E+02
              0.195931952858028E+02
              0.285054405691435E+02
             -0.301658782787314E+01
              0.108389803160019E+03
             -0.140193531102613E+02
             -0.316387227140773E+02
              0.143591303827295E+02
              0.467192076978871E+02
             -0.356310663730400E+02
             -0.318148168509788E+01
              0.966625875640151E+02
             -0.462413272229173E+01
              0.622593240230835E+02
              0.135730796574579E+02
             -0.902778627114361E+01
             -0.305586413978235E+02
              0.567369141071244E+02
             -0.515281576500428E+02
             -0.219811354601745E+01
             -0.170351266455364E+02
             -0.405878407370601E+02
              0.185171135529181E+02
              0.239882063348091E+02
              0.115984305803112E+02
              0.712561737043529E+00
             -0.385430711373465E+02
              0.215532824519719E+02
             -0.673611951497415E+01
             -0.246828612949086E+02
             -0.210888466938404E+02
              0.203398274086408E+02
             -0.597297445556637E+01
             -0.349924669935401E+02
             -0.106825420662790E+03
              0.103154900675355E+02
              0.248862243137849E+02
             -0.388293072006933E+02
             -0.211520735746012E+02
              0.808630811576841E+02
              0.654878350650836E+01
              0.311847383480068E+02
              0.394426889835961E+01
              0.322698519292410E+02
              0.646033272086549E+01
             -0.373751416448056E+02
             -0.236704360161195E+01
              0.877562176136229E+01
              0.274441160695335E+02
              0.783074738035592E+02
              0.508243623781711E+02
              0.188476650314499E+00
              0.169496396827021E+02
              0.614366595899678E+02
              0.236487346183069E+02
             -0.753975110096737E+02
             -0.274083849814323E+02
              0.151108651820974E+02
              0.564200667695184E+01
              0.255591866158233E+02
             -0.548572763677170E+02
              0.899381339787826E+01
              0.386837774994430E+02
              0.498833731309237E+02
             -0.435722223255299E+02
             -0.688917912850002E+01
             -0.209127716399360E+01
             -0.134100142490092E+02
             -0.365913461593248E+02
             -0.215473264865483E+02
             -0.206930982737389E+01
              0.794812488107368E+01
              0.422112171282626E+02
             -0.308905469240559E+02
              0.827628817766351E+02
              0.328164082147650E+02
              0.220386708317981E+02
              0.333804941760837E+02
              0.323452869462666E+02
              0.346976881502755E+02
              0.538180598540374E+02
             -0.434713353186736E+02
              0.620760095988161E+02
             -0.112479216119956E+03
              0.307883317741637E+02
             -0.106714709053532E+03
              0.856100339191710E+02
              0.692135747982139E+02
             -0.110043750729217E+02
             -0.493949020268871E+02
             -0.430352389542005E+02
             -0.624354564633222E+02
             -0.630020993660781E+02
              0.552884538118445E+02
              0.406355155483305E+02
              0.237268574852166E+02
              0.374067470651371E+02
              0.404166350837423E+02
             -0.382863199850507E+02
             -0.198104690593723E+02
              0.587583448688379E+02
             -0.116388603565538E+02
              0.552746412601675E+02
              0.701018169404472E+02
             -0.556615521720718E+01
             -0.707737293809889E+02
             -0.861029656312667E+00
             -0.246519667039556E+01
             -0.884751084335596E+01
             -0.180363239887538E+01
             -0.654102991614199E+02
             -0.210693388489134E+02
              0.542522164924609E+01
              0.902790608110760E+01
              0.469962749340957E+02
             -0.398637605352670E+02
              0.658034649301062E+02
             -0.426051031094050E+02
              0.211048196436330E+02
              0.351189303802801E+02
 
 BEEF-vdW xc energy contributions
           1 :   -784.139086961009     
           2 :    720.202010145365     
           3 :   -609.566081471706     
           4 :    479.399585121598     
           5 :   -357.247871767128     
           6 :    262.938338757651     
           7 :   -204.102054533128     
           8 :    176.166544816185     
           9 :   -166.403083139784     
          10 :    160.115291344417     
          11 :   -146.447624117607     
          12 :    121.623558012704     
          13 :   -88.7708140543521     
          14 :    54.9732858780557     
          15 :   -27.2554672076858     
          16 :    9.31719102951331     
          17 :  -0.282015486212003     
          18 :   -4.30214246847390     
          19 :    9.94304539505981     
          20 :   -20.4951123224919     
          21 :    36.5036674695805     
          22 :   -55.2505220308420     
          23 :    72.3068446785102     
          24 :   -83.7457173564661     
          25 :    87.9253829467564     
          26 :   -86.0624104051824     
          27 :    81.4358980907402     
          28 :   -77.6988478030472     
          29 :    77.1419671818628     
          30 :   -79.7339449661903     
          31 :   -86.0898126958771     
          32 :   -65.9544598314809     

     Writing output data file ./pwscf.save/
 
     init_run     :    359.85s CPU    364.65s WALL (       1 calls)
     electrons    :  16367.00s CPU  16527.79s WALL (       1 calls)
     forces       :    108.40s CPU    109.78s WALL (       1 calls)

     Called by init_run:
     wfcinit      :    312.32s CPU    316.09s WALL (       1 calls)
     potinit      :     44.46s CPU     44.81s WALL (       1 calls)
     hinit0       :      1.16s CPU      1.20s WALL (       1 calls)

     Called by electrons:
     c_bands      :  13675.45s CPU  13800.85s WALL (      23 calls)
     sum_band     :   1934.85s CPU   1951.01s WALL (      23 calls)
     v_of_rho     :    120.97s CPU    126.03s WALL (      23 calls)
     newd         :     36.29s CPU     50.11s WALL (      23 calls)
     PAW_pot      :    154.06s CPU    154.11s WALL (      23 calls)
     mix_rho      :    490.54s CPU    491.72s WALL (      23 calls)
     vdW_kernel   :     33.55s CPU     33.55s WALL (       1 calls)

     Called by c_bands:
     init_us_2    :     94.69s CPU     95.05s WALL (     624 calls)
     cegterg      :  12704.96s CPU  12829.63s WALL (     299 calls)

     Called by *egterg:
     cdiaghg      :    122.95s CPU    123.08s WALL (    1865 calls)
     h_psi        :   8155.21s CPU   8200.12s WALL (    1891 calls)
     s_psi        :   1337.38s CPU   1337.92s WALL (    1891 calls)
     g_psi        :     19.83s CPU     19.86s WALL (    1579 calls)

     Called by h_psi:
     h_psi:calbec :   1262.61s CPU   1263.33s WALL (    1891 calls)
     vloc_psi     :   5523.37s CPU   5527.79s WALL (    1891 calls)
     add_vuspsi   :   1336.88s CPU   1337.47s WALL (    1891 calls)

     General routines
     calbec       :   1840.34s CPU   1841.34s WALL (    2242 calls)
     fft          :     55.44s CPU     55.47s WALL (    3403 calls)
     ffts         :    156.17s CPU    156.26s WALL (   10168 calls)
     fftw         :   5624.15s CPU   5627.81s WALL (  384647 calls)
 
     Parallel routines
 
     PWSCF        :      4h42m CPU      4h45m WALL

 
   This run was terminated on:  21:29:39  20May2022            

=------------------------------------------------------------------------------=
   JOB DONE.
=------------------------------------------------------------------------------=
