
     Program PWSCF v.6.7MaX starts on  3Jan2023 at 22:26:45 

     This program is part of the open-source Quantum ESPRESSO suite
     for quantum simulation of materials; please cite
         "P. Giannozzi et al., J. Phys.:Condens. Matter 21 395502 (2009);
         "P. Giannozzi et al., J. Phys.:Condens. Matter 29 465901 (2017);
          URL http://www.quantum-espresso.org", 
     in publications or presentations arising from this work. More details at
     http://www.quantum-espresso.org/quote

     Parallel version (MPI), running on     1 processors

     MPI processes distributed on     1 nodes
     Reading input from cch2-ensemble.in
Warning: card &CELL ignored
Warning: card / ignored

     Current dimensions of program PWSCF are:
     Max number of different atomic species (ntypx) = 10
     Max number of k-points (npk) =  40000
     Max angular momentum in pseudopotentials (lmaxx) =  3
     file Pt.pbe-n-kjpaw_psl.1.0.0.UPF: wavefunction(s)  6S 5D renormalized
     file C.pbe-n-kjpaw_psl.1.0.0.UPF: wavefunction(s)  2S 2P renormalized
     file H.pbe-kjpaw_psl.1.0.0.UPF: wavefunction(s)  1S renormalized

     **************************************************************************
     Initializing libbeef V0.1.2 with the BEEF-vdW functional.
     Citation: Wellendorff et al., PRB 85, 235149 (2012).
     **************************************************************************


     IMPORTANT: XC functional enforced from input :
     Exchange-correlation= BEEF-VDW
                           (   1   4  43  14   2   0   0)
     Any further DFT definition will be discarded
     Please, verify this is what you really want


     Subspace diagonalization in iterative solution of the eigenvalue problem:
     a serial algorithm will be used

 
     G-vector sticks info
     --------------------
     sticks:   dense  smooth     PW     G-vecs:    dense   smooth      PW
     Sum        4267    4267   1159               703731   703731   99315
 


     bravais-lattice index     =            0
     lattice parameter (alat)  =      16.0349  a.u.
     unit-cell volume          =   11202.5118 (a.u.)^3
     number of atoms/cell      =           40
     number of atomic types    =            3
     number of electrons       =       370.00
     number of Kohn-Sham states=          222
     kinetic-energy cutoff     =      60.0000  Ry
     charge density cutoff     =     240.0000  Ry
     scf convergence threshold =      1.0E-06
     mixing beta               =       0.7000
     number of iterations used =            8  local-TF  mixing
     Exchange-correlation= BEEF-VDW
                           (   1   4  43  14   2   0   0)

     celldm(1)=  16.034858  celldm(2)=   0.000000  celldm(3)=   0.000000
     celldm(4)=   0.000000  celldm(5)=   0.000000  celldm(6)=   0.000000

     crystal axes: (cart. coord. in units of alat)
               a(1) = (   1.000000   0.000000   0.000000 )  
               a(2) = (   0.500000   0.866025   0.000000 )  
               a(3) = (   0.000000   0.000000   3.137541 )  

     reciprocal axes: (cart. coord. in units 2 pi/alat)
               b(1) = (  1.000000 -0.577350  0.000000 )  
               b(2) = (  0.000000  1.154701  0.000000 )  
               b(3) = (  0.000000  0.000000  0.318721 )  


     PseudoPot. # 1 for Pt read from file:
     /users/bkreitz1/quantum-espresso/potentials/Pt.pbe-n-kjpaw_psl.1.0.0.UPF
     MD5 check sum: 04dc8a03c51ece93fc7b5889c2958091
     Pseudo is Projector augmented-wave + core cor, Zval = 10.0
     Generated using 'atomic' code by A. Dal Corso  v.6.7MaX
     Shape of augmentation charge: PSQ
     Using radial grid of 1277 points,  6 beta functions with: 
                l(1) =   0
                l(2) =   0
                l(3) =   1
                l(4) =   1
                l(5) =   2
                l(6) =   2
     Q(r) pseudized with 0 coefficients 


     PseudoPot. # 2 for C  read from file:
     /users/bkreitz1/quantum-espresso/potentials/C.pbe-n-kjpaw_psl.1.0.0.UPF
     MD5 check sum: a169b0ebad56f5ec0d79c4633f80bf22
     Pseudo is Projector augmented-wave + core cor, Zval =  4.0
     Generated using 'atomic' code by A. Dal Corso  v.6.7MaX
     Shape of augmentation charge: PSQ
     Using radial grid of 1073 points,  4 beta functions with: 
                l(1) =   0
                l(2) =   0
                l(3) =   1
                l(4) =   1
     Q(r) pseudized with 0 coefficients 


     PseudoPot. # 3 for H  read from file:
     /users/bkreitz1/quantum-espresso/potentials/H.pbe-kjpaw_psl.1.0.0.UPF
     MD5 check sum: ae98473e6dc62675f0d0baffdab24f65
     Pseudo is Projector augmented-wave, Zval =  1.0
     Generated using 'atomic' code by A. Dal Corso  v.6.7MaX
     Shape of augmentation charge: PSQ
     Using radial grid of  929 points,  2 beta functions with: 
                l(1) =   0
                l(2) =   0
     Q(r) pseudized with 0 coefficients 


     atomic species   valence    mass     pseudopotential
        Pt            10.00   195.08400     Pt( 1.00)
        C              4.00    12.01100     C ( 1.00)
        H              1.00     1.00800     H ( 1.00)

     No symmetry found



   Cartesian axes

     site n.     atom                  positions (alat units)
         1           Pt  tau(   1) = (   0.0000000   0.0000000   1.0017346  )
         2           Pt  tau(   2) = (   0.3333333   0.0000000   1.0017346  )
         3           Pt  tau(   3) = (   0.6666667   0.0000000   1.0017346  )
         4           Pt  tau(   4) = (   0.1666667   0.2886751   1.0017346  )
         5           Pt  tau(   5) = (   0.5000000   0.2886751   1.0017346  )
         6           Pt  tau(   6) = (   0.8333333   0.2886751   1.0017346  )
         7           Pt  tau(   7) = (   0.3333333   0.5773503   1.0017346  )
         8           Pt  tau(   8) = (   0.6666667   0.5773503   1.0017346  )
         9           Pt  tau(   9) = (   1.0000000   0.5773503   1.0017346  )
        10           Pt  tau(  10) = (   0.1666667   0.0962250   1.2739001  )
        11           Pt  tau(  11) = (   0.5000000   0.0962250   1.2739001  )
        12           Pt  tau(  12) = (   0.8333333   0.0962250   1.2739001  )
        13           Pt  tau(  13) = (   0.3333333   0.3849002   1.2739001  )
        14           Pt  tau(  14) = (   0.6666667   0.3849002   1.2739001  )
        15           Pt  tau(  15) = (   1.0000000   0.3849002   1.2739001  )
        16           Pt  tau(  16) = (   0.5000000   0.6735753   1.2739001  )
        17           Pt  tau(  17) = (   0.8333333   0.6735753   1.2739001  )
        18           Pt  tau(  18) = (   1.1666667   0.6735753   1.2739001  )
        19           Pt  tau(  19) = (  -0.0008560   0.1921882   1.5410324  )
        20           Pt  tau(  20) = (   0.3343252   0.1929262   1.5469652  )
        21           Pt  tau(  21) = (   0.6632466   0.1933919   1.5483155  )
        22           Pt  tau(  22) = (   0.1660919   0.4808854   1.5424986  )
        23           Pt  tau(  23) = (   0.4990260   0.4774690   1.5486944  )
        24           Pt  tau(  24) = (   0.8324912   0.4807834   1.5424356  )
        25           Pt  tau(  25) = (   0.3327118   0.7695589   1.5413718  )
        26           Pt  tau(  26) = (   0.6656688   0.7692552   1.5412191  )
        27           Pt  tau(  27) = (   0.9993162   0.7694123   1.5424565  )
        28           Pt  tau(  28) = (  -0.0010442   0.0003628   1.8172472  )
        29           Pt  tau(  29) = (   0.3304998  -0.0022231   1.8158668  )
        30           Pt  tau(  30) = (   0.6674174  -0.0025426   1.8166918  )
        31           Pt  tau(  31) = (   0.1620599   0.2884864   1.8153514  )
        32           Pt  tau(  32) = (   0.5000561   0.2906691   1.8384861  )
        33           Pt  tau(  33) = (   0.8362066   0.2888218   1.8159695  )
        34           Pt  tau(  34) = (   0.3300912   0.5814712   1.8168532  )
        35           Pt  tau(  35) = (   0.6678475   0.5814159   1.8164055  )
        36           Pt  tau(  36) = (   0.9988473   0.5777022   1.8173461  )
        37           C   tau(  37) = (   0.4959137   0.3005778   2.0542747  )
        38           C   tau(  38) = (   0.4993560   0.3105458   2.2074785  )
        39           H   tau(  39) = (   0.4696631   0.4201490   2.2663510  )
        40           H   tau(  40) = (   0.5313656   0.2089032   2.2795211  )

     number of k points=    13  Marzari-Vanderbilt smearing, width (Ry)=  0.0200
                       cart. coord. in units 2pi/alat
        k(    1) = (   0.0000000   0.0000000   0.0000000), wk =   0.0800000
        k(    2) = (   0.0000000   0.2309401   0.0000000), wk =   0.1600000
        k(    3) = (   0.0000000   0.4618802   0.0000000), wk =   0.1600000
        k(    4) = (   0.2000000  -0.1154701   0.0000000), wk =   0.1600000
        k(    5) = (   0.2000000   0.1154701   0.0000000), wk =   0.1600000
        k(    6) = (   0.2000000   0.3464102   0.0000000), wk =   0.1600000
        k(    7) = (   0.2000000  -0.5773503   0.0000000), wk =   0.1600000
        k(    8) = (   0.2000000  -0.3464102   0.0000000), wk =   0.1600000
        k(    9) = (   0.4000000  -0.2309401   0.0000000), wk =   0.1600000
        k(   10) = (   0.4000000  -0.0000000   0.0000000), wk =   0.1600000
        k(   11) = (   0.4000000   0.2309401   0.0000000), wk =   0.1600000
        k(   12) = (   0.4000000  -0.6928203   0.0000000), wk =   0.1600000
        k(   13) = (   0.4000000  -0.4618802   0.0000000), wk =   0.1600000

     Dense  grid:   703731 G-vectors     FFT dimensions: (  80,  80, 250)

     Estimated max dynamical RAM per process >       8.45 GB

     Check: negative core charge=   -0.000002

     Initial potential from superposition of free atoms

     starting charge  369.99379, renormalised to  370.00000

     negative rho (up, down):  1.057E-02 0.000E+00


     %%%%%%%%%%%%%%%%%%%%%%%%%%%%%%%%%%%%%%%%%%%%%%%%%%%%%%%%%%%%%%%%%%%%%%%%
     %                                                                      %
     % You are using vdW-DF, which was implemented by the Thonhauser group. %
     % Please cite the following two papers that made this development      %
     % possible and the two reviews that describe the various versions:     %
     %                                                                      %
     %   T. Thonhauser et al., PRL 115, 136402 (2015).                      %
     %   T. Thonhauser et al., PRB 76, 125112 (2007).                       %
     %   K. Berland et al., Rep. Prog. Phys. 78, 066501 (2015).             %
     %   D.C. Langreth et al., J. Phys.: Condens. Matter 21, 084203 (2009). %
     %                                                                      %
     %                                                                      %
     % If you are calculating the stress with vdW-DF, please also cite:     %
     %                                                                      %
     %   R. Sabatini et al., J. Phys.: Condens. Matter 24, 424209 (2012).   %
     %                                                                      %
     %%%%%%%%%%%%%%%%%%%%%%%%%%%%%%%%%%%%%%%%%%%%%%%%%%%%%%%%%%%%%%%%%%%%%%%%


     Starting wfcs are  334 randomized atomic wfcs
     Checking if some PAW data can be deallocated... 

     total cpu time spent up to now is      320.3 secs

     Self-consistent Calculation

     iteration #  1     ecut=    60.00 Ry     beta= 0.70
     Davidson diagonalization with overlap
     ethr =  1.00E-02,  avg # of iterations =  2.0

     Threshold (ethr) on eigenvalues was too large:
     Diagonalizing with lowered threshold

     Davidson diagonalization with overlap
     ethr =  9.57E-04,  avg # of iterations =  2.3

     negative rho (up, down):  1.106E-02 0.000E+00

     total cpu time spent up to now is     1485.8 secs

     total energy              =  -27794.11081993 Ry
     estimated scf accuracy    <       3.76394844 Ry

     iteration #  2     ecut=    60.00 Ry     beta= 0.70
     Davidson diagonalization with overlap
     ethr =  1.02E-03,  avg # of iterations =  2.0

     negative rho (up, down):  9.127E-03 0.000E+00

     total cpu time spent up to now is     2053.7 secs

     total energy              =  -27794.44359111 Ry
     estimated scf accuracy    <       1.13298055 Ry

     iteration #  3     ecut=    60.00 Ry     beta= 0.70
     Davidson diagonalization with overlap
     ethr =  3.06E-04,  avg # of iterations =  2.0

     negative rho (up, down):  6.983E-03 0.000E+00

     total cpu time spent up to now is     2626.9 secs

     total energy              =  -27794.52834726 Ry
     estimated scf accuracy    <       0.29062188 Ry

     iteration #  4     ecut=    60.00 Ry     beta= 0.70
     Davidson diagonalization with overlap
     ethr =  7.85E-05,  avg # of iterations = 12.6

     negative rho (up, down):  4.887E-03 0.000E+00

     total cpu time spent up to now is     3461.5 secs

     total energy              =  -27794.58616855 Ry
     estimated scf accuracy    <       0.15572900 Ry

     iteration #  5     ecut=    60.00 Ry     beta= 0.70
     Davidson diagonalization with overlap
     ethr =  4.21E-05,  avg # of iterations =  2.0

     negative rho (up, down):  3.896E-03 0.000E+00

     total cpu time spent up to now is     4023.9 secs

     total energy              =  -27794.59345520 Ry
     estimated scf accuracy    <       0.08203042 Ry

     iteration #  6     ecut=    60.00 Ry     beta= 0.70
     Davidson diagonalization with overlap
     ethr =  2.22E-05,  avg # of iterations =  3.1

     negative rho (up, down):  2.822E-03 0.000E+00

     total cpu time spent up to now is     4593.0 secs

     total energy              =  -27794.59583676 Ry
     estimated scf accuracy    <       0.01390248 Ry

     iteration #  7     ecut=    60.00 Ry     beta= 0.70
     Davidson diagonalization with overlap
     c_bands:  1 eigenvalues not converged
     c_bands:  1 eigenvalues not converged
     c_bands:  1 eigenvalues not converged
     c_bands:  1 eigenvalues not converged
     c_bands:  1 eigenvalues not converged
     c_bands:  2 eigenvalues not converged
     c_bands:  1 eigenvalues not converged
     ethr =  3.76E-06,  avg # of iterations = 15.6

     negative rho (up, down):  2.693E-03 0.000E+00

     total cpu time spent up to now is     5469.1 secs

     total energy              =  -27794.59898942 Ry
     estimated scf accuracy    <       0.00500847 Ry

     iteration #  8     ecut=    60.00 Ry     beta= 0.70
     Davidson diagonalization with overlap
     c_bands:  1 eigenvalues not converged
     c_bands:  1 eigenvalues not converged
     ethr =  1.35E-06,  avg # of iterations =  5.4

     negative rho (up, down):  2.755E-03 0.000E+00

     total cpu time spent up to now is     6077.0 secs

     total energy              =  -27794.59943754 Ry
     estimated scf accuracy    <       0.00267471 Ry

     iteration #  9     ecut=    60.00 Ry     beta= 0.70
     Davidson diagonalization with overlap
     ethr =  7.23E-07,  avg # of iterations =  4.2

     negative rho (up, down):  3.295E-03 0.000E+00

     total cpu time spent up to now is     6659.8 secs

     total energy              =  -27794.59952961 Ry
     estimated scf accuracy    <       0.00234075 Ry

     iteration # 10     ecut=    60.00 Ry     beta= 0.70
     Davidson diagonalization with overlap
     c_bands:  1 eigenvalues not converged
     ethr =  6.33E-07,  avg # of iterations =  7.8

     negative rho (up, down):  4.577E-03 0.000E+00

     total cpu time spent up to now is     7264.2 secs

     total energy              =  -27794.59954004 Ry
     estimated scf accuracy    <       0.00153705 Ry

     iteration # 11     ecut=    60.00 Ry     beta= 0.70
     Davidson diagonalization with overlap
     ethr =  4.15E-07,  avg # of iterations =  5.1

     negative rho (up, down):  7.761E-03 0.000E+00

     total cpu time spent up to now is     7839.7 secs

     total energy              =  -27794.59953336 Ry
     estimated scf accuracy    <       0.00076951 Ry

     iteration # 12     ecut=    60.00 Ry     beta= 0.70
     Davidson diagonalization with overlap
     c_bands:  1 eigenvalues not converged
     ethr =  2.08E-07,  avg # of iterations =  3.4

     negative rho (up, down):  9.153E-03 0.000E+00

     total cpu time spent up to now is     8411.4 secs

     total energy              =  -27794.59960416 Ry
     estimated scf accuracy    <       0.00019879 Ry

     iteration # 13     ecut=    60.00 Ry     beta= 0.70
     Davidson diagonalization with overlap
     ethr =  5.37E-08,  avg # of iterations =  4.0

     negative rho (up, down):  9.713E-03 0.000E+00

     total cpu time spent up to now is     9046.9 secs

     total energy              =  -27794.59966954 Ry
     estimated scf accuracy    <       0.00008861 Ry

     iteration # 14     ecut=    60.00 Ry     beta= 0.70
     Davidson diagonalization with overlap
     ethr =  2.39E-08,  avg # of iterations =  2.8

     negative rho (up, down):  9.000E-03 0.000E+00

     total cpu time spent up to now is     9630.0 secs

     total energy              =  -27794.59968969 Ry
     estimated scf accuracy    <       0.00006441 Ry

     iteration # 15     ecut=    60.00 Ry     beta= 0.70
     Davidson diagonalization with overlap
     ethr =  1.74E-08,  avg # of iterations =  1.7

     negative rho (up, down):  1.037E-02 0.000E+00

     total cpu time spent up to now is    10166.9 secs

     total energy              =  -27794.59969138 Ry
     estimated scf accuracy    <       0.00002045 Ry

     iteration # 16     ecut=    60.00 Ry     beta= 0.70
     Davidson diagonalization with overlap
     ethr =  5.53E-09,  avg # of iterations =  4.5

     negative rho (up, down):  1.070E-02 0.000E+00

     total cpu time spent up to now is    10851.6 secs

     total energy              =  -27794.59969532 Ry
     estimated scf accuracy    <       0.00002598 Ry

     iteration # 17     ecut=    60.00 Ry     beta= 0.70
     Davidson diagonalization with overlap
     ethr =  5.53E-09,  avg # of iterations =  1.2

     negative rho (up, down):  1.143E-02 0.000E+00

     total cpu time spent up to now is    11362.6 secs

     total energy              =  -27794.59969321 Ry
     estimated scf accuracy    <       0.00000802 Ry

     iteration # 18     ecut=    60.00 Ry     beta= 0.70
     Davidson diagonalization with overlap
     ethr =  2.17E-09,  avg # of iterations =  2.0

     negative rho (up, down):  1.163E-02 0.000E+00

     total cpu time spent up to now is    11934.4 secs

     total energy              =  -27794.59969339 Ry
     estimated scf accuracy    <       0.00000354 Ry

     iteration # 19     ecut=    60.00 Ry     beta= 0.70
     Davidson diagonalization with overlap
     ethr =  9.57E-10,  avg # of iterations =  2.2

     negative rho (up, down):  1.173E-02 0.000E+00

     total cpu time spent up to now is    12507.8 secs

     total energy              =  -27794.59969348 Ry
     estimated scf accuracy    <       0.00000163 Ry

     iteration # 20     ecut=    60.00 Ry     beta= 0.70
     Davidson diagonalization with overlap
     ethr =  4.40E-10,  avg # of iterations =  2.8

     negative rho (up, down):  1.173E-02 0.000E+00

     total cpu time spent up to now is    13093.6 secs

     End of self-consistent calculation

          k = 0.0000 0.0000 0.0000 ( 88025 PWs)   bands (ev):

   -12.9383  -7.6243  -6.6797  -5.4322  -4.9332  -4.7893  -4.3660  -4.2881
    -4.2862  -4.2846  -4.2750  -4.2522  -4.2492  -4.2033  -3.7318  -3.7282
    -3.7235  -3.7230  -3.7216  -3.6823  -3.2879  -3.2834  -3.2654  -3.2600
    -3.2562  -3.2458  -3.0545  -3.0474  -3.0420  -3.0379  -3.0353  -2.9910
    -2.8905  -2.8410  -2.8349  -2.8286  -2.8257  -2.8163  -2.8156  -2.8063
    -2.7874  -2.7827  -2.7333  -2.7240  -2.5506  -2.4037  -2.1852  -2.1832
    -2.1687  -2.1647  -2.1361  -2.1200  -2.1173  -2.0918  -1.9556  -1.9372
    -1.8736  -1.8586  -1.7973  -1.7139  -1.4247  -1.3932  -1.3896  -1.3644
    -1.2942  -1.2854  -1.2664  -1.1953  -1.1935  -1.1835  -1.1763  -1.1737
    -1.1716  -1.1515  -1.1308  -1.1213  -1.1142  -1.0917  -1.0910  -1.0619
    -1.0486  -1.0210  -0.9660  -0.9554  -0.9523  -0.9210  -0.8608  -0.8327
    -0.8271  -0.8229  -0.7932  -0.7771  -0.7722  -0.7384  -0.7288  -0.6845
    -0.6680  -0.6643  -0.5947  -0.5933  -0.5266  -0.5261  -0.4862  -0.4857
    -0.4388  -0.4192  -0.3738  -0.3300  -0.3246  -0.3167  -0.1606  -0.0879
     0.0009   0.0531   0.0800   0.1265   0.1594   0.1715   0.1726   0.1812
     0.2152   0.2185   0.2333   0.2978   0.3364   0.3458   0.4093   0.4148
     0.4505   0.4559   0.5324   0.5395   0.5430   0.6466   0.6556   0.6629
     0.6678   0.6792   0.8144   0.8346   0.9043   0.9071   0.9116   0.9375
     0.9717   0.9833   1.1210   1.1219   1.1536   1.1767   1.1779   1.2101
     1.2365   1.2418   1.3208   1.3265   1.3361   1.3412   1.3584   1.3622
     1.3660   1.3848   1.3865   1.4301   1.4332   1.4384   1.4511   1.4697
     1.4974   1.5391   1.5640   1.5686   1.5698   1.6001   1.6054   1.6061
     1.6330   1.6480   1.6632   1.6645   1.7226   1.7231   1.7421   1.7596
     1.7646   1.7725   1.7966   1.8425   1.8471   1.8515   1.8744   1.8754
     2.0367   2.0451   2.1390   2.1429   2.1792   2.1808   2.1821   2.2044
     2.3597   2.8438   2.9516   3.0440   3.0484   3.0599   3.0798   3.6807
     4.2887   5.3299   5.3421   5.3514   5.3625   5.4159   5.9949   6.0565
     6.3752   6.7500   6.9426   6.9482   6.9794   6.9876

          k = 0.0000 0.2309 0.0000 ( 87880 PWs)   bands (ev):

   -12.9383  -7.6213  -6.5362  -5.3005  -4.9530  -4.7899  -4.7447  -4.3853
    -4.3611  -4.2189  -4.1405  -4.0750  -4.0364  -4.0183  -3.8364  -3.8103
    -3.6630  -3.6604  -3.6533  -3.6146  -3.3536  -3.2438  -3.2371  -3.2222
    -3.2090  -3.1478  -3.1440  -3.0918  -3.0783  -3.0682  -3.0381  -3.0117
    -2.9498  -2.9450  -2.8519  -2.8444  -2.8292  -2.8240  -2.7991  -2.6769
    -2.6399  -2.6137  -2.6075  -2.5635  -2.5277  -2.4345  -2.3035  -2.3005
    -2.2446  -2.2336  -2.1971  -2.0938  -2.0583  -2.0042  -1.9453  -1.9149
    -1.9080  -1.8392  -1.8256  -1.7337  -1.6214  -1.5430  -1.5392  -1.4767
    -1.4668  -1.4086  -1.3774  -1.3674  -1.3594  -1.3362  -1.3029  -1.2750
    -1.2592  -1.2041  -1.1718  -1.1627  -1.1026  -1.0868  -1.0708  -1.0644
    -1.0015  -0.9840  -0.9392  -0.9270  -0.9104  -0.8900  -0.8787  -0.8628
    -0.8275  -0.8040  -0.7969  -0.7784  -0.7493  -0.7158  -0.6900  -0.6585
    -0.6419  -0.6369  -0.6201  -0.5819  -0.5621  -0.5542  -0.5171  -0.5060
    -0.4807  -0.4239  -0.3906  -0.3673  -0.3343  -0.3217  -0.3070  -0.2596
    -0.2551  -0.2370  -0.2318  -0.2098  -0.0335   0.0022   0.0708   0.0948
     0.1292   0.1725   0.1905   0.2144   0.2185   0.2456   0.3155   0.3796
     0.4550   0.4827   0.5339   0.5435   0.5798   0.5839   0.6055   0.6240
     0.6458   0.7162   0.7299   0.7493   0.7841   0.7979   0.8067   0.9029
     0.9603   0.9782   1.0109   1.0325   1.0426   1.0748   1.1284   1.1416
     1.1664   1.1873   1.1935   1.2334   1.2812   1.2927   1.3123   1.3752
     1.3923   1.4108   1.4266   1.4728   1.5015   1.5272   1.5691   1.5704
     1.5944   1.6264   1.6709   1.6942   1.7169   1.7575   1.7684   1.7826
     1.8095   1.8222   1.8252   1.8371   1.8444   1.8924   1.9050   2.0119
     2.0240   2.0594   2.0676   2.0780   2.1101   2.1282   2.1364   2.1536
     2.1901   2.1923   2.2694   2.2839   2.3170   2.4136   2.4735   2.4815
     2.4912   2.7625   2.9217   3.1230   3.4374   3.6405   3.6824   3.8761
     4.3449   4.8095   5.0630   5.4817   5.7285   5.8128   5.8797   6.0632
     6.1143   6.1839   6.4957   6.7843   6.8099   6.8582

          k = 0.0000 0.4619 0.0000 ( 87922 PWs)   bands (ev):

   -12.9382  -7.6169  -6.1207  -5.4983  -5.0225  -4.8026  -4.7683  -4.4181
    -4.3971  -4.2691  -4.0429  -3.9027  -3.8198  -3.7570  -3.6989  -3.6857
    -3.5470  -3.5116  -3.4875  -3.4777  -3.4518  -3.3785  -3.3204  -3.3052
    -3.2716  -3.2651  -3.2391  -3.2058  -3.1384  -3.1261  -3.1115  -2.8916
    -2.8846  -2.8559  -2.8531  -2.8417  -2.8355  -2.7001  -2.6242  -2.6125
    -2.6031  -2.5886  -2.5714  -2.4818  -2.4557  -2.2973  -2.2911  -2.2588
    -2.2521  -2.2126  -2.1545  -2.1383  -2.1212  -2.1043  -2.0626  -2.0170
    -1.9904  -1.8946  -1.8927  -1.8318  -1.8038  -1.7509  -1.7141  -1.6786
    -1.6247  -1.5853  -1.5301  -1.4798  -1.4701  -1.4554  -1.4021  -1.3794
    -1.3512  -1.2921  -1.2503  -1.2257  -1.2016  -1.1449  -1.1181  -1.1017
    -1.0855  -1.0653  -1.0548  -1.0096  -0.9795  -0.9691  -0.9513  -0.9481
    -0.9328  -0.9048  -0.8895  -0.8710  -0.8067  -0.7998  -0.7804  -0.7749
    -0.7125  -0.6940  -0.6264  -0.6240  -0.6018  -0.5414  -0.5379  -0.5100
    -0.4934  -0.4283  -0.4172  -0.3874  -0.3534  -0.3214  -0.2680  -0.2562
    -0.2227  -0.2019  -0.1396  -0.0669  -0.0164  -0.0026   0.0400   0.0752
     0.0872   0.1341   0.1383   0.1456   0.1954   0.2077   0.2166   0.2321
     0.2571   0.2805   0.2993   0.3263   0.3993   0.4125   0.4571   0.4665
     0.5362   0.5643   0.5983   0.6696   0.6743   0.7557   0.7626   0.8495
     0.9096   0.9151   0.9654   0.9921   1.0171   1.0394   1.0688   1.1158
     1.1264   1.1625   1.1787   1.1987   1.2738   1.2845   1.3103   1.3291
     1.3399   1.3573   1.4157   1.5150   1.5377   1.5548   1.5862   1.6242
     1.6366   1.7103   1.7254   1.7449   1.7889   1.8280   1.8352   1.8691
     1.8979   1.9192   1.9450   1.9913   2.0325   2.0549   2.0692   2.0849
     2.0985   2.1198   2.1229   2.2882   2.2895   2.3116   2.3380   2.3472
     2.4729   2.5544   2.5897   2.7601   2.9418   3.0529   3.2899   3.3742
     3.4307   3.5662   3.7421   3.8481   4.1301   4.1957   4.5812   4.5904
     4.6766   4.7533   4.8172   4.9416   4.9623   5.1786   5.2971   5.5116
     5.8886   6.0040   6.1063   6.5145   6.5295   6.5809

          k = 0.2000-0.1155 0.0000 ( 87880 PWs)   bands (ev):

   -12.9383  -7.6213  -6.5362  -5.3005  -4.9523  -4.7908  -4.7459  -4.3847
    -4.3597  -4.2195  -4.1406  -4.0791  -4.0340  -4.0169  -3.8368  -3.8114
    -3.6639  -3.6596  -3.6535  -3.6137  -3.3516  -3.2420  -3.2387  -3.2258
    -3.2112  -3.1492  -3.1401  -3.0945  -3.0768  -3.0629  -3.0445  -3.0178
    -2.9555  -2.9419  -2.8545  -2.8429  -2.8248  -2.8166  -2.8020  -2.6852
    -2.6263  -2.6117  -2.6043  -2.5668  -2.5219  -2.4356  -2.3015  -2.2997
    -2.2473  -2.2322  -2.2009  -2.0955  -2.0658  -2.0003  -1.9449  -1.9184
    -1.8988  -1.8469  -1.8176  -1.7316  -1.6261  -1.5421  -1.5358  -1.4771
    -1.4606  -1.4118  -1.3781  -1.3678  -1.3606  -1.3381  -1.3098  -1.2679
    -1.2559  -1.2025  -1.1719  -1.1618  -1.1115  -1.0845  -1.0770  -1.0623
    -1.0031  -0.9798  -0.9395  -0.9264  -0.9061  -0.8832  -0.8776  -0.8662
    -0.8312  -0.8049  -0.8004  -0.7763  -0.7513  -0.7109  -0.6829  -0.6560
    -0.6407  -0.6334  -0.6177  -0.5823  -0.5587  -0.5525  -0.5180  -0.5078
    -0.4830  -0.4231  -0.3911  -0.3716  -0.3332  -0.3259  -0.3068  -0.2603
    -0.2536  -0.2397  -0.2302  -0.2107  -0.0696   0.0115   0.0710   0.1048
     0.1387   0.1727   0.1913   0.2108   0.2220   0.2443   0.3153   0.3792
     0.4241   0.4965   0.5248   0.5487   0.5768   0.5873   0.6002   0.6279
     0.6458   0.6881   0.7288   0.7537   0.7792   0.8025   0.8059   0.9234
     0.9542   0.9779   1.0102   1.0373   1.0480   1.0740   1.1199   1.1458
     1.1625   1.1900   1.1950   1.2315   1.2798   1.2887   1.3139   1.3771
     1.3891   1.4221   1.4306   1.4765   1.5011   1.5300   1.5622   1.5709
     1.5936   1.6271   1.6727   1.6969   1.7166   1.7585   1.7678   1.7810
     1.8100   1.8236   1.8255   1.8370   1.8454   1.8929   1.9031   2.0096
     2.0244   2.0629   2.0676   2.0762   2.1122   2.1313   2.1370   2.1537
     2.1912   2.1931   2.2695   2.2839   2.3153   2.4283   2.4709   2.4832
     2.4979   2.7612   2.8801   3.1737   3.4038   3.6325   3.7160   3.8781
     4.3142   4.8037   5.0708   5.4897   5.7114   5.8126   5.9005   6.0300
     6.1133   6.1945   6.5187   6.7722   6.8268   6.8611

          k = 0.2000 0.1155 0.0000 ( 87880 PWs)   bands (ev):

   -12.9383  -7.6213  -6.5362  -5.3005  -4.9531  -4.7895  -4.7432  -4.3852
    -4.3628  -4.2201  -4.1405  -4.0746  -4.0353  -4.0203  -3.8383  -3.8143
    -3.6610  -3.6594  -3.6526  -3.6112  -3.3570  -3.2469  -3.2355  -3.2247
    -3.2090  -3.1476  -3.1407  -3.0939  -3.0770  -3.0549  -3.0485  -3.0213
    -2.9630  -2.9422  -2.8519  -2.8378  -2.8242  -2.8150  -2.8014  -2.6931
    -2.6153  -2.6088  -2.6048  -2.5774  -2.5176  -2.4400  -2.3038  -2.2986
    -2.2463  -2.2307  -2.1987  -2.0969  -2.0647  -2.0070  -1.9419  -1.9192
    -1.8933  -1.8495  -1.8071  -1.7384  -1.6335  -1.5402  -1.5330  -1.4795
    -1.4564  -1.4159  -1.3863  -1.3674  -1.3623  -1.3352  -1.3158  -1.2637
    -1.2384  -1.2071  -1.1720  -1.1524  -1.1299  -1.0826  -1.0685  -1.0495
    -1.0033  -0.9762  -0.9514  -0.9259  -0.9111  -0.8869  -0.8741  -0.8690
    -0.8390  -0.8054  -0.8001  -0.7744  -0.7527  -0.7109  -0.6722  -0.6585
    -0.6393  -0.6245  -0.6173  -0.5845  -0.5559  -0.5471  -0.5184  -0.5095
    -0.4720  -0.4239  -0.3917  -0.3763  -0.3345  -0.3214  -0.3077  -0.2619
    -0.2546  -0.2413  -0.2285  -0.2161  -0.0950   0.0168   0.0651   0.1060
     0.1593   0.1707   0.1987   0.2096   0.2299   0.2370   0.3212   0.3819
     0.3881   0.5084   0.5189   0.5464   0.5771   0.5902   0.6043   0.6369
     0.6434   0.6580   0.7310   0.7545   0.7774   0.8036   0.8058   0.9381
     0.9495   0.9776   1.0104   1.0368   1.0636   1.0722   1.1090   1.1494
     1.1567   1.1886   1.1942   1.2293   1.2771   1.2866   1.3140   1.3758
     1.3888   1.4277   1.4324   1.4880   1.4990   1.5360   1.5542   1.5760
     1.5940   1.6285   1.6749   1.6985   1.7165   1.7642   1.7683   1.7797
     1.8085   1.8238   1.8252   1.8381   1.8455   1.8965   1.9057   2.0166
     2.0195   2.0589   2.0658   2.0766   2.1102   2.1303   2.1329   2.1533
     2.1866   2.1929   2.2755   2.2831   2.3145   2.4483   2.4632   2.4820
     2.5124   2.7547   2.8335   3.2377   3.3593   3.6233   3.7583   3.8746
     4.2818   4.7989   5.0772   5.4897   5.6950   5.8132   5.9234   6.0037
     6.1044   6.1979   6.5437   6.7645   6.8400   6.8728

          k = 0.2000 0.3464 0.0000 ( 87940 PWs)   bands (ev):

   -12.9382  -7.6177  -6.2557  -5.1458  -5.0418  -5.0084  -4.7949  -4.7777
    -3.9647  -3.9623  -3.9551  -3.9384  -3.9147  -3.8875  -3.8784  -3.8470
    -3.7780  -3.7654  -3.3975  -3.3919  -3.3757  -3.3551  -3.3128  -3.2731
    -3.1729  -3.1607  -3.1406  -3.1297  -3.1275  -3.0437  -2.9945  -2.9860
    -2.9817  -2.9695  -2.8850  -2.8731  -2.8655  -2.8129  -2.7913  -2.7563
    -2.6347  -2.5144  -2.4441  -2.4003  -2.3827  -2.3476  -2.3259  -2.3210
    -2.2654  -2.2201  -2.1851  -2.1008  -2.0911  -2.0754  -2.0057  -1.9371
    -1.9115  -1.9034  -1.8546  -1.8312  -1.7877  -1.7447  -1.6540  -1.5934
    -1.5731  -1.5111  -1.4991  -1.4933  -1.4672  -1.4310  -1.4191  -1.3623
    -1.2919  -1.2475  -1.2390  -1.2249  -1.1980  -1.1892  -1.1473  -1.1317
    -1.0819  -1.0545  -0.9867  -0.9797  -0.9373  -0.9259  -0.9193  -0.9083
    -0.8578  -0.8573  -0.8448  -0.8044  -0.7821  -0.7608  -0.7163  -0.6850
    -0.6730  -0.6444  -0.6253  -0.6090  -0.5775  -0.5640  -0.5489  -0.5130
    -0.5098  -0.4872  -0.4796  -0.4462  -0.4253  -0.4074  -0.3526  -0.3160
    -0.3086  -0.2715  -0.2128  -0.1755  -0.1499  -0.0812  -0.0081   0.0372
     0.0588   0.1454   0.1578   0.2016   0.2225   0.2395   0.2641   0.2766
     0.2930   0.3265   0.3511   0.3944   0.4145   0.5004   0.5682   0.5770
     0.6037   0.6270   0.6623   0.6940   0.7269   0.7740   0.8140   0.8413
     0.8890   0.9185   0.9526   0.9868   1.0229   1.0511   1.0786   1.1044
     1.1260   1.1482   1.1609   1.1700   1.1832   1.1915   1.2208   1.2591
     1.3390   1.3868   1.4282   1.5124   1.5296   1.6125   1.6929   1.7087
     1.7145   1.7446   1.8135   1.8338   1.8425   1.8746   1.8816   1.9065
     1.9176   1.9276   1.9459   1.9688   1.9846   1.9977   2.0610   2.1012
     2.1088   2.1255   2.1468   2.1945   2.2327   2.3365   2.3636   2.3797
     2.4145   2.4491   2.4712   2.5513   2.6013   2.7541   2.9889   3.1311
     3.3229   3.3861   3.6461   3.6932   3.8343   3.9279   4.3545   4.3694
     4.5886   4.5974   4.6944   5.1471   5.3247   5.7640   5.8137   5.9073
     6.0511   6.1509   6.3577   6.5053   6.5601   6.6060

          k = 0.2000-0.5774 0.0000 ( 87912 PWs)   bands (ev):

   -12.9382  -7.6157  -5.7339  -5.7252  -5.1556  -4.9212  -4.7923  -4.4975
    -4.4200  -3.9733  -3.9306  -3.8229  -3.7811  -3.6798  -3.6624  -3.5832
    -3.5652  -3.4873  -3.4737  -3.4386  -3.4152  -3.4042  -3.3993  -3.3873
    -3.2585  -3.2373  -3.2254  -3.2041  -3.1699  -3.1386  -3.0500  -3.0027
    -2.9526  -2.8894  -2.8685  -2.8337  -2.8274  -2.7886  -2.7607  -2.7120
    -2.5959  -2.5876  -2.5518  -2.4813  -2.3951  -2.3891  -2.2642  -2.2224
    -2.2076  -2.1328  -2.0788  -2.0432  -2.0276  -1.9899  -1.9617  -1.9349
    -1.9120  -1.9023  -1.8845  -1.8014  -1.7916  -1.7605  -1.7392  -1.7309
    -1.6917  -1.6741  -1.6612  -1.6162  -1.5502  -1.4923  -1.4593  -1.4161
    -1.3903  -1.3326  -1.3241  -1.2839  -1.2598  -1.2514  -1.2186  -1.1941
    -1.1549  -1.1332  -1.0890  -1.0607  -1.0466  -1.0173  -0.9837  -0.9227
    -0.9009  -0.8752  -0.8427  -0.7944  -0.7516  -0.7291  -0.7084  -0.6820
    -0.6563  -0.6477  -0.6255  -0.6069  -0.5876  -0.5817  -0.5509  -0.5434
    -0.5013  -0.4863  -0.4702  -0.4625  -0.4450  -0.4346  -0.4258  -0.3824
    -0.3584  -0.3288  -0.1903  -0.1073  -0.0909  -0.0682  -0.0310   0.0376
     0.0437   0.0790   0.1033   0.1471   0.1660   0.1745   0.2046   0.2432
     0.2687   0.3118   0.3369   0.3444   0.4142   0.4330   0.4679   0.5544
     0.5820   0.6455   0.6677   0.7092   0.7301   0.7573   0.7919   0.8352
     0.8496   0.8595   0.8845   0.9211   0.9328   0.9947   1.0066   1.0564
     1.0778   1.0942   1.1037   1.1282   1.1445   1.2168   1.2705   1.3246
     1.3906   1.4508   1.4976   1.5429   1.5553   1.5883   1.6726   1.6796
     1.7126   1.7781   1.8210   1.8493   1.8738   1.8972   1.9059   1.9176
     1.9463   1.9755   2.0480   2.0516   2.0560   2.0886   2.1097   2.1126
     2.1267   2.1888   2.2726   2.2990   2.3302   2.3400   2.3494   2.3970
     2.4207   2.5159   2.6313   2.9884   3.0755   3.4790   3.4935   3.6482
     3.7323   3.8383   3.8587   4.0414   4.0842   4.4616   4.5023   4.6006
     4.9472   4.9626   5.0328   5.0957   5.1588   5.3331   5.4039   5.4434
     5.6097   5.7707   5.9629   6.0706   6.3172   6.4786

          k = 0.2000-0.3464 0.0000 ( 87940 PWs)   bands (ev):

   -12.9382  -7.6177  -6.2558  -5.1449  -5.0436  -5.0083  -4.7980  -4.7754
    -3.9651  -3.9632  -3.9552  -3.9407  -3.9133  -3.8861  -3.8783  -3.8418
    -3.7747  -3.7653  -3.4017  -3.3967  -3.3732  -3.3538  -3.3194  -3.2733
    -3.1677  -3.1554  -3.1412  -3.1306  -3.1277  -3.0374  -2.9945  -2.9853
    -2.9783  -2.9699  -2.8847  -2.8766  -2.8667  -2.8127  -2.7910  -2.7448
    -2.6648  -2.4967  -2.4463  -2.4019  -2.3819  -2.3522  -2.3257  -2.3176
    -2.2645  -2.2259  -2.2017  -2.0975  -2.0904  -2.0508  -2.0092  -1.9303
    -1.9165  -1.9070  -1.8602  -1.8319  -1.7913  -1.7388  -1.6532  -1.5941
    -1.5795  -1.5100  -1.4993  -1.4909  -1.4658  -1.4387  -1.4198  -1.3555
    -1.2931  -1.2501  -1.2394  -1.2306  -1.1981  -1.1889  -1.1426  -1.1323
    -1.0909  -1.0482  -0.9898  -0.9785  -0.9374  -0.9256  -0.9166  -0.9087
    -0.8598  -0.8561  -0.8479  -0.8103  -0.7833  -0.7531  -0.7091  -0.6846
    -0.6686  -0.6491  -0.6233  -0.6097  -0.5760  -0.5648  -0.5511  -0.5093
    -0.5074  -0.4875  -0.4776  -0.4430  -0.4244  -0.4053  -0.3631  -0.3158
    -0.3055  -0.2673  -0.2155  -0.1783  -0.1559  -0.0962  -0.0075   0.0316
     0.0590   0.1443   0.1577   0.2078   0.2306   0.2386   0.2700   0.2795
     0.2937   0.3267   0.3548   0.4101   0.4306   0.4834   0.5655   0.5812
     0.6040   0.6349   0.6627   0.6782   0.7256   0.7698   0.8133   0.8472
     0.8883   0.9204   0.9430   0.9919   1.0301   1.0491   1.0814   1.0947
     1.1198   1.1487   1.1641   1.1716   1.1861   1.1924   1.2235   1.2612
     1.3363   1.3897   1.4234   1.5106   1.5268   1.6103   1.6930   1.7115
     1.7179   1.7435   1.8097   1.8346   1.8442   1.8759   1.8773   1.9036
     1.9189   1.9252   1.9435   1.9666   1.9855   1.9990   2.0613   2.1005
     2.1069   2.1242   2.1469   2.1923   2.2379   2.3408   2.3641   2.3866
     2.4311   2.4535   2.4729   2.5648   2.5911   2.7362   2.9319   3.1334
     3.3314   3.4018   3.6762   3.6977   3.7863   3.9262   4.3519   4.3715
     4.5902   4.6236   4.7153   5.1959   5.3578   5.6791   5.8099   5.8862
     6.0404   6.1843   6.3915   6.4981   6.5313   6.5889

          k = 0.4000-0.2309 0.0000 ( 87922 PWs)   bands (ev):

   -12.9382  -7.6169  -6.1208  -5.4986  -5.0228  -4.7983  -4.7721  -4.4181
    -4.3962  -4.2697  -4.0482  -3.9037  -3.8226  -3.7573  -3.6963  -3.6839
    -3.5488  -3.5113  -3.4875  -3.4772  -3.4482  -3.3836  -3.3173  -3.3046
    -3.2717  -3.2666  -3.2419  -3.2071  -3.1484  -3.1237  -3.1132  -2.8940
    -2.8833  -2.8564  -2.8513  -2.8419  -2.8316  -2.6956  -2.6274  -2.6063
    -2.6023  -2.5875  -2.5658  -2.5036  -2.4148  -2.2926  -2.2874  -2.2617
    -2.2508  -2.2290  -2.1546  -2.1337  -2.1208  -2.1019  -2.0829  -2.0151
    -1.9795  -1.8968  -1.8909  -1.8391  -1.7863  -1.7501  -1.7100  -1.6768
    -1.6229  -1.5797  -1.5302  -1.4768  -1.4630  -1.4550  -1.4084  -1.3823
    -1.3495  -1.2975  -1.2595  -1.2300  -1.2039  -1.1413  -1.1163  -1.1003
    -1.0857  -1.0630  -1.0532  -1.0126  -0.9778  -0.9701  -0.9524  -0.9506
    -0.9300  -0.9102  -0.8862  -0.8697  -0.8056  -0.7988  -0.7806  -0.7735
    -0.7037  -0.6921  -0.6311  -0.6260  -0.6121  -0.5485  -0.5405  -0.5080
    -0.4962  -0.4459  -0.4344  -0.3717  -0.3425  -0.3169  -0.2716  -0.2565
    -0.2311  -0.1826  -0.1429  -0.0637  -0.0229   0.0007   0.0352   0.0782
     0.0905   0.1353   0.1434   0.1495   0.1941   0.2062   0.2141   0.2315
     0.2582   0.2732   0.2968   0.3251   0.3873   0.4191   0.4535   0.4680
     0.5294   0.5357   0.6142   0.6659   0.6750   0.7514   0.7669   0.8617
     0.9060   0.9116   0.9678   0.9888   1.0119   1.0401   1.0680   1.1142
     1.1181   1.1627   1.1789   1.1959   1.2780   1.2851   1.3098   1.3270
     1.3427   1.3551   1.4222   1.5045   1.5274   1.5553   1.5874   1.6214
     1.6362   1.7112   1.7271   1.7441   1.8053   1.8262   1.8347   1.8732
     1.8980   1.9178   1.9426   1.9974   2.0333   2.0547   2.0718   2.0879
     2.1009   2.1210   2.1257   2.2895   2.2914   2.3128   2.3406   2.3481
     2.4708   2.5543   2.5924   2.7923   2.9541   3.0540   3.2664   3.3673
     3.4498   3.5671   3.7504   3.8516   4.1253   4.1783   4.5651   4.5946
     4.6379   4.7429   4.8444   4.9255   4.9755   5.1732   5.2910   5.5172
     5.8457   5.9925   6.1726   6.4763   6.5282   6.6183

          k = 0.4000-0.0000 0.0000 ( 87940 PWs)   bands (ev):

   -12.9382  -7.6177  -6.2558  -5.1457  -5.0415  -5.0090  -4.7929  -4.7802
    -3.9657  -3.9635  -3.9553  -3.9399  -3.9158  -3.8886  -3.8780  -3.8430
    -3.7786  -3.7654  -3.3970  -3.3928  -3.3771  -3.3509  -3.3144  -3.2699
    -3.1713  -3.1650  -3.1437  -3.1299  -3.1274  -3.0510  -2.9924  -2.9898
    -2.9809  -2.9691  -2.8848  -2.8737  -2.8658  -2.8122  -2.7941  -2.7666
    -2.6020  -2.5350  -2.4245  -2.3973  -2.3799  -2.3396  -2.3257  -2.3192
    -2.2659  -2.2138  -2.1863  -2.1211  -2.0919  -2.0850  -2.0010  -1.9410
    -1.9107  -1.9058  -1.8501  -1.8183  -1.7870  -1.7577  -1.6518  -1.5929
    -1.5676  -1.5123  -1.4960  -1.4889  -1.4686  -1.4217  -1.4092  -1.3778
    -1.2907  -1.2479  -1.2409  -1.2176  -1.2024  -1.1881  -1.1408  -1.1299
    -1.0766  -1.0589  -0.9873  -0.9813  -0.9369  -0.9237  -0.9190  -0.9037
    -0.8594  -0.8575  -0.8420  -0.8043  -0.7888  -0.7703  -0.7198  -0.6902
    -0.6727  -0.6442  -0.6255  -0.6120  -0.5800  -0.5643  -0.5477  -0.5163
    -0.5096  -0.4874  -0.4795  -0.4477  -0.4252  -0.4064  -0.3419  -0.3244
    -0.3113  -0.2743  -0.2153  -0.1762  -0.1459  -0.0698  -0.0112   0.0446
     0.0543   0.1464   0.1513   0.1893   0.2157   0.2409   0.2589   0.2762
     0.2954   0.3252   0.3509   0.3876   0.4123   0.5076   0.5683   0.5723
     0.6022   0.6208   0.6622   0.7005   0.7273   0.7801   0.8148   0.8350
     0.8879   0.9181   0.9608   0.9813   1.0194   1.0515   1.0777   1.1089
     1.1336   1.1532   1.1599   1.1677   1.1827   1.1904   1.2208   1.2608
     1.3418   1.3825   1.4318   1.5121   1.5311   1.6143   1.6902   1.7040
     1.7142   1.7451   1.8170   1.8307   1.8430   1.8742   1.8831   1.9076
     1.9165   1.9270   1.9441   1.9704   1.9880   1.9975   2.0603   2.0994
     2.1090   2.1264   2.1474   2.1946   2.2344   2.3390   2.3677   2.3796
     2.4023   2.4485   2.4688   2.5475   2.6027   2.7607   3.0591   3.1204
     3.2831   3.3877   3.6318   3.6937   3.8858   3.9155   4.3541   4.3691
     4.5479   4.5961   4.6872   5.1138   5.3148   5.7835   5.8346   5.9636
     6.0585   6.1071   6.3746   6.4845   6.5758   6.6296

          k = 0.4000 0.2309 0.0000 ( 87922 PWs)   bands (ev):

   -12.9382  -7.6169  -6.1207  -5.4981  -5.0223  -4.7907  -4.7782  -4.4183
    -4.3988  -4.2708  -4.0432  -3.9063  -3.8244  -3.7567  -3.6978  -3.6877
    -3.5480  -3.5098  -3.4882  -3.4718  -3.4492  -3.3867  -3.3172  -3.3085
    -3.2742  -3.2613  -3.2447  -3.2044  -3.1487  -3.1234  -3.1136  -2.8950
    -2.8828  -2.8588  -2.8515  -2.8433  -2.8324  -2.6989  -2.6305  -2.6034
    -2.5988  -2.5851  -2.5771  -2.5117  -2.3943  -2.2898  -2.2808  -2.2619
    -2.2490  -2.2296  -2.1507  -2.1343  -2.1249  -2.0986  -2.0940  -2.0196
    -1.9688  -1.8955  -1.8909  -1.8560  -1.7732  -1.7547  -1.7172  -1.6766
    -1.6258  -1.5591  -1.5321  -1.4735  -1.4562  -1.4432  -1.4133  -1.3734
    -1.3547  -1.2941  -1.2635  -1.2201  -1.1962  -1.1499  -1.1327  -1.1032
    -1.0843  -1.0583  -1.0540  -1.0161  -0.9799  -0.9746  -0.9539  -0.9472
    -0.9367  -0.9165  -0.8866  -0.8657  -0.8076  -0.7995  -0.7834  -0.7736
    -0.6990  -0.6788  -0.6560  -0.6207  -0.6133  -0.5456  -0.5369  -0.5049
    -0.4994  -0.4574  -0.4345  -0.3686  -0.3322  -0.3097  -0.2776  -0.2490
    -0.2364  -0.1674  -0.1469  -0.0515  -0.0372   0.0106   0.0253   0.0805
     0.1010   0.1321   0.1420   0.1609   0.1808   0.2024   0.2116   0.2293
     0.2617   0.2662   0.3005   0.3248   0.3755   0.4263   0.4530   0.4762
     0.5043   0.5350   0.6239   0.6681   0.6773   0.7519   0.7665   0.8719
     0.8991   0.9059   0.9683   0.9862   1.0151   1.0366   1.0642   1.1016
     1.1152   1.1611   1.1765   1.1925   1.2782   1.2821   1.3139   1.3220
     1.3500   1.3534   1.4308   1.4859   1.5251   1.5544   1.5894   1.6213
     1.6381   1.7118   1.7295   1.7439   1.8220   1.8288   1.8340   1.8809
     1.9032   1.9144   1.9461   2.0064   2.0295   2.0538   2.0765   2.0906
     2.0994   2.1172   2.1219   2.2892   2.2910   2.3088   2.3373   2.3438
     2.4707   2.5543   2.5949   2.8124   2.9730   3.0569   3.2597   3.3608
     3.4712   3.5691   3.7627   3.8602   4.0913   4.1667   4.5324   4.5995
     4.6094   4.7352   4.8760   4.9039   4.9799   5.1659   5.2845   5.5177
     5.8131   5.9820   6.2174   6.4389   6.5268   6.6455

          k = 0.4000-0.6928 0.0000 ( 87912 PWs)   bands (ev):

   -12.9382  -7.6157  -5.7378  -5.7211  -5.1553  -4.9221  -4.7899  -4.4997
    -4.4203  -3.9709  -3.9328  -3.8269  -3.7814  -3.6778  -3.6635  -3.5782
    -3.5662  -3.4946  -3.4770  -3.4392  -3.4163  -3.4044  -3.3989  -3.3887
    -3.2561  -3.2363  -3.2213  -3.2056  -3.1702  -3.1436  -3.0618  -2.9959
    -2.9518  -2.8974  -2.8547  -2.8340  -2.8290  -2.7906  -2.7467  -2.7095
    -2.6227  -2.5942  -2.5527  -2.4391  -2.3957  -2.3826  -2.2734  -2.2229
    -2.2039  -2.1231  -2.0911  -2.0583  -2.0281  -1.9867  -1.9676  -1.9297
    -1.9143  -1.9054  -1.8726  -1.8009  -1.7902  -1.7659  -1.7418  -1.7326
    -1.6965  -1.6795  -1.6411  -1.5696  -1.5503  -1.4937  -1.4527  -1.4178
    -1.4030  -1.3262  -1.3223  -1.2860  -1.2617  -1.2403  -1.2215  -1.1997
    -1.1754  -1.1415  -1.0917  -1.0610  -1.0396  -1.0156  -0.9864  -0.9206
    -0.8996  -0.8826  -0.8407  -0.7899  -0.7497  -0.7369  -0.7089  -0.6826
    -0.6708  -0.6390  -0.6299  -0.6030  -0.5866  -0.5738  -0.5539  -0.5456
    -0.5074  -0.4871  -0.4736  -0.4625  -0.4412  -0.4358  -0.4240  -0.4146
    -0.3674  -0.3258  -0.2070  -0.1112  -0.0824  -0.0595   0.0174   0.0403
     0.0459   0.0944   0.1009   0.1457   0.1585   0.1872   0.2006   0.2315
     0.2714   0.3030   0.3383   0.3741   0.4175   0.4436   0.4666   0.5107
     0.5810   0.6254   0.6614   0.7143   0.7335   0.7757   0.7841   0.8239
     0.8505   0.8616   0.8816   0.8862   0.9308   0.9793   1.0034   1.0574
     1.0774   1.0901   1.1052   1.1219   1.1475   1.2219   1.2705   1.3433
     1.3824   1.4589   1.4992   1.5440   1.5568   1.6219   1.6640   1.6803
     1.7060   1.7880   1.8223   1.8451   1.8750   1.8942   1.9081   1.9195
     1.9483   1.9754   2.0491   2.0534   2.0565   2.0926   2.1131   2.1178
     2.1293   2.1924   2.2754   2.2956   2.3296   2.3383   2.3455   2.3880
     2.4098   2.5082   2.5927   2.9916   3.2055   3.4789   3.4959   3.6533
     3.7569   3.8371   3.8583   3.9356   4.0876   4.4700   4.5349   4.6082
     4.8282   4.9539   5.0514   5.0940   5.1618   5.2681   5.3814   5.4496
     5.6412   5.8402   5.9108   6.1283   6.3447   6.5188

          k = 0.4000-0.4619 0.0000 ( 87912 PWs)   bands (ev):

   -12.9382  -7.6157  -5.7359  -5.7235  -5.1555  -4.9212  -4.7912  -4.4987
    -4.4202  -3.9727  -3.9359  -3.8238  -3.7806  -3.6768  -3.6604  -3.5831
    -3.5662  -3.4921  -3.4763  -3.4364  -3.4157  -3.4032  -3.3992  -3.3850
    -3.2595  -3.2356  -3.2246  -3.2048  -3.1729  -3.1420  -3.0606  -2.9983
    -2.9507  -2.8922  -2.8639  -2.8355  -2.8263  -2.7874  -2.7472  -2.7112
    -2.6053  -2.5894  -2.5539  -2.4599  -2.3943  -2.3858  -2.2737  -2.2233
    -2.2036  -2.1296  -2.0858  -2.0571  -2.0279  -1.9914  -1.9594  -1.9292
    -1.9088  -1.9018  -1.8787  -1.8024  -1.7877  -1.7623  -1.7401  -1.7312
    -1.6937  -1.6753  -1.6523  -1.6004  -1.5499  -1.4933  -1.4638  -1.4139
    -1.3837  -1.3326  -1.3215  -1.2863  -1.2647  -1.2472  -1.2239  -1.1953
    -1.1625  -1.1379  -1.0893  -1.0611  -1.0445  -1.0183  -0.9839  -0.9222
    -0.9017  -0.8761  -0.8393  -0.7895  -0.7520  -0.7311  -0.7103  -0.6814
    -0.6630  -0.6425  -0.6283  -0.6085  -0.5877  -0.5825  -0.5553  -0.5454
    -0.4978  -0.4849  -0.4719  -0.4627  -0.4458  -0.4341  -0.4249  -0.3955
    -0.3664  -0.3275  -0.2056  -0.1116  -0.0819  -0.0626  -0.0101   0.0385
     0.0441   0.0822   0.1057   0.1475   0.1614   0.1799   0.2047   0.2378
     0.2708   0.3055   0.3388   0.3584   0.4158   0.4351   0.4655   0.5350
     0.5811   0.6365   0.6646   0.7143   0.7336   0.7654   0.7883   0.8307
     0.8498   0.8594   0.8844   0.9059   0.9305   0.9878   1.0035   1.0566
     1.0782   1.0920   1.1051   1.1256   1.1437   1.2177   1.2725   1.3327
     1.3871   1.4554   1.4979   1.5437   1.5571   1.6025   1.6702   1.6806
     1.7085   1.7817   1.8220   1.8473   1.8720   1.8954   1.9068   1.9170
     1.9487   1.9771   2.0489   2.0516   2.0567   2.0876   2.1108   2.1156
     2.1274   2.1898   2.2735   2.2994   2.3309   2.3418   2.3499   2.3952
     2.4185   2.5129   2.6104   2.9892   3.1348   3.4793   3.4942   3.6489
     3.7406   3.8393   3.8579   3.9860   4.0920   4.4678   4.5193   4.5995
     4.8962   4.9546   5.0443   5.0951   5.1678   5.3078   5.3871   5.4371
     5.6401   5.8040   5.9319   6.1026   6.3308   6.4983

     the Fermi energy is     2.1109 ev

!    total energy              =  -27794.59969290 Ry

     total all-electron energy =  -1326796.893299 Ry
     estimated scf accuracy    <       0.00000085 Ry
     smearing contrib. (-TS)   =       0.00106173 Ry
     internal energy E=F+TS    =  -27794.60075463 Ry

     The total energy is F=E-TS. E is the sum of the following terms:
     one-electron contribution =  -26029.82017871 Ry
     hartree contribution      =   13319.63897029 Ry
     xc contribution           =    -900.91610396 Ry
     ewald contribution        =   11303.58458511 Ry
     one-center paw contrib.   =  -25487.08802736 Ry

     convergence has been achieved in  20 iterations

     negative rho (up, down):  1.173E-02 0.000E+00

     Forces acting on atoms (cartesian axes, Ry/au):

     atom    1 type  1   force =     0.00046642    0.00040348   -0.00960602
     atom    2 type  1   force =    -0.00094682    0.00007658   -0.00346608
     atom    3 type  1   force =     0.00103829   -0.00003756   -0.00319599
     atom    4 type  1   force =    -0.00022519   -0.00094802   -0.00336334
     atom    5 type  1   force =     0.00010597    0.00004530   -0.00334283
     atom    6 type  1   force =     0.00035913   -0.00093329   -0.00310717
     atom    7 type  1   force =     0.00049701    0.00077289   -0.00294319
     atom    8 type  1   force =    -0.00042043    0.00070151   -0.00302089
     atom    9 type  1   force =     0.00015966    0.00007669   -0.00315262
     atom   10 type  1   force =    -0.00081017   -0.00064791   -0.00082792
     atom   11 type  1   force =     0.00005461    0.00229155    0.00948401
     atom   12 type  1   force =    -0.00042327   -0.00047278    0.00039192
     atom   13 type  1   force =     0.00207060   -0.00116050    0.00949358
     atom   14 type  1   force =    -0.00283843   -0.00156396    0.00983858
     atom   15 type  1   force =    -0.00022359    0.00017247    0.00127933
     atom   16 type  1   force =    -0.00056558   -0.00021988    0.00078407
     atom   17 type  1   force =    -0.00023607   -0.00029150    0.00154121
     atom   18 type  1   force =    -0.00024747   -0.00025169    0.00182726
     atom   19 type  1   force =    -0.00009227   -0.00008570   -0.00016653
     atom   20 type  1   force =     0.00003126    0.00007240   -0.00048437
     atom   21 type  1   force =    -0.00042027   -0.00008888   -0.00013921
     atom   22 type  1   force =     0.00017145    0.00028377    0.00004055
     atom   23 type  1   force =    -0.00007599   -0.00020880    0.00001881
     atom   24 type  1   force =    -0.00002521    0.00021630    0.00005007
     atom   25 type  1   force =    -0.00023688    0.00008394    0.00000536
     atom   26 type  1   force =     0.00047099    0.00036850   -0.00008386
     atom   27 type  1   force =     0.00021242    0.00048007    0.00018584
     atom   28 type  1   force =     0.00004554   -0.00008104    0.00023463
     atom   29 type  1   force =    -0.00009709    0.00039569    0.00012022
     atom   30 type  1   force =     0.00019531    0.00026140   -0.00005876
     atom   31 type  1   force =     0.00049281    0.00001442    0.00036826
     atom   32 type  1   force =    -0.00011723   -0.00000417    0.00017993
     atom   33 type  1   force =    -0.00009579   -0.00008046    0.00050894
     atom   34 type  1   force =     0.00018926    0.00034930    0.00020856
     atom   35 type  1   force =     0.00001661    0.00025832    0.00023389
     atom   36 type  1   force =     0.00029472    0.00000676    0.00024535
     atom   37 type  2   force =     0.00328612   -0.00053231    0.00110719
     atom   38 type  2   force =     0.00036809   -0.00543900    0.00383487
     atom   39 type  3   force =    -0.00049679    0.00053997    0.00003468
     atom   40 type  3   force =    -0.00193176    0.00517616   -0.00505832

     Total force =     0.010786     Total SCF correction =     0.003018
     SCF correction compared to forces is large: reduce conv_thr to get better values

     negative rho (up, down):  1.173E-02 0.000E+00

     negative rho (up, down):  1.173E-02 0.000E+00

     negative rho (up, down):  1.173E-02 0.000E+00

     negative rho (up, down):  1.173E-02 0.000E+00

     negative rho (up, down):  1.173E-02 0.000E+00

     negative rho (up, down):  1.173E-02 0.000E+00

     negative rho (up, down):  1.173E-02 0.000E+00

     negative rho (up, down):  1.173E-02 0.000E+00

     negative rho (up, down):  1.173E-02 0.000E+00

     negative rho (up, down):  1.173E-02 0.000E+00

     negative rho (up, down):  1.173E-02 0.000E+00

     negative rho (up, down):  1.173E-02 0.000E+00

     negative rho (up, down):  1.173E-02 0.000E+00

     negative rho (up, down):  1.173E-02 0.000E+00

     negative rho (up, down):  1.173E-02 0.000E+00

     negative rho (up, down):  1.173E-02 0.000E+00

     negative rho (up, down):  1.173E-02 0.000E+00

     negative rho (up, down):  1.173E-02 0.000E+00

     negative rho (up, down):  1.173E-02 0.000E+00

     negative rho (up, down):  1.173E-02 0.000E+00

     negative rho (up, down):  1.173E-02 0.000E+00

     negative rho (up, down):  1.173E-02 0.000E+00

     negative rho (up, down):  1.173E-02 0.000E+00

     negative rho (up, down):  1.173E-02 0.000E+00

     negative rho (up, down):  1.173E-02 0.000E+00

     negative rho (up, down):  1.173E-02 0.000E+00

     negative rho (up, down):  1.173E-02 0.000E+00

     negative rho (up, down):  1.173E-02 0.000E+00

     negative rho (up, down):  1.173E-02 0.000E+00

     negative rho (up, down):  1.173E-02 0.000E+00

     negative rho (up, down):  1.173E-02 0.000E+00

     negative rho (up, down):  1.173E-02 0.000E+00

     negative rho (up, down):  1.173E-02 0.000E+00

     negative rho (up, down):  1.173E-02 0.000E+00
 BEEFens 2000 ensemble energies
             -0.602712439038064E+02
             -0.358866840314280E+01
             -0.157431854586847E+02
              0.426550964230640E+02
             -0.219898816821161E+02
             -0.204246133882711E+02
             -0.349351736637774E+02
             -0.858787939335422E+02
             -0.462816742002316E+02
             -0.470304116523646E+02
             -0.366919698031875E+02
              0.224453589693584E+01
              0.404229374382751E+01
              0.765026454625144E+01
              0.262651304487008E+01
              0.471940052552067E+02
             -0.207515606908123E+02
             -0.229455424340768E+02
              0.191547181927351E+02
             -0.111685691122726E+03
              0.532692772772656E+02
             -0.288577535614623E+02
             -0.330018732224385E+01
             -0.113549254840559E+02
             -0.884427561254768E+01
             -0.459741864253220E+01
              0.877242418109621E+02
             -0.185656721610139E+02
             -0.894329034099849E+01
             -0.514835870474285E+02
              0.811113872623396E+02
             -0.186883579365945E+02
             -0.372293623772912E+02
              0.247983919878349E+02
             -0.282465994253033E+01
              0.162310670452111E+02
             -0.486936318914962E+01
              0.108069838856616E+02
              0.286078450642064E+02
             -0.102631860079727E+03
              0.554953021853012E+02
              0.141610840938613E+02
             -0.165145271496164E+01
             -0.359475405213119E+02
              0.122469311138784E+02
             -0.145643837212049E+02
              0.395197268206448E+02
              0.362620262966841E+02
             -0.306865337537974E+02
             -0.273052236115756E+02
             -0.326463891127396E+02
             -0.349867213999571E+02
              0.135140030738959E+02
             -0.487466360447784E+02
              0.114543996469213E+02
              0.619255024955679E+02
              0.630591252120696E+02
              0.353881824057698E+02
              0.153009647606875E+02
              0.268507902595159E+02
              0.885824834593045E+02
              0.211515406402743E+02
             -0.545049301301980E+02
             -0.156514493265555E+02
             -0.234124059780258E+02
              0.625773809694404E+02
             -0.768796283705083E+02
             -0.668090433537294E+02
             -0.257456233527503E+02
             -0.637242335952010E+01
             -0.468207665645544E+02
              0.269009242441286E+02
              0.793734717968971E+01
              0.857500892079560E+01
             -0.394926247846778E+02
             -0.344538214986819E+02
             -0.538159628918122E+02
              0.388248771175225E+02
             -0.293817925148978E+02
              0.263422494060637E+02
             -0.711648564262399E+01
             -0.316218966959568E+02
             -0.572865377766566E+02
             -0.175620570494235E+02
             -0.894487517162395E+01
             -0.123652934810060E+02
              0.409859172405951E+02
              0.677969501838708E+02
             -0.382700104412079E+02
             -0.789457995081227E+02
             -0.218472946799081E+02
              0.110809742814924E+03
             -0.588991440653574E+02
              0.354184098543773E+02
             -0.948981893448638E+01
             -0.659414532141850E+02
              0.252703214273680E+02
              0.396057557097214E+02
             -0.197856135259417E+02
              0.398472645236260E+02
             -0.294432576112761E+02
             -0.474319288294774E+02
              0.859563351582887E+02
              0.450955705804245E+02
              0.335048452294060E+02
              0.145515987289496E+02
              0.204117026813365E+02
              0.851323495008825E+02
             -0.255145949852680E+02
              0.786284943336867E+01
             -0.141522472678562E+03
              0.179980498417542E+02
             -0.711989714727715E+02
              0.150172696414932E+02
              0.203225475473047E+02
             -0.330521548661202E+02
             -0.554004759447145E+02
              0.651539696385407E+01
             -0.302300803645340E+02
              0.305100587027885E+02
             -0.526947111174877E+02
              0.175715760327239E+01
             -0.354541277905159E+02
             -0.420385916265371E+01
             -0.106137614991746E+01
              0.179790753361739E+02
              0.143229393453134E+01
             -0.647908019978468E+01
              0.586230853063418E+02
              0.902435271143729E+02
              0.481029122892937E+02
              0.826067232733512E+02
             -0.114315597445629E+02
              0.142344854161733E+02
              0.537742066942865E+02
             -0.111054435230391E+02
             -0.730986142360949E+02
             -0.381422078358509E+02
             -0.518740623795138E+02
             -0.274862938078088E+02
              0.325680214465937E+02
             -0.116006389976585E+03
             -0.186425129692674E+02
              0.411037130892947E+02
             -0.383745527042915E+02
             -0.363564907288257E+02
              0.540524674370964E+02
              0.397673341514105E+02
             -0.352238266937854E+02
              0.135810439979228E+02
             -0.271703882033023E+02
              0.340764225367107E+02
              0.440460259244969E+01
              0.210406040384867E+02
             -0.879568257790256E+02
             -0.477132872675669E+02
             -0.990624149960843E+01
              0.322083607609781E+01
             -0.364001974004009E+02
              0.105328698724420E+03
             -0.230083964099515E+02
             -0.397020734781767E+02
              0.386230408344456E+02
             -0.491274773976808E+02
             -0.360953193574799E+02
              0.322811438603716E+02
              0.123721106351074E+02
              0.163949965111557E+02
              0.115581636678881E+02
             -0.132163441996921E+02
              0.224514115816854E+02
              0.586414536186303E+02
             -0.309826891073690E+02
              0.161063123337922E+02
              0.928854886912317E+02
              0.338751478048888E+02
             -0.725473414905491E+01
             -0.187262048618136E+02
              0.152352784489994E+03
             -0.162569223919694E+02
              0.360872038945909E+02
              0.192539144991254E+02
              0.359749096915396E+02
              0.886075167579093E+02
              0.539909527318581E+02
             -0.235315320843722E+01
              0.226117779415083E+02
              0.481590604641846E+02
              0.360866965042638E+02
             -0.521653733977038E+02
              0.930093266951409E+02
             -0.820309165117672E+02
             -0.197291657024497E+02
              0.579176620147879E+02
              0.666301029186253E+01
              0.785482328747275E+01
              0.339002847373147E+02
              0.298178031772848E+02
              0.351466412400389E+02
             -0.633553966416296E+02
              0.284919726714804E+01
             -0.296099380043394E+02
             -0.864834166700973E+01
             -0.143976650256207E+01
             -0.715258472278928E+01
             -0.410994099349062E+01
              0.854108692604922E+02
             -0.100732082230524E+02
             -0.274495017683184E+02
             -0.495774186480008E+01
              0.139032049095322E+02
             -0.559854230350159E+02
             -0.403879281468469E+02
             -0.379858226827151E+02
             -0.626209742544030E+02
             -0.168393773480146E+02
             -0.444863909535594E+02
              0.162107859380995E+02
             -0.240617149224681E+01
             -0.103598515986241E+02
             -0.928668948358361E+01
              0.804649790104668E+01
             -0.241863223345873E+02
              0.685276799302018E+02
             -0.801668448702970E+02
             -0.140170962969869E+02
             -0.173140213222927E+02
              0.181031071785128E+02
              0.213159463842507E+02
             -0.460519047914522E+02
             -0.201008329248703E+02
              0.438087664823340E+02
             -0.274929954766487E+02
              0.186133121688807E+02
              0.380705750804058E+02
             -0.321485679932266E+01
              0.113393701008130E+03
             -0.229168967772305E+02
             -0.338806501628468E+02
              0.576709332842546E+01
             -0.226541229429566E+02
              0.523973996320698E+02
             -0.334389999448824E+02
              0.105769634760381E+02
              0.637087523259654E+02
             -0.125460066096168E+02
              0.119482800183900E+03
              0.125045742632653E+03
             -0.645461070115175E+02
              0.586936251772844E+02
              0.165086297281970E+02
             -0.514208117182079E+02
              0.215018643238409E+02
              0.351312308866395E+02
              0.359771778198815E+02
              0.131650489529045E+01
              0.158823090945571E+02
              0.691113013257966E+02
             -0.245502127690178E+02
              0.180762806637080E+02
              0.734527186189812E+02
             -0.370186037206184E+02
             -0.128265655877476E+02
              0.504924396720680E+02
              0.295469482352565E+02
              0.775283485914345E+02
              0.220739926195195E+02
              0.617487762556789E+01
              0.278737492503250E+02
              0.380667764168137E+02
             -0.468614785395761E+02
              0.327308579092352E+01
              0.128269276248122E+02
              0.112891815997647E+02
              0.219074381766199E+02
             -0.571045544561777E+02
              0.363970499775971E+02
             -0.441063467383881E+02
             -0.345486909806880E+02
              0.176912190535826E+02
             -0.180859726421473E+02
              0.551274659608213E+02
             -0.255017170880179E+02
              0.264869150680970E+02
              0.366283241222602E+02
              0.824225873076312E+02
              0.571360757150852E+02
              0.458597442057564E+02
             -0.105268159215432E+02
             -0.384338070518521E+01
             -0.330269261654189E+02
              0.745533217250655E+02
              0.791880061894582E+02
              0.359329810591950E+02
             -0.190235180585268E+02
              0.508641266450514E+02
             -0.162695534907446E+02
              0.213653769456736E+02
              0.610152561482219E+02
              0.214562840250412E+01
             -0.103757158252442E+02
             -0.281623399793912E+02
             -0.507930723982030E+02
              0.939220505501636E+02
              0.436638986078277E+02
             -0.555006171980606E+02
             -0.949269435306601E+01
              0.248186654255316E+02
             -0.990170184799740E+01
              0.587893385495156E+02
              0.151131816577908E+02
              0.793993498869264E+02
              0.277665869954634E+02
             -0.262251988698675E+02
              0.247582187131714E+02
             -0.497551567481662E+01
             -0.321854420049232E+02
              0.132118295285715E+02
              0.204608269565489E+02
              0.927243305326038E+02
              0.792471410557530E+02
              0.547493353395220E+02
              0.726447594675010E+02
              0.797855639073614E+01
             -0.272131416221283E+02
              0.162275269042129E+02
             -0.365836408765679E+02
             -0.472803243958448E+02
             -0.559848588401229E+02
             -0.264568894209245E+02
             -0.109020639570873E+03
             -0.289162091004787E+02
             -0.831792342893913E+02
              0.208773198147779E+02
             -0.474194354778702E+02
              0.393752449315969E+02
             -0.935202506313107E+02
             -0.328183885196069E+02
              0.545847833055074E+02
              0.206207827739918E+02
             -0.824922390531300E+02
              0.627468781646527E+02
             -0.255005990586467E+02
              0.508972624422733E+02
             -0.240723800234895E+02
             -0.746223833491073E+02
              0.110845246245997E+02
             -0.607055778747465E+02
             -0.167827660357304E+02
             -0.149033602946453E+01
              0.415522179862516E+02
              0.126212501704214E+03
             -0.458939279874226E+02
             -0.360117257565394E+02
             -0.954505158424354E+00
             -0.129761338832869E+02
             -0.817390954376286E+02
             -0.593221599920829E+02
              0.514000993369330E+02
             -0.287705441453245E+02
              0.167895631785789E+02
             -0.486236159695118E+02
             -0.130905772325814E+02
             -0.434624360606434E+02
              0.562423430237583E+02
              0.150072029927173E+02
             -0.230152870013236E+02
             -0.125889497462610E+02
              0.659981472410325E+01
             -0.614378473886848E+01
              0.438874088671818E+02
             -0.250373890459554E+02
              0.272030336176749E+01
              0.337290259723789E+02
              0.170368649388058E+02
             -0.158464062983305E+02
              0.155284220529584E+03
              0.534408895965282E+02
              0.110245127892561E+01
              0.161131962224409E+02
             -0.611015778491654E+02
              0.312935576320851E+02
             -0.716775700222021E+02
             -0.249976214394469E+02
             -0.518977643971420E+02
             -0.218959615744918E+02
              0.565531854120420E+02
             -0.533415302944385E+02
              0.159309213039601E+02
             -0.407033761620778E+01
              0.385829717919253E+01
             -0.431816953352582E+02
             -0.475668471467306E+02
             -0.399723833279882E+01
             -0.422657384203293E+02
             -0.215566253066822E+02
             -0.435898832835949E+02
             -0.118853725149069E+02
             -0.356913717335594E+02
             -0.513354201428863E+02
              0.211378184627672E+02
             -0.208347809906251E+02
              0.186429353037802E+02
              0.969706307523034E+01
             -0.733267993523284E+02
             -0.544815796778770E+02
             -0.395210659749464E+02
              0.352060470601220E+02
              0.274208035853741E+01
             -0.622668139389954E+02
              0.582201986052253E+02
             -0.398463554418996E+02
              0.541138599273936E+02
             -0.287694082810569E+02
             -0.442901960922685E+02
              0.296754998526314E+02
             -0.653026726088022E+02
             -0.377864565518114E+02
              0.669077690472483E+02
              0.202833467399026E+02
             -0.357537230275245E+02
              0.486150598034002E+02
             -0.172995936758919E+02
             -0.320541031498581E+02
             -0.299880066773953E+02
             -0.497440629197218E+02
              0.247939341329586E+02
             -0.927636474106487E+02
             -0.835349219507578E+02
             -0.729011599989587E+01
             -0.304973478661277E+02
             -0.571968859767058E+02
              0.717013184337313E+02
              0.130668232304760E+03
             -0.359416606123337E+02
             -0.253229901445206E+01
             -0.633321022778005E+02
              0.646378669973418E+02
              0.169381807589826E+02
             -0.180476623142054E+02
             -0.407725488757497E+02
              0.147636709607546E+02
             -0.582266873638871E+02
             -0.197016487479097E+02
             -0.899126640354378E+02
              0.334777565984381E+02
              0.168261174591387E+02
              0.188056152605805E+01
             -0.700262359796079E+01
             -0.327164069564474E+02
             -0.751826158767619E+01
              0.124682045570338E+03
             -0.197956478998868E+02
             -0.434522128433425E+02
             -0.679616863592374E+02
              0.108427037769746E+02
             -0.339818770186912E+02
              0.584954388485468E+01
              0.259408538692264E+02
              0.101905691327329E+02
              0.275753878220183E+02
              0.118867330107000E+02
              0.625911656067594E+02
              0.315075243586800E+02
             -0.324314430292641E+02
              0.352312989881250E+02
              0.377361806918628E+02
              0.120076997177485E+02
              0.484752232211431E+02
             -0.222894417999685E+02
              0.761234376783427E+02
              0.170828232485099E+02
             -0.270017292614018E+02
             -0.720848147612836E+01
             -0.185353562676668E+02
              0.260791383289091E+02
             -0.232684938997991E+02
             -0.669735759397270E-01
             -0.841379466000558E+01
              0.804496463419526E+02
              0.496486904599319E+02
             -0.682886087500798E+02
             -0.472523377122516E+01
             -0.552246270041349E+02
             -0.158574238894196E+02
             -0.267044987885659E+02
              0.368961988007595E+01
              0.619006877474183E+00
             -0.255912104013734E+02
              0.804364467682984E+01
             -0.597174463554938E+01
             -0.128082957716003E+02
              0.853414348205043E+02
              0.180779632172201E+02
             -0.801832507054013E+02
             -0.455985846577435E+02
              0.938999507965942E+02
              0.276293946192408E+02
             -0.106315729771974E+02
              0.103868765589168E+03
             -0.193612508389516E+02
             -0.122544799985704E+02
             -0.533579477548687E+01
              0.106489036125303E+02
              0.270448661195037E+02
              0.779384662966385E+01
              0.303591336278557E+02
             -0.187149295665430E+02
             -0.301440056139672E+02
             -0.415393592754323E+02
             -0.473821289779777E+02
              0.461486763343221E+02
              0.125922835019600E+02
              0.385267586826808E+02
              0.132563251721654E+02
              0.850017152691786E+02
              0.155141993444682E+02
             -0.841199298083369E+02
             -0.332452161504528E+02
              0.133429870306352E+02
             -0.301086718220560E+02
              0.622601534685610E+02
             -0.875404861191942E+01
              0.147567490336570E+02
              0.493798592598139E+02
             -0.702245931094396E+02
              0.148808759539965E+03
              0.207561216773049E+02
              0.269824522089465E+02
              0.345296076354148E+02
              0.103448120150040E+02
             -0.154915411792928E+01
              0.356351509194909E+02
             -0.355062974676975E+02
              0.767901670550280E+02
              0.680218048260486E+02
             -0.403591373558323E+02
              0.148541871425939E+02
              0.665598195429930E+02
             -0.222516461205775E+02
              0.153166512783425E+02
              0.432898925072153E+02
              0.419563216474542E+02
             -0.780098940587013E+02
             -0.152244682829663E+02
             -0.354267407980590E+02
             -0.145025505935695E+01
             -0.763548773246342E+01
             -0.546849965062665E+01
             -0.179794222294383E+02
             -0.292005793217893E+02
              0.625552853714805E+01
              0.111258263141795E+02
              0.532338445395760E+02
             -0.387471988945231E+02
              0.371682489855416E+02
              0.435535658260016E+02
             -0.185795550054269E+02
              0.867284023251765E+02
             -0.693624437367846E+02
             -0.102531323950084E+03
             -0.654528996598752E+01
             -0.264369390944751E+01
              0.386161421352710E+01
              0.784677529650185E+02
             -0.106886516162780E+02
              0.414058151384285E+02
              0.440111268168304E+02
              0.382880702948712E+02
             -0.991491942069490E+01
              0.623745432831934E+02
             -0.132606221454724E+02
             -0.305029447238821E+02
             -0.477110639499737E+02
              0.581963940466942E+01
              0.367278006736570E+02
             -0.600503452883845E+01
              0.390799886365027E+02
             -0.174699046686817E+01
              0.651582258052667E+02
              0.186147021149772E+02
              0.993522723778362E+01
             -0.121877134873214E+02
              0.330249973281962E+02
              0.359986534759805E+02
              0.231653558633990E+02
             -0.490696302044853E+00
             -0.547190112387986E+02
              0.258799228832929E+02
              0.173878158548168E+02
              0.400459060637963E+02
              0.270259893881281E+02
              0.370181721987320E+02
             -0.598197045953864E+01
              0.249086889924899E+02
             -0.296904865800584E+02
             -0.196610632286433E+01
             -0.565911704123922E+02
             -0.305672249884286E+02
              0.376088389431776E+02
             -0.930121572545586E+02
              0.292821093517294E+02
              0.183199153805435E+02
              0.834944785107930E+02
             -0.299456520553650E+02
              0.327510367208399E+02
             -0.137034235843857E+02
             -0.460891484510748E+02
             -0.757337994754564E+02
             -0.518228233595612E+01
             -0.854388719560122E+02
              0.199123810970978E+02
             -0.246147498727035E+02
              0.303789751068274E+02
              0.235646997311705E+02
             -0.239422353794459E+02
             -0.263698674146124E+02
              0.388299175490162E+02
             -0.584792457320702E+02
             -0.115924380327970E+02
             -0.195010985416986E+02
              0.211151209903449E+02
             -0.892412679876486E+01
              0.359324258829770E+01
             -0.199611600946454E+02
              0.555362762967508E+02
             -0.436207665035787E+02
              0.783040356010781E+01
              0.581691877093169E+02
             -0.321090627415945E+02
              0.358530513723107E+01
             -0.882110329472448E+01
             -0.665273944085622E+02
             -0.479991725445137E+02
             -0.858643726105336E+01
              0.238942971437077E+02
              0.300264436982403E+02
              0.857695998771800E+01
             -0.407497586959585E+01
              0.150723968252977E+02
             -0.437317878307171E+02
              0.334580975418703E+01
             -0.527950260957138E+02
             -0.323189869370271E+02
              0.471593434431967E+02
             -0.293255928862023E+02
              0.618204323272261E+02
             -0.213440355952876E+02
              0.351483950751149E+02
              0.240205252424396E+02
             -0.640329198576466E+02
             -0.278735895642327E+02
              0.926815092639399E+01
             -0.369275710712926E+02
             -0.337148012444185E+02
             -0.824511605381583E+02
             -0.535869010191772E+02
             -0.507290773982186E+02
             -0.412699618314428E+02
             -0.994598886553149E+00
              0.981825463727549E+01
              0.992763252770374E+00
              0.151646854190802E+02
             -0.545747562757228E+02
              0.141074861272787E+02
              0.255286290572417E+02
             -0.662540946600226E+02
             -0.698339844415113E+02
             -0.428987438554092E+02
             -0.170121855842935E+02
              0.177475700052566E+02
              0.457194542537729E+01
             -0.423106044669801E+02
              0.364317926858884E+02
             -0.214812390177943E+02
              0.514269515572427E+02
             -0.881704587870262E+02
              0.593832398883535E+02
             -0.207320300220166E+01
             -0.365950858273058E+02
             -0.214518660411864E+02
              0.470628669577319E+01
              0.371568590546955E+02
             -0.751926992324590E+02
             -0.119890607237655E+02
             -0.215658119591702E+02
              0.508441628721857E+02
              0.859833522591132E+02
             -0.959181724610912E+02
              0.938287089435496E+02
              0.465087560007825E+02
             -0.720730706188326E+02
             -0.364528230190625E+02
              0.747151264307780E+02
              0.628478134849823E+02
             -0.180041800066697E+02
             -0.459389129426944E+01
              0.722219004585031E+01
              0.644402630554956E+02
             -0.504807337105878E+02
              0.157523105423821E+02
             -0.467359040701396E+01
              0.345983829359893E+02
             -0.742583160658913E+02
             -0.645587686202803E+01
             -0.349305794586190E+02
              0.457676008753241E+02
              0.466251181981853E+02
             -0.856463647532612E+02
             -0.484040846243868E+02
             -0.254924795428412E+02
             -0.336832117858218E+02
             -0.108461423595614E+02
             -0.241502626314970E+02
              0.424669684066776E+02
              0.398304527678726E+02
             -0.562582882635121E+01
             -0.413563066715882E+02
             -0.845314720516466E+02
              0.440158202622956E+02
             -0.520311927049004E+02
             -0.310859878114170E+02
              0.542268612629873E+01
             -0.320372153317661E+02
             -0.395353458767335E+02
             -0.238427395652507E+02
             -0.382543771189985E+02
             -0.269149952660821E+02
             -0.479414193111485E+02
              0.560368063393712E+02
              0.634343248899102E+02
             -0.166160710989607E+01
             -0.259832170059080E+02
             -0.628359420137133E+01
              0.438658541331395E+02
             -0.862546398082763E+02
             -0.144795139215763E+02
              0.520569460437733E+02
              0.659508448339195E+02
             -0.243804284828249E+02
              0.907145914265629E+01
              0.520409437388676E+02
              0.197290187633809E+02
             -0.825777918542320E+01
             -0.450763575916467E+02
              0.279575403824703E+02
             -0.350456156526220E+02
             -0.164055701432121E+02
             -0.151680463080233E+02
[...]
              0.282156734938887E+02
              0.140929247136441E+03
              0.240546940040788E+02
              0.121438887769591E+02
             -0.461232232588854E+02
             -0.633832845110296E+02
             -0.188207702279231E+02
              0.327937505979719E+02
             -0.423667776364005E+01
              0.188582850533834E+02
              0.333982932665942E+02
             -0.582358658574663E+02
              0.220732804991809E+02
              0.579511821036433E+02
              0.549123262719954E+02
             -0.413472600212964E+01
             -0.139351319438038E+01
             -0.989472474366636E+01
             -0.479449201428779E+02
             -0.670327409873022E+02
              0.780435404603002E+02
             -0.516247612877800E+01
             -0.584295962714710E+02
              0.166907809757851E+01
             -0.203459937381107E+02
              0.932979694508242E+02
             -0.215135559131107E+02
             -0.351205378415074E+02
              0.333084830774634E+02
             -0.144759589936782E+02
              0.386622659072671E+02
             -0.235988949408039E+01
              0.100469657125131E+03
              0.486280020623874E+02
             -0.516348266760689E+01
             -0.319438137272225E+02
              0.230485889415306E+02
             -0.524977628454747E+02
             -0.127487228578346E+02
              0.581665187901360E+02
             -0.286026325803359E+02
             -0.435468811968715E+02
             -0.221767954520743E+02
              0.515335256648897E+02
              0.123900863795258E+02
             -0.843557328647351E+02
              0.301804588569968E+02
              0.151506897480082E+02
              0.571065490943786E+01
             -0.510415753904905E+02
             -0.382319323190870E+01
              0.320840679570662E+02
              0.509736826121100E+02
              0.628503533689341E+02
              0.226898330890157E+02
              0.701882958806948E+00
             -0.494630633398930E+02
             -0.507316815723857E+02
             -0.743491264978859E+02
             -0.607373435877116E+01
              0.306918053172876E+02
             -0.379437027444496E+01
              0.543514123943909E+02
             -0.315912381433209E+02
              0.165233103098133E+02
             -0.101460403232458E+02
             -0.287852035103385E+02
              0.581923629058126E+02
              0.788876275922951E+01
              0.600276633836316E+02
              0.505757361082556E+01
              0.263646761402440E+02
             -0.191633013528245E+02
              0.582155755108423E+02
             -0.110615767898085E+02
             -0.111109829680966E+00
             -0.785111353551283E+02
             -0.127859943953442E+02
              0.714546783664484E+02
              0.668913445406518E+02
              0.250227557377092E+02
             -0.129269127831143E+02
              0.342063655801519E+01
             -0.172134502058559E+02
             -0.195883745414943E+01
              0.902029763334314E+02
              0.121280688899003E+01
             -0.188548125309553E+02
             -0.110047670862263E+03
             -0.549579493898335E+02
             -0.372611324344236E+02
             -0.654367151112543E+02
             -0.551767335761489E+02
             -0.678004526024047E+02
             -0.444204450584101E+02
             -0.408953726288944E+02
             -0.448776327125570E+02
              0.480665138582751E+02
             -0.292889007478441E+02
             -0.989555492848314E+02
              0.416264521904218E+02
             -0.257956087215408E+02
             -0.785613973079822E+02
              0.937377026768111E+02
             -0.218108510157273E+02
              0.226996266000094E+02
              0.452638863002533E+02
             -0.139833095600358E+01
              0.252772992127951E+02
              0.469873543050687E+01
              0.409246394307935E+00
             -0.149922914263814E+02
             -0.711065225208826E+02
              0.132532501088376E+02
             -0.128594573880924E+03
              0.619720906943249E+02
             -0.437988428768095E+02
             -0.161754297109772E+02
             -0.156803817048270E+02
              0.702162010695334E+01
             -0.226638268903958E+02
              0.295143734634535E+02
             -0.516723684286183E+02
              0.364846758335631E+02
              0.368309195618624E+02
              0.167599604842119E+02
              0.100082270263375E+02
              0.196433151110795E+02
              0.615632598896889E+01
              0.308335874245483E+02
             -0.795777202114004E+01
             -0.587718795685060E+02
              0.751183919598702E+01
             -0.150561010915840E+02
             -0.191363384181216E+01
              0.502831271837403E+02
             -0.821686690154484E+02
             -0.149289905609902E+01
              0.557289744525917E+00
              0.989962481134683E+01
              0.316365455603476E+02
             -0.122785599744084E+02
              0.830213890049604E+02
              0.485044738492283E+02
             -0.182173096701268E+02
             -0.948966925237642E+01
              0.102860387630318E+01
              0.764411534510998E+02
             -0.582887181730193E+02
             -0.105106830746330E+03
              0.307440972078890E+02
             -0.162597307462432E+02
             -0.138676384244726E+02
              0.129267269470602E+02
              0.763454428513320E+02
              0.461346723062425E+02
             -0.152329950152022E+02
             -0.499560797565288E+02
             -0.542179416598357E+01
              0.304563221343723E+02
             -0.110488231117870E+02
             -0.750873738015434E+02
             -0.266600476894808E+01
             -0.883637678860406E+02
             -0.472237476229295E+02
              0.762972812863445E+02
             -0.480228523493620E+02
             -0.631903694327646E+02
             -0.510956314061954E+02
             -0.347237754057403E+02
              0.338908124137232E+02
              0.816087819381111E+02
             -0.352750541639216E+01
              0.274790179380099E+02
             -0.182531542713755E+02
             -0.689467147882288E+02
              0.461809477947905E+02
             -0.441901568786698E+02
              0.320005349690390E+02
              0.374163900995783E+02
             -0.646066212678357E+01
              0.387849302296495E+02
              0.435705532917088E+02
              0.999037466276025E+02
             -0.155261888244049E+02
             -0.452604980270985E+02
             -0.608434799916830E+02
             -0.122669800664163E+02
             -0.230517728510140E+02
              0.102396784708284E+03
             -0.446223273173343E+02
              0.104456227588788E+02
              0.968993306394157E+01
             -0.263248727218051E+02
             -0.793323860586222E+02
             -0.695425711924736E+01
              0.973356435151068E+02
              0.925544666468417E+01
              0.803565683776753E+01
             -0.523278096772399E+02
             -0.601741124270907E+02
             -0.552766933193836E+01
              0.497362082475065E+02
             -0.220224153098060E+02
              0.107302634523129E+03
             -0.432745952463412E+02
              0.145050534628025E+02
             -0.223044176513807E+02
             -0.714408306073784E+02
              0.163564912845345E+01
             -0.498053891583836E+02
             -0.755765150581293E+02
              0.609257129681276E+01
              0.234548319896925E+01
              0.510890057927437E+02
              0.185526414561413E+02
             -0.321385263823211E+02
              0.228497576237145E+02
             -0.805339771601643E+02
             -0.518507968105292E+02
              0.895683938978640E+02
              0.141798832750422E+02
             -0.187571504593733E+02
             -0.350599054132288E+02
             -0.269217538865053E+01
             -0.580002552795850E+01
              0.824469591629073E+02
              0.415126237046968E+02
             -0.165334713582089E+02
             -0.121744075833611E+02
             -0.425059924944567E+02
             -0.199591986014116E+02
             -0.665767223738056E+02
              0.456428328977127E+02
              0.542851191736113E+01
              0.144308011969775E+02
              0.154970591493223E+02
             -0.490473037876122E+00
             -0.167032267644039E+02
             -0.311405916852426E+01
             -0.997060417525558E+02
             -0.229092740109000E+02
             -0.759921356886497E+01
             -0.943833170041077E+01
              0.542913922853311E+02
              0.619677197167609E+02
              0.163697637821253E+02
             -0.964421460185583E+02
              0.643245148566285E+02
             -0.213406469580092E+02
             -0.374502374772802E+02
             -0.858371875682975E+02
             -0.385033678454335E+02
              0.560545887096139E+02
              0.242263866850409E+02
              0.504573071688014E+01
              0.289994012902854E+02
             -0.561253609360125E+02
             -0.419115276894237E+02
              0.511317922174031E+02
              0.384427855914874E+02
              0.515642767836170E+02
             -0.124341841655914E+01
              0.679223251461207E+01
              0.565966413820125E+02
              0.956135397323600E+02
             -0.298880822342012E+02
              0.320247449774761E+02
             -0.117003511029723E+02
             -0.409280883357004E+02
             -0.312082804982208E+02
             -0.298099042067873E+02
             -0.130438690765872E+02
             -0.520096155991756E+02
             -0.215823454475050E+02
             -0.140298838743719E+03
              0.366975461109633E+02
              0.204958185969148E+02
             -0.392139367478475E+01
             -0.377420245717593E+02
             -0.202810228932512E+02
             -0.523153301929176E+02
              0.150814346661487E+02
              0.814754186040583E+02
             -0.250990114338475E+02
             -0.161796850821735E+02
              0.236710370583148E+02
             -0.486215558991095E+02
              0.874764588842655E+02
              0.153321002480048E+02
              0.225705436483458E+02
              0.486678119758716E+02
              0.322336071104388E+01
              0.538162232577926E+02
              0.141762103974613E+02
             -0.106277626854928E+02
              0.722445782909938E+01
              0.827327378730615E+00
              0.722657142960416E+02
              0.100711500527353E+02
              0.119251165076501E+02
             -0.129549188133826E+02
              0.131678085961219E+02
             -0.904971560280544E+02
             -0.323368891465115E+02
             -0.454156471692243E+02
              0.481761491176102E+02
             -0.288836337928149E+02
             -0.654639037520298E+02
              0.534419303844601E+02
             -0.121088137814718E+02
              0.437269604841485E+02
             -0.892651711528606E+02
              0.230706931652349E+02
              0.853098393488625E+01
              0.579058200352802E+01
             -0.824436241745661E+01
             -0.899212646132310E+01
              0.476195262776287E+02
              0.198023314460409E+01
             -0.471617709658472E+02
             -0.174862375143604E+02
              0.275179587461434E+02
             -0.117171445602743E+03
             -0.923849818563052E+02
              0.395729196520040E+01
              0.116637684924355E+02
             -0.410072384960616E+02
             -0.388876070191873E+01
              0.111420254777407E+03
              0.304290738076197E+02
             -0.568021532685084E+02
              0.919266382423237E+01
             -0.956890640199904E+01
              0.104938140221320E+02
             -0.335379116750855E+02
              0.194019341374957E+02
              0.282976672201894E+02
             -0.292563702966135E+01
              0.107426311355100E+03
             -0.139986702725040E+02
             -0.313834656179954E+02
              0.140979584746271E+02
              0.463815656799665E+02
             -0.353676496425069E+02
             -0.316338587931266E+01
              0.958404928312002E+02
             -0.463768235045438E+01
              0.618112404746494E+02
              0.134375902903532E+02
             -0.895984182129220E+01
             -0.304159337570296E+02
              0.563147139025754E+02
             -0.510241712252996E+02
             -0.219603905111501E+01
             -0.168776236815806E+02
             -0.402512434433329E+02
              0.184171077808950E+02
              0.237743893304554E+02
              0.116027041595064E+02
              0.737627838379694E+00
             -0.381745298288193E+02
              0.214165834745724E+02
             -0.673825968612491E+01
             -0.244918031072250E+02
             -0.209198358034667E+02
              0.202036031209237E+02
             -0.597018189135122E+01
             -0.346642909904683E+02
             -0.105924167254938E+03
              0.102486321485933E+02
              0.247645278743623E+02
             -0.384102472380891E+02
             -0.209396805238126E+02
              0.801612242911688E+02
              0.644099951474436E+01
              0.307907095524930E+02
              0.383956722423676E+01
              0.319195134741240E+02
              0.645085540404011E+01
             -0.370253906338717E+02
             -0.227024159472802E+01
              0.872156148282954E+01
              0.271815034460246E+02
              0.776702483613816E+02
              0.504163436537513E+02
              0.162593026209549E+00
              0.168473111753876E+02
              0.609226017543359E+02
              0.234026005524877E+02
             -0.748156988994826E+02
             -0.271920666199538E+02
              0.150290475140068E+02
              0.555278896863774E+01
              0.253249407726393E+02
             -0.544349204607024E+02
              0.893958931150371E+01
              0.383298446584524E+02
              0.494715341635848E+02
             -0.431997236785871E+02
             -0.691242543864934E+01
             -0.205728889476950E+01
             -0.132410327558885E+02
             -0.363635291875401E+02
             -0.214340042267328E+02
             -0.196702811276654E+01
              0.786327308047464E+01
              0.418591943371032E+02
             -0.306025803907152E+02
              0.820847721994944E+02
              0.325104626751054E+02
              0.218074214588507E+02
              0.330741615314658E+02
              0.321375180692493E+02
              0.344014235628457E+02
              0.533473255031571E+02
             -0.430765611385595E+02
              0.615463929272638E+02
             -0.111522662577079E+03
              0.305263053460355E+02
             -0.105824940393839E+03
              0.849262990972869E+02
              0.685484294352525E+02
             -0.109271547157895E+02
             -0.490086494190082E+02
             -0.426807991043273E+02
             -0.619860691042371E+02
             -0.624436063155169E+02
              0.548198605744785E+02
              0.402608595197281E+02
              0.235135543686914E+02
              0.372002790432201E+02
              0.400264361401112E+02
             -0.379465618141272E+02
             -0.196846048240066E+02
              0.583037399970392E+02
             -0.115324530181464E+02
              0.548564182237565E+02
              0.694334656787955E+02
             -0.552767560809200E+01
             -0.701363319528452E+02
             -0.911081492768290E+00
             -0.248298422516666E+01
             -0.875226856192683E+01
             -0.182826518332683E+01
             -0.648690106347960E+02
             -0.209962128454203E+02
              0.531612139298964E+01
              0.891572255745919E+01
              0.465604741143110E+02
             -0.394953413660251E+02
              0.653850959304614E+02
             -0.422720315542374E+02
              0.208691838862572E+02
              0.347502663071188E+02
 
 BEEF-vdW xc energy contributions
           1 :   -778.065208608794     
           2 :    715.047985675698     
           3 :   -605.844149587463     
           4 :    477.133878104236     
           5 :   -356.143147208849     
           6 :    262.580690411235     
           7 :   -204.114594754460     
           8 :    176.310366186516     
           9 :   -166.604491042235     
          10 :    160.415818399993     
          11 :   -146.911012337008     
          12 :    122.250752579383     
          13 :   -89.4667825192101     
          14 :    55.5846009972615     
          15 :   -27.6477835497130     
          16 :    9.44245600152612     
          17 :  -0.198923790098434     
          18 :   -4.46402745497915     
          19 :    10.0551233230560     
          20 :   -20.4974554473968     
          21 :    36.4294650895046     
          22 :   -55.1943945166984     
          23 :    72.3590787874316     
          24 :   -83.9312387430246     
          25 :    88.1831902431065     
          26 :   -86.2753198787083     
          27 :    81.4881187668410     
          28 :   -77.5326347673928     
          29 :    76.7902505076014     
          30 :   -79.3115177350008     
          31 :   -85.2453489548758     
          32 :   -65.3836001609181     

     Writing output data file ./pwscf.save/
 
     init_run     :    315.94s CPU    320.14s WALL (       1 calls)
     electrons    :  12648.28s CPU  12773.39s WALL (       1 calls)
     forces       :     95.68s CPU     96.85s WALL (       1 calls)

     Called by init_run:
     wfcinit      :    269.24s CPU    272.50s WALL (       1 calls)
     potinit      :     43.90s CPU     44.22s WALL (       1 calls)
     hinit0       :      1.09s CPU      1.12s WALL (       1 calls)

     Called by electrons:
     c_bands      :  10530.70s CPU  10628.44s WALL (      21 calls)
     sum_band     :   1507.07s CPU   1519.20s WALL (      21 calls)
     v_of_rho     :    106.12s CPU    110.41s WALL (      21 calls)
     newd         :     30.22s CPU     41.30s WALL (      21 calls)
     PAW_pot      :    138.80s CPU    138.80s WALL (      21 calls)
     mix_rho      :    379.93s CPU    380.59s WALL (      21 calls)
     vdW_kernel   :     33.46s CPU     33.47s WALL (       1 calls)

     Called by c_bands:
     init_us_2    :     77.85s CPU     78.04s WALL (     572 calls)
     cegterg      :   9713.28s CPU   9810.74s WALL (     273 calls)

     Called by *egterg:
     cdiaghg      :     94.78s CPU     94.82s WALL (    1411 calls)
     h_psi        :   6198.40s CPU   6232.41s WALL (    1437 calls)
     s_psi        :   1041.52s CPU   1041.60s WALL (    1437 calls)
     g_psi        :     15.84s CPU     15.85s WALL (    1151 calls)

     Called by h_psi:
     h_psi:calbec :    976.03s CPU    976.21s WALL (    1437 calls)
     vloc_psi     :   4154.44s CPU   4156.00s WALL (    1437 calls)
     add_vuspsi   :   1042.70s CPU   1042.79s WALL (    1437 calls)

     General routines
     calbec       :   1448.42s CPU   1448.63s WALL (    1762 calls)
     fft          :     46.99s CPU     47.02s WALL (    3281 calls)
     ffts         :    118.70s CPU    118.74s WALL (    8848 calls)
     fftw         :   4242.70s CPU   4243.81s WALL (  339118 calls)
 
     Parallel routines
 
     PWSCF        :      3h39m CPU      3h41m WALL

 
   This run was terminated on:   2: 8:28   4Jan2023            

=------------------------------------------------------------------------------=
   JOB DONE.
=------------------------------------------------------------------------------=
