
     Program PWSCF v.6.7MaX starts on  4Jan2023 at 10:33: 8 

     This program is part of the open-source Quantum ESPRESSO suite
     for quantum simulation of materials; please cite
         "P. Giannozzi et al., J. Phys.:Condens. Matter 21 395502 (2009);
         "P. Giannozzi et al., J. Phys.:Condens. Matter 29 465901 (2017);
          URL http://www.quantum-espresso.org", 
     in publications or presentations arising from this work. More details at
     http://www.quantum-espresso.org/quote

     Parallel version (MPI), running on     1 processors

     MPI processes distributed on     1 nodes
     Reading input from cch2c-bi-ensemble.in
Warning: card &CELL ignored
Warning: card / ignored

     Current dimensions of program PWSCF are:
     Max number of different atomic species (ntypx) = 10
     Max number of k-points (npk) =  40000
     Max angular momentum in pseudopotentials (lmaxx) =  3
     file Pt.pbe-n-kjpaw_psl.1.0.0.UPF: wavefunction(s)  6S 5D renormalized
     file C.pbe-n-kjpaw_psl.1.0.0.UPF: wavefunction(s)  2S 2P renormalized
     file H.pbe-kjpaw_psl.1.0.0.UPF: wavefunction(s)  1S renormalized

     **************************************************************************
     Initializing libbeef V0.1.2 with the BEEF-vdW functional.
     Citation: Wellendorff et al., PRB 85, 235149 (2012).
     **************************************************************************


     IMPORTANT: XC functional enforced from input :
     Exchange-correlation= BEEF-VDW
                           (   1   4  43  14   2   0   0)
     Any further DFT definition will be discarded
     Please, verify this is what you really want


     Subspace diagonalization in iterative solution of the eigenvalue problem:
     a serial algorithm will be used

 
     G-vector sticks info
     --------------------
     sticks:   dense  smooth     PW     G-vecs:    dense   smooth      PW
     Sum        4267    4267   1159               712985   712985  100445
 


     bravais-lattice index     =            0
     lattice parameter (alat)  =      16.0349  a.u.
     unit-cell volume          =   11351.0048 (a.u.)^3
     number of atoms/cell      =           41
     number of atomic types    =            3
     number of electrons       =       374.00
     number of Kohn-Sham states=          224
     kinetic-energy cutoff     =      60.0000  Ry
     charge density cutoff     =     240.0000  Ry
     scf convergence threshold =      1.0E-06
     mixing beta               =       0.7000
     number of iterations used =            8  local-TF  mixing
     Exchange-correlation= BEEF-VDW
                           (   1   4  43  14   2   0   0)

     celldm(1)=  16.034858  celldm(2)=   0.000000  celldm(3)=   0.000000
     celldm(4)=   0.000000  celldm(5)=   0.000000  celldm(6)=   0.000000

     crystal axes: (cart. coord. in units of alat)
               a(1) = (   1.000000   0.000000   0.000000 )  
               a(2) = (   0.500000   0.866025   0.000000 )  
               a(3) = (   0.000000   0.000000   3.179130 )  

     reciprocal axes: (cart. coord. in units 2 pi/alat)
               b(1) = (  1.000000 -0.577350  0.000000 )  
               b(2) = (  0.000000  1.154701  0.000000 )  
               b(3) = (  0.000000  0.000000  0.314551 )  


     PseudoPot. # 1 for Pt read from file:
     /users/bkreitz1/quantum-espresso/potentials/Pt.pbe-n-kjpaw_psl.1.0.0.UPF
     MD5 check sum: 04dc8a03c51ece93fc7b5889c2958091
     Pseudo is Projector augmented-wave + core cor, Zval = 10.0
     Generated using 'atomic' code by A. Dal Corso  v.6.7MaX
     Shape of augmentation charge: PSQ
     Using radial grid of 1277 points,  6 beta functions with: 
                l(1) =   0
                l(2) =   0
                l(3) =   1
                l(4) =   1
                l(5) =   2
                l(6) =   2
     Q(r) pseudized with 0 coefficients 


     PseudoPot. # 2 for C  read from file:
     /users/bkreitz1/quantum-espresso/potentials/C.pbe-n-kjpaw_psl.1.0.0.UPF
     MD5 check sum: a169b0ebad56f5ec0d79c4633f80bf22
     Pseudo is Projector augmented-wave + core cor, Zval =  4.0
     Generated using 'atomic' code by A. Dal Corso  v.6.7MaX
     Shape of augmentation charge: PSQ
     Using radial grid of 1073 points,  4 beta functions with: 
                l(1) =   0
                l(2) =   0
                l(3) =   1
                l(4) =   1
     Q(r) pseudized with 0 coefficients 


     PseudoPot. # 3 for H  read from file:
     /users/bkreitz1/quantum-espresso/potentials/H.pbe-kjpaw_psl.1.0.0.UPF
     MD5 check sum: ae98473e6dc62675f0d0baffdab24f65
     Pseudo is Projector augmented-wave, Zval =  1.0
     Generated using 'atomic' code by A. Dal Corso  v.6.7MaX
     Shape of augmentation charge: PSQ
     Using radial grid of  929 points,  2 beta functions with: 
                l(1) =   0
                l(2) =   0
     Q(r) pseudized with 0 coefficients 


     atomic species   valence    mass     pseudopotential
        Pt            10.00   195.08400     Pt( 1.00)
        C              4.00    12.01100     C ( 1.00)
        H              1.00     1.00800     H ( 1.00)

     No symmetry found



   Cartesian axes

     site n.     atom                  positions (alat units)
         1           Pt  tau(   1) = (   0.0000000   0.0000000   1.0017346  )
         2           Pt  tau(   2) = (   0.3333333   0.0000000   1.0017346  )
         3           Pt  tau(   3) = (   0.6666667   0.0000000   1.0017346  )
         4           Pt  tau(   4) = (   0.1666667   0.2886751   1.0017346  )
         5           Pt  tau(   5) = (   0.5000000   0.2886751   1.0017346  )
         6           Pt  tau(   6) = (   0.8333333   0.2886751   1.0017346  )
         7           Pt  tau(   7) = (   0.3333333   0.5773503   1.0017346  )
         8           Pt  tau(   8) = (   0.6666667   0.5773503   1.0017346  )
         9           Pt  tau(   9) = (   1.0000000   0.5773503   1.0017346  )
        10           Pt  tau(  10) = (   0.1666667   0.0962250   1.2739001  )
        11           Pt  tau(  11) = (   0.5000000   0.0962250   1.2739001  )
        12           Pt  tau(  12) = (   0.8333333   0.0962250   1.2739001  )
        13           Pt  tau(  13) = (   0.3333333   0.3849002   1.2739001  )
        14           Pt  tau(  14) = (   0.6666667   0.3849002   1.2739001  )
        15           Pt  tau(  15) = (   1.0000000   0.3849002   1.2739001  )
        16           Pt  tau(  16) = (   0.5000000   0.6735753   1.2739001  )
        17           Pt  tau(  17) = (   0.8333333   0.6735753   1.2739001  )
        18           Pt  tau(  18) = (   1.1666667   0.6735753   1.2739001  )
        19           Pt  tau(  19) = (  -0.0001676   0.1938868   1.5465014  )
        20           Pt  tau(  20) = (   0.3402306   0.1870408   1.5601101  )
        21           Pt  tau(  21) = (   0.6658186   0.1913603   1.5490974  )
        22           Pt  tau(  22) = (   0.1642438   0.4790040   1.5468325  )
        23           Pt  tau(  23) = (   0.4958044   0.4748119   1.5420305  )
        24           Pt  tau(  24) = (   0.8341827   0.4795271   1.5409838  )
        25           Pt  tau(  25) = (   0.3329817   0.7687525   1.5425922  )
        26           Pt  tau(  26) = (   0.6690754   0.7748553   1.5423319  )
        27           Pt  tau(  27) = (   0.9993094   0.7689427   1.5496381  )
        28           Pt  tau(  28) = (  -0.0042787   0.0022900   1.8160586  )
        29           Pt  tau(  29) = (   0.3318298  -0.0069824   1.8693568  )
        30           Pt  tau(  30) = (   0.6671528  -0.0031899   1.8196116  )
        31           Pt  tau(  31) = (   0.1746098   0.2809652   1.8219644  )
        32           Pt  tau(  32) = (   0.5012123   0.2881412   1.8665318  )
        33           Pt  tau(  33) = (   0.8379077   0.2843966   1.8305386  )
        34           Pt  tau(  34) = (   0.3273749   0.5759675   1.8161028  )
        35           Pt  tau(  35) = (   0.6526630   0.5831021   1.7997993  )
        36           Pt  tau(  36) = (   1.0041186   0.5708480   1.8324898  )
        37           C   tau(  37) = (   0.6880201   0.4043171   1.9642509  )
        38           C   tau(  38) = (   0.7540847   0.5206840   2.0892405  )
        39           C   tau(  39) = (   0.8238109   0.6371978   1.9658064  )
        40           H   tau(  40) = (   0.6600608   0.5752413   2.1585752  )
        41           H   tau(  41) = (   0.8421686   0.4689590   2.1692990  )

     number of k points=    13  Marzari-Vanderbilt smearing, width (Ry)=  0.0200
                       cart. coord. in units 2pi/alat
        k(    1) = (   0.0000000   0.0000000   0.0000000), wk =   0.0800000
        k(    2) = (   0.0000000   0.2309401   0.0000000), wk =   0.1600000
        k(    3) = (   0.0000000   0.4618802   0.0000000), wk =   0.1600000
        k(    4) = (   0.2000000  -0.1154701   0.0000000), wk =   0.1600000
        k(    5) = (   0.2000000   0.1154701   0.0000000), wk =   0.1600000
        k(    6) = (   0.2000000   0.3464102   0.0000000), wk =   0.1600000
        k(    7) = (   0.2000000  -0.5773503   0.0000000), wk =   0.1600000
        k(    8) = (   0.2000000  -0.3464102   0.0000000), wk =   0.1600000
        k(    9) = (   0.4000000  -0.2309401   0.0000000), wk =   0.1600000
        k(   10) = (   0.4000000  -0.0000000   0.0000000), wk =   0.1600000
        k(   11) = (   0.4000000   0.2309401   0.0000000), wk =   0.1600000
        k(   12) = (   0.4000000  -0.6928203   0.0000000), wk =   0.1600000
        k(   13) = (   0.4000000  -0.4618802   0.0000000), wk =   0.1600000

     Dense  grid:   712985 G-vectors     FFT dimensions: (  80,  80, 256)

     Estimated max dynamical RAM per process >       8.61 GB

     Check: negative core charge=   -0.000002

     Initial potential from superposition of free atoms

     starting charge  373.99375, renormalised to  374.00000

     negative rho (up, down):  1.176E-02 0.000E+00


     %%%%%%%%%%%%%%%%%%%%%%%%%%%%%%%%%%%%%%%%%%%%%%%%%%%%%%%%%%%%%%%%%%%%%%%%
     %                                                                      %
     % You are using vdW-DF, which was implemented by the Thonhauser group. %
     % Please cite the following two papers that made this development      %
     % possible and the two reviews that describe the various versions:     %
     %                                                                      %
     %   T. Thonhauser et al., PRL 115, 136402 (2015).                      %
     %   T. Thonhauser et al., PRB 76, 125112 (2007).                       %
     %   K. Berland et al., Rep. Prog. Phys. 78, 066501 (2015).             %
     %   D.C. Langreth et al., J. Phys.: Condens. Matter 21, 084203 (2009). %
     %                                                                      %
     %                                                                      %
     % If you are calculating the stress with vdW-DF, please also cite:     %
     %                                                                      %
     %   R. Sabatini et al., J. Phys.: Condens. Matter 24, 424209 (2012).   %
     %                                                                      %
     %%%%%%%%%%%%%%%%%%%%%%%%%%%%%%%%%%%%%%%%%%%%%%%%%%%%%%%%%%%%%%%%%%%%%%%%


     Starting wfcs are  338 randomized atomic wfcs
     Checking if some PAW data can be deallocated... 

     total cpu time spent up to now is      338.1 secs

     Self-consistent Calculation

     iteration #  1     ecut=    60.00 Ry     beta= 0.70
     Davidson diagonalization with overlap
     ethr =  1.00E-02,  avg # of iterations =  2.0

     Threshold (ethr) on eigenvalues was too large:
     Diagonalizing with lowered threshold

     Davidson diagonalization with overlap
     ethr =  7.79E-04,  avg # of iterations =  2.8

     negative rho (up, down):  1.297E-02 0.000E+00

     total cpu time spent up to now is     1639.3 secs

     total energy              =  -27813.17901539 Ry
     estimated scf accuracy    <       3.23009112 Ry

     iteration #  2     ecut=    60.00 Ry     beta= 0.70
     Davidson diagonalization with overlap
     ethr =  8.64E-04,  avg # of iterations =  2.0

     negative rho (up, down):  1.097E-02 0.000E+00

     total cpu time spent up to now is     2224.1 secs

     total energy              =  -27813.43689052 Ry
     estimated scf accuracy    <       1.30809935 Ry

     iteration #  3     ecut=    60.00 Ry     beta= 0.70
     Davidson diagonalization with overlap
     ethr =  3.50E-04,  avg # of iterations =  3.7

     negative rho (up, down):  8.854E-03 0.000E+00

     total cpu time spent up to now is     2819.1 secs

     total energy              =  -27813.50892861 Ry
     estimated scf accuracy    <       0.57762838 Ry

     iteration #  4     ecut=    60.00 Ry     beta= 0.70
     Davidson diagonalization with overlap
     c_bands:  1 eigenvalues not converged
     c_bands:  1 eigenvalues not converged
     ethr =  1.54E-04,  avg # of iterations =  9.6

     negative rho (up, down):  6.642E-03 0.000E+00

     total cpu time spent up to now is     3504.3 secs

     total energy              =  -27813.54913701 Ry
     estimated scf accuracy    <       0.10492566 Ry

     iteration #  5     ecut=    60.00 Ry     beta= 0.70
     Davidson diagonalization with overlap
     c_bands:  2 eigenvalues not converged
     ethr =  2.81E-05,  avg # of iterations = 11.6

     negative rho (up, down):  5.266E-03 0.000E+00

     total cpu time spent up to now is     4441.2 secs

     total energy              =  -27813.57768416 Ry
     estimated scf accuracy    <       0.07337853 Ry

     iteration #  6     ecut=    60.00 Ry     beta= 0.70
     Davidson diagonalization with overlap
     ethr =  1.96E-05,  avg # of iterations =  1.7

     negative rho (up, down):  4.383E-03 0.000E+00

     total cpu time spent up to now is     5013.5 secs

     total energy              =  -27813.57994404 Ry
     estimated scf accuracy    <       0.00843277 Ry

     iteration #  7     ecut=    60.00 Ry     beta= 0.70
     Davidson diagonalization with overlap
     c_bands:  4 eigenvalues not converged
     c_bands:  1 eigenvalues not converged
     c_bands:  1 eigenvalues not converged
     c_bands:  3 eigenvalues not converged
     c_bands:  1 eigenvalues not converged
     c_bands:  1 eigenvalues not converged
     ethr =  2.25E-06,  avg # of iterations = 16.0

     negative rho (up, down):  4.065E-03 0.000E+00

     total cpu time spent up to now is     5933.7 secs

     total energy              =  -27813.58137282 Ry
     estimated scf accuracy    <       0.00481396 Ry

     iteration #  8     ecut=    60.00 Ry     beta= 0.70
     Davidson diagonalization with overlap
     c_bands:  1 eigenvalues not converged
     ethr =  1.29E-06,  avg # of iterations =  5.0

     negative rho (up, down):  4.088E-03 0.000E+00

     total cpu time spent up to now is     6550.8 secs

     total energy              =  -27813.58180181 Ry
     estimated scf accuracy    <       0.00161571 Ry

     iteration #  9     ecut=    60.00 Ry     beta= 0.70
     Davidson diagonalization with overlap
     ethr =  4.32E-07,  avg # of iterations =  3.5

     negative rho (up, down):  4.527E-03 0.000E+00

     total cpu time spent up to now is     7164.1 secs

     total energy              =  -27813.58195537 Ry
     estimated scf accuracy    <       0.00103934 Ry

     iteration # 10     ecut=    60.00 Ry     beta= 0.70
     Davidson diagonalization with overlap
     ethr =  2.78E-07,  avg # of iterations =  3.8

     negative rho (up, down):  5.497E-03 0.000E+00

     total cpu time spent up to now is     7761.2 secs

     total energy              =  -27813.58201918 Ry
     estimated scf accuracy    <       0.00095262 Ry

     iteration # 11     ecut=    60.00 Ry     beta= 0.70
     Davidson diagonalization with overlap
     c_bands:  1 eigenvalues not converged
     ethr =  2.55E-07,  avg # of iterations =  5.5

     negative rho (up, down):  7.269E-03 0.000E+00

     total cpu time spent up to now is     8369.1 secs

     total energy              =  -27813.58202365 Ry
     estimated scf accuracy    <       0.00066877 Ry

     iteration # 12     ecut=    60.00 Ry     beta= 0.70
     Davidson diagonalization with overlap
     ethr =  1.79E-07,  avg # of iterations =  2.0

     negative rho (up, down):  8.453E-03 0.000E+00

     total cpu time spent up to now is     8924.1 secs

     total energy              =  -27813.58201215 Ry
     estimated scf accuracy    <       0.00046776 Ry

     iteration # 13     ecut=    60.00 Ry     beta= 0.70
     Davidson diagonalization with overlap
     ethr =  1.25E-07,  avg # of iterations =  1.2

     negative rho (up, down):  1.133E-02 0.000E+00

     total cpu time spent up to now is     9462.4 secs

     total energy              =  -27813.58201626 Ry
     estimated scf accuracy    <       0.00016284 Ry

     iteration # 14     ecut=    60.00 Ry     beta= 0.70
     Davidson diagonalization with overlap
     ethr =  4.35E-08,  avg # of iterations =  2.9

     negative rho (up, down):  1.123E-02 0.000E+00

     total cpu time spent up to now is    10087.7 secs

     total energy              =  -27813.58204307 Ry
     estimated scf accuracy    <       0.00004178 Ry

     iteration # 15     ecut=    60.00 Ry     beta= 0.70
     Davidson diagonalization with overlap
     ethr =  1.12E-08,  avg # of iterations =  4.2

     negative rho (up, down):  1.234E-02 0.000E+00

     total cpu time spent up to now is    10819.6 secs

     total energy              =  -27813.58205183 Ry
     estimated scf accuracy    <       0.00001854 Ry

     iteration # 16     ecut=    60.00 Ry     beta= 0.70
     Davidson diagonalization with overlap
     ethr =  4.96E-09,  avg # of iterations =  2.7

     negative rho (up, down):  1.225E-02 0.000E+00

     total cpu time spent up to now is    11494.7 secs

     total energy              =  -27813.58205528 Ry
     estimated scf accuracy    <       0.00000579 Ry

     iteration # 17     ecut=    60.00 Ry     beta= 0.70
     Davidson diagonalization with overlap
     ethr =  1.55E-09,  avg # of iterations =  4.3

     negative rho (up, down):  1.242E-02 0.000E+00

     total cpu time spent up to now is    12232.9 secs

     total energy              =  -27813.58205575 Ry
     estimated scf accuracy    <       0.00000255 Ry

     iteration # 18     ecut=    60.00 Ry     beta= 0.70
     Davidson diagonalization with overlap
     ethr =  6.81E-10,  avg # of iterations =  3.0

     negative rho (up, down):  1.274E-02 0.000E+00

     total cpu time spent up to now is    12870.5 secs

     total energy              =  -27813.58205520 Ry
     estimated scf accuracy    <       0.00000338 Ry

     iteration # 19     ecut=    60.00 Ry     beta= 0.70
     Davidson diagonalization with overlap
     ethr =  6.81E-10,  avg # of iterations =  1.1

     negative rho (up, down):  1.300E-02 0.000E+00

     total cpu time spent up to now is    13387.6 secs

     End of self-consistent calculation

          k = 0.0000 0.0000 0.0000 ( 89081 PWs)   bands (ev):

   -13.9297  -9.6942  -8.6745  -6.6793  -5.6378  -5.3613  -5.2449  -4.5260
    -4.3840  -4.3593  -4.3269  -4.3240  -4.3204  -4.2510  -4.2352  -4.1312
    -3.8524  -3.8425  -3.7777  -3.7664  -3.7575  -3.7223  -3.5202  -3.5029
    -3.4369  -3.3978  -3.3363  -3.1818  -3.1529  -3.1431  -3.1272  -3.1148
    -3.1078  -3.0675  -3.0027  -2.9732  -2.9697  -2.9273  -2.9200  -2.8403
    -2.8070  -2.7924  -2.7621  -2.7410  -2.7025  -2.5956  -2.3893  -2.3822
    -2.3412  -2.2709  -2.2440  -2.2406  -2.1807  -2.1581  -2.1452  -2.1278
    -2.1103  -2.0429  -2.0138  -2.0002  -1.9350  -1.9194  -1.6876  -1.6296
    -1.5890  -1.5697  -1.5516  -1.4891  -1.4493  -1.4411  -1.3860  -1.3479
    -1.3251  -1.3242  -1.2760  -1.2554  -1.2421  -1.2337  -1.2166  -1.1998
    -1.1740  -1.1701  -1.1613  -1.1419  -1.1374  -1.1307  -1.1062  -1.0881
    -1.0587  -1.0487  -0.9773  -0.9220  -0.8771  -0.8485  -0.8075  -0.8058
    -0.7709  -0.7599  -0.7378  -0.7124  -0.6584  -0.6554  -0.6405  -0.6321
    -0.5989  -0.5974  -0.5926  -0.5079  -0.4861  -0.4449  -0.4398  -0.4078
    -0.3669  -0.3488  -0.3429  -0.3067  -0.2191  -0.0893  -0.0760   0.0042
     0.0529   0.0807   0.1538   0.1910   0.2167   0.2494   0.2541   0.2592
     0.2634   0.2886   0.2966   0.3125   0.3211   0.3954   0.4968   0.5314
     0.5355   0.5375   0.5663   0.5736   0.7045   0.7148   0.7500   0.7558
     0.8081   0.8254   0.8372   0.8626   0.8700   0.9145   0.9265   1.0139
     1.0331   1.0377   1.0681   1.0935   1.1299   1.1426   1.1501   1.1724
     1.1854   1.1872   1.2131   1.2361   1.2723   1.2742   1.2929   1.2945
     1.3032   1.3296   1.3404   1.3689   1.4042   1.4091   1.4587   1.4634
     1.4750   1.5037   1.5332   1.5602   1.5647   1.5773   1.5925   1.6045
     1.6225   1.6384   1.6522   1.6659   1.7005   1.7268   1.7829   1.7861
     1.8796   1.8996   1.9323   1.9788   1.9893   2.0086   2.0374   2.0608
     2.3006   2.4144   2.4375   2.5949   2.6871   2.8524   2.9196   3.5741
     3.7991   3.9286   4.2919   4.8881   5.0976   5.2712   5.3593   5.3899
     5.8664   6.1225   6.4164   6.7399   6.7956   6.9368   6.9586   6.9731

          k = 0.0000 0.2309 0.0000 ( 89052 PWs)   bands (ev):

   -13.9287  -9.7082  -8.6532  -6.5386  -5.5583  -5.3544  -5.1363  -4.8213
    -4.5105  -4.4125  -4.3922  -4.2372  -4.1668  -4.1025  -4.0672  -4.0296
    -3.9139  -3.8473  -3.8027  -3.7153  -3.6951  -3.6733  -3.5378  -3.4310
    -3.3799  -3.3540  -3.3160  -3.2507  -3.2041  -3.1841  -3.1663  -3.1015
    -3.0664  -3.0446  -3.0134  -2.9787  -2.9619  -2.9287  -2.8925  -2.8809
    -2.8090  -2.7753  -2.6867  -2.6518  -2.6101  -2.5474  -2.4483  -2.4110
    -2.3638  -2.3567  -2.3302  -2.3105  -2.2562  -2.2195  -2.1717  -2.1200
    -2.0866  -2.0444  -2.0198  -1.9700  -1.9186  -1.8668  -1.7661  -1.7000
    -1.6722  -1.6355  -1.6151  -1.5858  -1.5559  -1.5431  -1.4988  -1.4916
    -1.4576  -1.4199  -1.3874  -1.3475  -1.3155  -1.3030  -1.2847  -1.2366
    -1.2164  -1.1766  -1.1539  -1.1363  -1.0931  -1.0715  -1.0576  -1.0459
    -1.0220  -0.9874  -0.9567  -0.9325  -0.8826  -0.8679  -0.8475  -0.8187
    -0.8128  -0.7873  -0.7575  -0.7309  -0.7179  -0.7042  -0.6762  -0.6713
    -0.6450  -0.6282  -0.5841  -0.5541  -0.5249  -0.4657  -0.4435  -0.4264
    -0.4066  -0.3904  -0.3596  -0.3544  -0.3380  -0.2814  -0.2349  -0.1876
    -0.1397  -0.1032  -0.0120   0.0414   0.0565   0.0922   0.1377   0.2168
     0.2785   0.3012   0.3299   0.3449   0.3623   0.3949   0.4139   0.4218
     0.4558   0.4680   0.4965   0.5464   0.6161   0.6477   0.6675   0.6975
     0.7211   0.7550   0.7926   0.8227   0.8413   0.8607   0.8829   0.8998
     0.9495   0.9775   1.0055   1.0393   1.0684   1.0767   1.1191   1.1508
     1.1953   1.2098   1.2441   1.2459   1.2743   1.2949   1.3157   1.3715
     1.4308   1.4659   1.4994   1.5209   1.5360   1.5592   1.5877   1.5968
     1.6180   1.6417   1.6769   1.7145   1.7293   1.7433   1.7596   1.8130
     1.8372   1.8709   1.8842   1.9178   1.9491   1.9711   1.9854   2.0100
     2.0273   2.0454   2.0999   2.1434   2.1672   2.2115   2.2663   2.3298
     2.3440   2.4546   2.6048   2.7568   2.9851   3.2677   3.4616   3.6989
     3.8098   4.0453   4.1251   4.8360   5.0468   5.3131   5.3811   5.6531
     5.8601   5.9081   6.1167   6.2389   6.3771   6.7156   6.8389   6.8754

          k = 0.0000 0.4619 0.0000 ( 89094 PWs)   bands (ev):

   -13.9271  -9.7298  -8.6199  -6.1332  -5.5560  -5.3899  -5.2773  -4.8369
    -4.5376  -4.4607  -4.4331  -4.3030  -4.0741  -3.9701  -3.8698  -3.8503
    -3.8104  -3.7286  -3.7126  -3.6071  -3.5799  -3.5264  -3.4977  -3.4625
    -3.4346  -3.3431  -3.3320  -3.3178  -3.2817  -3.2623  -3.2116  -3.1612
    -3.1329  -3.0919  -3.0364  -2.9479  -2.9212  -2.8787  -2.8565  -2.7808
    -2.7366  -2.6934  -2.6680  -2.6517  -2.6232  -2.5336  -2.4721  -2.4587
    -2.4414  -2.3671  -2.3357  -2.2953  -2.2663  -2.2477  -2.1956  -2.1827
    -2.1561  -2.0879  -2.0658  -2.0313  -1.9849  -1.9731  -1.9045  -1.8545
    -1.8009  -1.7878  -1.7629  -1.7311  -1.6955  -1.6334  -1.6019  -1.5728
    -1.5489  -1.5069  -1.4685  -1.4384  -1.4259  -1.3741  -1.3271  -1.2903
    -1.2647  -1.2427  -1.2106  -1.1873  -1.1587  -1.1244  -1.1126  -1.0862
    -1.0616  -1.0539  -1.0169  -0.9980  -0.9691  -0.9402  -0.8933  -0.8752
    -0.8432  -0.8299  -0.8169  -0.7940  -0.7634  -0.7479  -0.7092  -0.7014
    -0.6676  -0.6357  -0.6092  -0.5754  -0.5431  -0.5100  -0.4916  -0.4479
    -0.4247  -0.3836  -0.3690  -0.3445  -0.3087  -0.2576  -0.2009  -0.1744
    -0.1453  -0.1080  -0.0593  -0.0383   0.0122   0.0247   0.0416   0.0707
     0.0997   0.1285   0.1569   0.1693   0.1964   0.2581   0.2728   0.3024
     0.3500   0.3881   0.4065   0.4657   0.4825   0.5676   0.6256   0.6453
     0.6617   0.7156   0.7561   0.7954   0.8131   0.8405   0.8812   0.8989
     0.9103   0.9521   0.9631   0.9835   1.0056   1.0312   1.0874   1.1454
     1.1626   1.1863   1.2061   1.2692   1.3158   1.3364   1.3629   1.4505
     1.4721   1.5138   1.5560   1.5950   1.6010   1.6291   1.6305   1.6827
     1.7163   1.7384   1.7598   1.8168   1.8490   1.8653   1.8889   1.9248
     1.9406   1.9564   2.0221   2.0678   2.1513   2.1772   2.1859   2.1976
     2.2329   2.2978   2.4376   2.4686   2.5352   2.6751   2.8953   3.1348
     3.2382   3.2860   3.4016   3.4932   3.7317   3.8086   3.9072   4.1101
     4.2791   4.3573   4.4996   4.6211   4.6846   4.7307   5.0330   5.1464
     5.3908   5.4971   5.6446   5.9402   6.2046   6.2620   6.5485   6.7179

          k = 0.2000-0.1155 0.0000 ( 89052 PWs)   bands (ev):

   -13.9293  -9.6933  -8.6628  -6.5426  -5.5879  -5.4044  -5.1219  -4.7763
    -4.5188  -4.4248  -4.3759  -4.2387  -4.1637  -4.1124  -4.0422  -4.0265
    -3.8971  -3.8552  -3.8012  -3.7252  -3.7028  -3.6855  -3.4499  -3.4399
    -3.4000  -3.3389  -3.3075  -3.2863  -3.2123  -3.1850  -3.1618  -3.0719
    -3.0609  -3.0566  -2.9969  -2.9878  -2.9601  -2.9358  -2.9314  -2.8700
    -2.8542  -2.7441  -2.7150  -2.6271  -2.6214  -2.5646  -2.4388  -2.3944
    -2.3711  -2.3644  -2.3444  -2.2836  -2.2752  -2.1963  -2.1540  -2.1199
    -2.1069  -2.0769  -2.0268  -1.9827  -1.9038  -1.8490  -1.7623  -1.7504
    -1.6880  -1.6461  -1.6188  -1.6047  -1.5779  -1.5210  -1.4997  -1.4911
    -1.4816  -1.4041  -1.3747  -1.3308  -1.3031  -1.2999  -1.2776  -1.2427
    -1.2342  -1.1765  -1.1392  -1.1328  -1.1217  -1.0665  -1.0516  -1.0384
    -1.0052  -0.9999  -0.9607  -0.9350  -0.9042  -0.8899  -0.8517  -0.8284
    -0.8031  -0.7674  -0.7502  -0.7421  -0.7203  -0.7105  -0.6800  -0.6681
    -0.6409  -0.6122  -0.5864  -0.5377  -0.5136  -0.4484  -0.4391  -0.4234
    -0.4197  -0.3595  -0.3536  -0.3314  -0.3145  -0.3090  -0.2616  -0.1802
    -0.0556  -0.0502   0.0172   0.0673   0.0764   0.1385   0.1642   0.2406
     0.2581   0.2862   0.3202   0.3222   0.3617   0.3841   0.3999   0.4387
     0.4895   0.5057   0.5139   0.5311   0.5789   0.6316   0.6692   0.6911
     0.6989   0.7405   0.7843   0.7905   0.8459   0.8650   0.8814   0.9221
     0.9365   0.9961   1.0338   1.0482   1.0785   1.1121   1.1418   1.1550
     1.1988   1.2057   1.2378   1.2578   1.2708   1.2979   1.3368   1.3663
     1.4311   1.4346   1.4811   1.5186   1.5444   1.5546   1.5632   1.5754
     1.6047   1.6237   1.6768   1.6823   1.7223   1.7529   1.7563   1.8339
     1.8419   1.8470   1.8832   1.9166   1.9595   1.9661   1.9823   1.9931
     2.0133   2.0266   2.0421   2.0929   2.1669   2.2076   2.2696   2.2813
     2.3729   2.5282   2.5422   2.9235   2.9542   3.0076   3.5316   3.7595
     3.7970   3.9301   4.3487   4.7851   4.8985   5.2202   5.5171   5.6228
     5.7854   5.8521   6.0686   6.2457   6.6082   6.6756   6.9354   7.0189

          k = 0.2000 0.1155 0.0000 ( 89052 PWs)   bands (ev):

   -13.9287  -9.7082  -8.6531  -6.5385  -5.5576  -5.3542  -5.1374  -4.8193
    -4.5116  -4.4127  -4.3933  -4.2371  -4.1669  -4.1014  -4.0673  -4.0322
    -3.9178  -3.8464  -3.7989  -3.7132  -3.6948  -3.6710  -3.5384  -3.4320
    -3.3806  -3.3514  -3.3180  -3.2506  -3.2050  -3.1837  -3.1673  -3.1004
    -3.0663  -3.0427  -3.0142  -2.9794  -2.9625  -2.9308  -2.8908  -2.8818
    -2.8087  -2.7758  -2.6867  -2.6545  -2.6106  -2.5468  -2.4466  -2.4107
    -2.3664  -2.3597  -2.3356  -2.3096  -2.2516  -2.2197  -2.1716  -2.1275
    -2.0858  -2.0474  -2.0187  -1.9690  -1.9153  -1.8687  -1.7663  -1.6995
    -1.6745  -1.6386  -1.6219  -1.5829  -1.5577  -1.5454  -1.5008  -1.4864
    -1.4504  -1.4216  -1.3827  -1.3471  -1.3166  -1.3024  -1.2844  -1.2343
    -1.2180  -1.1717  -1.1568  -1.1369  -1.0867  -1.0721  -1.0605  -1.0482
    -1.0233  -0.9875  -0.9542  -0.9262  -0.8886  -0.8713  -0.8499  -0.8214
    -0.8124  -0.7863  -0.7582  -0.7304  -0.7150  -0.7052  -0.6767  -0.6690
    -0.6432  -0.6290  -0.5804  -0.5546  -0.5214  -0.4629  -0.4439  -0.4251
    -0.4078  -0.3874  -0.3592  -0.3544  -0.3393  -0.2790  -0.2333  -0.1882
    -0.1401  -0.1074  -0.0096   0.0415   0.0597   0.0947   0.1367   0.2193
     0.2774   0.2995   0.3310   0.3461   0.3658   0.3945   0.4164   0.4229
     0.4577   0.4723   0.4874   0.5547   0.6162   0.6499   0.6669   0.6979
     0.7228   0.7583   0.7904   0.8254   0.8448   0.8573   0.8837   0.9034
     0.9448   0.9777   1.0053   1.0415   1.0664   1.0762   1.1204   1.1472
     1.1951   1.2100   1.2458   1.2470   1.2735   1.2947   1.3171   1.3689
     1.4281   1.4650   1.4997   1.5212   1.5359   1.5602   1.5868   1.5956
     1.6188   1.6398   1.6764   1.7142   1.7317   1.7422   1.7596   1.8129
     1.8368   1.8708   1.8852   1.9185   1.9506   1.9700   1.9836   2.0071
     2.0203   2.0435   2.0975   2.1450   2.1670   2.2139   2.2659   2.3290
     2.3427   2.4496   2.5955   2.7574   2.9875   3.2632   3.4627   3.7018
     3.8085   4.0460   4.1238   4.8344   5.0528   5.3056   5.3725   5.6596
     5.8622   5.9138   6.1141   6.2390   6.3788   6.7210   6.8405   6.8786

          k = 0.2000 0.3464 0.0000 ( 89060 PWs)   bands (ev):

   -13.9272  -9.7301  -8.6233  -6.2604  -5.4751  -5.2982  -5.0671  -5.0158
    -4.9252  -4.5134  -4.1483  -4.0139  -4.0091  -3.9709  -3.9620  -3.9431
    -3.8953  -3.8787  -3.8039  -3.7713  -3.6257  -3.4931  -3.4647  -3.4251
    -3.3988  -3.3541  -3.3112  -3.2821  -3.2569  -3.1858  -3.1454  -3.1237
    -3.1067  -3.0729  -3.0227  -3.0107  -2.9677  -2.9488  -2.9213  -2.8696
    -2.8300  -2.7178  -2.6471  -2.5843  -2.5599  -2.4911  -2.4641  -2.4405
    -2.4013  -2.3537  -2.3438  -2.2929  -2.2655  -2.2257  -2.1852  -2.1613
    -2.0916  -2.0518  -2.0351  -1.9973  -1.9907  -1.9737  -1.8836  -1.8203
    -1.8019  -1.7501  -1.7161  -1.6711  -1.6421  -1.6259  -1.6214  -1.5770
    -1.5443  -1.5180  -1.4703  -1.4372  -1.3862  -1.3742  -1.3404  -1.3131
    -1.2878  -1.2219  -1.2112  -1.1705  -1.1420  -1.1178  -1.0806  -1.0634
    -1.0317  -1.0179  -0.9972  -0.9570  -0.9506  -0.9307  -0.9011  -0.8790
    -0.8355  -0.8009  -0.7882  -0.7662  -0.7351  -0.7126  -0.6958  -0.6657
    -0.6498  -0.6299  -0.6230  -0.6096  -0.5670  -0.5597  -0.5290  -0.5180
    -0.4802  -0.4666  -0.4287  -0.3600  -0.3050  -0.2788  -0.1879  -0.1824
    -0.1581  -0.0997  -0.0708  -0.0329   0.0175   0.0354   0.0866   0.1154
     0.1355   0.1620   0.1882   0.2207   0.2600   0.2968   0.3208   0.3579
     0.3997   0.4267   0.4606   0.4746   0.5175   0.5544   0.5777   0.6392
     0.6446   0.6545   0.7283   0.7669   0.8132   0.8517   0.8806   0.8987
     0.9155   0.9455   0.9547   1.0126   1.0242   1.0331   1.0526   1.0999
     1.1140   1.2161   1.2213   1.2513   1.3115   1.3617   1.4573   1.5050
     1.5179   1.5378   1.5502   1.6009   1.6449   1.6778   1.6903   1.7056
     1.7611   1.7901   1.8023   1.8072   1.8182   1.8547   1.9039   1.9076
     1.9195   1.9892   1.9972   2.0475   2.0928   2.1216   2.1385   2.1663
     2.2165   2.2420   2.2936   2.3814   2.4317   2.4595   2.6652   2.8615
     2.9818   3.1330   3.2502   3.3633   3.5127   3.6226   3.7147   4.0096
     4.1926   4.2283   4.4891   4.5823   4.6254   5.1336   5.2014   5.4583
     5.7153   5.9188   6.0180   6.0737   6.3432   6.3840   6.4401   6.5016

          k = 0.2000-0.5774 0.0000 ( 89080 PWs)   bands (ev):

   -13.9269  -9.7292  -8.6141  -5.7824  -5.7411  -5.4139  -5.2885  -5.0716
    -4.6382  -4.4947  -4.3864  -4.0548  -3.9733  -3.8901  -3.8342  -3.7958
    -3.7259  -3.6844  -3.6245  -3.6067  -3.5694  -3.5270  -3.4939  -3.4838
    -3.4596  -3.4135  -3.3706  -3.2973  -3.2741  -3.2628  -3.2053  -3.1870
    -3.1568  -3.1084  -3.0428  -3.0147  -2.9753  -2.9277  -2.8692  -2.8361
    -2.8116  -2.7603  -2.6980  -2.6286  -2.5640  -2.4874  -2.4628  -2.4241
    -2.4091  -2.3605  -2.3207  -2.2916  -2.2308  -2.1924  -2.1706  -2.1145
    -2.0889  -2.0259  -2.0014  -1.9721  -1.9451  -1.9180  -1.8948  -1.8854
    -1.8567  -1.8203  -1.8024  -1.7707  -1.7636  -1.7338  -1.6859  -1.6608
    -1.6276  -1.5869  -1.5651  -1.5084  -1.4574  -1.4228  -1.4040  -1.3716
    -1.3448  -1.2975  -1.2586  -1.2363  -1.2219  -1.2013  -1.1720  -1.1231
    -1.0625  -1.0451  -1.0285  -1.0110  -0.9934  -0.9436  -0.9014  -0.8751
    -0.8365  -0.8058  -0.7812  -0.7631  -0.7315  -0.7135  -0.7016  -0.6684
    -0.6398  -0.6181  -0.6091  -0.5872  -0.5562  -0.5366  -0.5237  -0.5053
    -0.4945  -0.4734  -0.4309  -0.3731  -0.3007  -0.2760  -0.2428  -0.1740
    -0.1256  -0.1119  -0.0574  -0.0490  -0.0297  -0.0013   0.0184   0.0591
     0.0866   0.1066   0.1478   0.1762   0.1822   0.2083   0.2825   0.3107
     0.3340   0.3881   0.4116   0.4637   0.5247   0.5627   0.5896   0.6227
     0.6461   0.6945   0.7039   0.7381   0.7669   0.7783   0.8236   0.8426
     0.8462   0.8902   0.9006   0.9393   0.9567   1.0076   1.0944   1.1543
     1.1966   1.2220   1.2700   1.3642   1.3887   1.4129   1.4503   1.4647
     1.5109   1.5343   1.6032   1.6305   1.6532   1.6973   1.7155   1.7362
     1.7617   1.8181   1.8551   1.8637   1.8799   1.9117   1.9234   1.9665
     1.9798   2.0231   2.0724   2.1167   2.1570   2.1821   2.1991   2.2369
     2.2578   2.2754   2.4507   2.5814   2.7465   3.0058   3.0507   3.2951
     3.3706   3.4284   3.5134   3.6503   3.7752   4.0028   4.1128   4.1970
     4.4073   4.5162   4.6285   4.8105   4.8711   4.9754   5.1069   5.1801
     5.2732   5.3595   5.5794   5.7216   5.8483   6.0288   6.3743   6.4208

          k = 0.2000-0.3464 0.0000 ( 89060 PWs)   bands (ev):

   -13.9281  -9.7069  -8.6380  -6.2741  -5.4918  -5.4110  -5.0691  -4.9956
    -4.8905  -4.4520  -4.0840  -4.0381  -3.9993  -3.9890  -3.9689  -3.9589
    -3.9085  -3.8422  -3.8082  -3.7680  -3.6242  -3.4789  -3.4282  -3.4085
    -3.3932  -3.3549  -3.3126  -3.2568  -3.2394  -3.2012  -3.1628  -3.1296
    -3.1066  -3.0830  -3.0448  -3.0252  -2.9882  -2.9438  -2.9166  -2.8825
    -2.8517  -2.7723  -2.7131  -2.5994  -2.5648  -2.4894  -2.4604  -2.4226
    -2.3810  -2.3492  -2.3320  -2.2951  -2.2842  -2.2170  -2.1649  -2.1531
    -2.0892  -2.0580  -2.0236  -2.0026  -1.9704  -1.9371  -1.8999  -1.8502
    -1.8133  -1.7613  -1.7242  -1.6930  -1.6682  -1.6211  -1.6035  -1.5535
    -1.5161  -1.4918  -1.4650  -1.4295  -1.4025  -1.3721  -1.3325  -1.3116
    -1.2796  -1.2530  -1.2002  -1.1688  -1.1519  -1.1350  -1.0832  -1.0439
    -1.0227  -1.0114  -0.9943  -0.9650  -0.9306  -0.9214  -0.8945  -0.8887
    -0.8632  -0.8311  -0.8049  -0.7824  -0.7543  -0.7425  -0.6776  -0.6714
    -0.6492  -0.6338  -0.6172  -0.5888  -0.5787  -0.5572  -0.5378  -0.4851
    -0.4512  -0.4264  -0.3969  -0.3704  -0.3020  -0.2518  -0.2172  -0.1725
    -0.1215  -0.0655  -0.0355  -0.0068   0.0105   0.0367   0.0795   0.1020
     0.1520   0.1757   0.1950   0.2333   0.2507   0.2845   0.3121   0.3689
     0.4064   0.4402   0.4665   0.4998   0.5474   0.5865   0.6246   0.6357
     0.6680   0.6827   0.7080   0.7321   0.7521   0.8001   0.8626   0.8877
     0.9098   0.9633   0.9826   1.0035   1.0283   1.0504   1.0657   1.1095
     1.1449   1.1636   1.2137   1.2608   1.3191   1.3792   1.4501   1.4863
     1.5169   1.5536   1.5707   1.6181   1.6303   1.6870   1.7104   1.7248
     1.7411   1.7732   1.7984   1.8224   1.8256   1.8511   1.8839   1.9057
     1.9324   1.9619   1.9767   2.0380   2.0723   2.1211   2.1604   2.1965
     2.2143   2.2303   2.2719   2.3292   2.3923   2.4274   2.5853   2.8964
     3.0477   3.0942   3.2623   3.3111   3.4602   3.5733   3.7184   4.0390
     4.1501   4.2895   4.3990   4.5174   4.7474   4.8424   5.3571   5.5134
     5.6548   5.7439   5.9987   6.1562   6.2926   6.3647   6.4526   6.5001

          k = 0.4000-0.2309 0.0000 ( 89094 PWs)   bands (ev):

   -13.9285  -9.6918  -8.6437  -6.1563  -5.6179  -5.4802  -5.2807  -4.7922
    -4.5136  -4.4539  -4.3589  -4.3113  -4.0752  -3.9428  -3.8671  -3.8405
    -3.7756  -3.7298  -3.6802  -3.6579  -3.5420  -3.5375  -3.5028  -3.4400
    -3.3831  -3.3599  -3.3320  -3.3013  -3.2862  -3.2706  -3.2096  -3.1597
    -3.1316  -3.1005  -3.0667  -3.0051  -2.9252  -2.8871  -2.8559  -2.7966
    -2.7903  -2.7115  -2.6915  -2.6881  -2.6278  -2.5366  -2.5318  -2.4280
    -2.4213  -2.3742  -2.3250  -2.2811  -2.2483  -2.2442  -2.1866  -2.1598
    -2.1537  -2.1056  -2.0839  -1.9930  -1.9811  -1.9488  -1.9353  -1.8563
    -1.8180  -1.8122  -1.7860  -1.7117  -1.6766  -1.6711  -1.6301  -1.5650
    -1.5600  -1.5112  -1.4483  -1.4324  -1.4111  -1.3716  -1.3092  -1.3042
    -1.2735  -1.2390  -1.2324  -1.2005  -1.1463  -1.1339  -1.1077  -1.0673
    -1.0649  -1.0519  -1.0474  -1.0119  -0.9545  -0.9494  -0.9379  -0.9101
    -0.8452  -0.8416  -0.8063  -0.7954  -0.7826  -0.7511  -0.7047  -0.7001
    -0.6372  -0.6232  -0.5734  -0.5620  -0.5233  -0.4969  -0.4912  -0.4229
    -0.4172  -0.3729  -0.3333  -0.3082  -0.2551  -0.2016  -0.1520  -0.1459
    -0.0778  -0.0565  -0.0461  -0.0249  -0.0028   0.0365   0.0394   0.0781
     0.1272   0.1447   0.1682   0.1855   0.2101   0.2657   0.3011   0.3258
     0.3457   0.3538   0.4154   0.4199   0.5381   0.5406   0.6219   0.6393
     0.6565   0.6860   0.7305   0.7529   0.8297   0.8364   0.8836   0.9046
     0.9361   0.9702   0.9739   1.0240   1.0515   1.0607   1.1165   1.1591
     1.1691   1.2077   1.2411   1.2719   1.2862   1.3517   1.3650   1.4336
     1.4504   1.5141   1.5269   1.5847   1.5961   1.6166   1.6179   1.6544
     1.6898   1.7160   1.7813   1.8026   1.8651   1.8680   1.8777   1.9136
     1.9203   1.9809   2.0234   2.0718   2.0756   2.1675   2.1835   2.1887
     2.2364   2.2614   2.4377   2.4393   2.5211   2.5903   2.8734   2.9157
     3.2562   3.3007   3.4557   3.4733   3.5989   3.8423   3.9799   4.0737
     4.2078   4.3874   4.4983   4.6025   4.6307   4.7721   4.9063   5.0738
     5.2993   5.5939   5.6542   5.8430   6.0799   6.4163   6.5645   6.7389

          k = 0.4000-0.0000 0.0000 ( 89060 PWs)   bands (ev):

   -13.9281  -9.7068  -8.6378  -6.2738  -5.4906  -5.4115  -5.0686  -4.9958
    -4.8916  -4.4502  -4.0874  -4.0414  -3.9979  -3.9876  -3.9705  -3.9585
    -3.9081  -3.8432  -3.8074  -3.7682  -3.6199  -3.4769  -3.4262  -3.4094
    -3.3913  -3.3524  -3.3107  -3.2616  -3.2347  -3.2034  -3.1642  -3.1311
    -3.1075  -3.0848  -3.0434  -3.0294  -2.9888  -2.9464  -2.9182  -2.8817
    -2.8540  -2.7689  -2.7147  -2.6024  -2.5654  -2.4945  -2.4593  -2.4233
    -2.3786  -2.3506  -2.3336  -2.2987  -2.2867  -2.2196  -2.1706  -2.1511
    -2.0896  -2.0595  -2.0240  -2.0011  -1.9672  -1.9335  -1.8947  -1.8523
    -1.8128  -1.7575  -1.7259  -1.6958  -1.6716  -1.6221  -1.6107  -1.5483
    -1.5183  -1.4949  -1.4654  -1.4303  -1.4013  -1.3709  -1.3291  -1.3115
    -1.2754  -1.2536  -1.2013  -1.1674  -1.1521  -1.1301  -1.0829  -1.0455
    -1.0242  -1.0080  -0.9926  -0.9705  -0.9258  -0.9206  -0.8994  -0.8898
    -0.8555  -0.8274  -0.7986  -0.7819  -0.7534  -0.7442  -0.6849  -0.6701
    -0.6452  -0.6362  -0.6170  -0.5878  -0.5811  -0.5573  -0.5382  -0.4816
    -0.4498  -0.4294  -0.3962  -0.3682  -0.3003  -0.2479  -0.2187  -0.1711
    -0.1179  -0.0639  -0.0389  -0.0046   0.0115   0.0387   0.0793   0.1033
     0.1539   0.1811   0.1983   0.2349   0.2472   0.2884   0.3103   0.3647
     0.4049   0.4442   0.4701   0.4981   0.5472   0.5905   0.6240   0.6394
     0.6669   0.6832   0.7071   0.7300   0.7572   0.8008   0.8638   0.8839
     0.9137   0.9641   0.9791   1.0031   1.0278   1.0479   1.0646   1.1084
     1.1446   1.1634   1.2138   1.2630   1.3211   1.3748   1.4506   1.4862
     1.5160   1.5549   1.5746   1.6180   1.6280   1.6860   1.7096   1.7295
     1.7416   1.7739   1.7979   1.8214   1.8276   1.8528   1.8833   1.9040
     1.9326   1.9626   1.9757   2.0385   2.0726   2.1207   2.1597   2.1919
     2.2081   2.2245   2.2716   2.3290   2.3926   2.4289   2.5851   2.8958
     3.0476   3.0890   3.2600   3.3043   3.4549   3.5646   3.7188   4.0438
     4.1441   4.2878   4.3940   4.5225   4.7501   4.8439   5.3490   5.5138
     5.6528   5.7409   6.0050   6.1655   6.2933   6.3673   6.4545   6.4971

          k = 0.4000 0.2309 0.0000 ( 89094 PWs)   bands (ev):

   -13.9271  -9.7297  -8.6196  -6.1327  -5.5530  -5.3911  -5.2776  -4.8393
    -4.5356  -4.4631  -4.4333  -4.3059  -4.0681  -3.9697  -3.8702  -3.8500
    -3.8101  -3.7288  -3.7129  -3.6060  -3.5755  -3.5275  -3.4941  -3.4622
    -3.4373  -3.3420  -3.3326  -3.3181  -3.2799  -3.2631  -3.2151  -3.1590
    -3.1335  -3.0951  -3.0393  -2.9515  -2.9242  -2.8776  -2.8574  -2.7837
    -2.7400  -2.6938  -2.6721  -2.6480  -2.6246  -2.5322  -2.4781  -2.4604
    -2.4418  -2.3678  -2.3459  -2.2976  -2.2660  -2.2462  -2.1945  -2.1818
    -2.1534  -2.0936  -2.0700  -2.0273  -1.9860  -1.9747  -1.9013  -1.8571
    -1.8019  -1.7894  -1.7680  -1.7366  -1.6938  -1.6354  -1.6007  -1.5766
    -1.5452  -1.5060  -1.4669  -1.4334  -1.4233  -1.3689  -1.3169  -1.2899
    -1.2612  -1.2398  -1.2121  -1.1868  -1.1567  -1.1236  -1.1135  -1.0856
    -1.0605  -1.0551  -1.0206  -0.9995  -0.9659  -0.9434  -0.8980  -0.8724
    -0.8467  -0.8295  -0.8174  -0.7902  -0.7691  -0.7468  -0.7052  -0.6986
    -0.6607  -0.6323  -0.6070  -0.5744  -0.5392  -0.5060  -0.4866  -0.4444
    -0.4240  -0.3854  -0.3698  -0.3413  -0.3074  -0.2586  -0.2034  -0.1687
    -0.1451  -0.1080  -0.0607  -0.0352   0.0122   0.0186   0.0427   0.0670
     0.1007   0.1303   0.1501   0.1736   0.1976   0.2591   0.2790   0.3016
     0.3511   0.3913   0.4099   0.4690   0.4847   0.5693   0.6329   0.6475
     0.6626   0.7140   0.7560   0.7982   0.8209   0.8385   0.8809   0.8973
     0.9087   0.9511   0.9651   0.9849   1.0057   1.0319   1.0858   1.1439
     1.1622   1.1850   1.2078   1.2726   1.3168   1.3346   1.3627   1.4507
     1.4733   1.5109   1.5587   1.5946   1.6010   1.6271   1.6310   1.6811
     1.7178   1.7395   1.7623   1.8170   1.8492   1.8645   1.8885   1.9241
     1.9395   1.9520   2.0176   2.0637   2.1516   2.1722   2.1802   2.1966
     2.2338   2.3096   2.4378   2.4601   2.5268   2.6705   2.8898   3.1291
     3.2355   3.2893   3.3981   3.4916   3.7214   3.8034   3.9059   4.1044
     4.2767   4.3572   4.4960   4.6197   4.6870   4.7306   5.0368   5.1473
     5.3902   5.4945   5.6357   5.9525   6.2021   6.2700   6.5496   6.7181

          k = 0.4000-0.6928 0.0000 ( 89080 PWs)   bands (ev):

   -13.9269  -9.7292  -8.6139  -5.7821  -5.7391  -5.4163  -5.2883  -5.0707
    -4.6378  -4.4983  -4.3867  -4.0511  -3.9683  -3.8906  -3.8348  -3.7976
    -3.7272  -3.6856  -3.6245  -3.6068  -3.5674  -3.5265  -3.4927  -3.4845
    -3.4569  -3.4151  -3.3689  -3.2977  -3.2742  -3.2624  -3.2073  -3.1880
    -3.1589  -3.1086  -3.0438  -3.0148  -2.9772  -2.9291  -2.8692  -2.8376
    -2.8145  -2.7568  -2.7021  -2.6298  -2.5654  -2.4850  -2.4641  -2.4254
    -2.4086  -2.3659  -2.3214  -2.2952  -2.2362  -2.1868  -2.1772  -2.1129
    -2.0823  -2.0268  -1.9981  -1.9752  -1.9483  -1.9177  -1.8981  -1.8870
    -1.8564  -1.8208  -1.8017  -1.7706  -1.7621  -1.7331  -1.6854  -1.6649
    -1.6323  -1.5840  -1.5649  -1.5057  -1.4563  -1.4259  -1.3998  -1.3640
    -1.3436  -1.2930  -1.2560  -1.2299  -1.2215  -1.1998  -1.1707  -1.1271
    -1.0664  -1.0479  -1.0286  -1.0105  -0.9907  -0.9431  -0.9013  -0.8811
    -0.8362  -0.8044  -0.7836  -0.7637  -0.7334  -0.7124  -0.7010  -0.6567
    -0.6410  -0.6177  -0.6061  -0.5911  -0.5582  -0.5333  -0.5251  -0.5029
    -0.4923  -0.4743  -0.4305  -0.3735  -0.2982  -0.2746  -0.2380  -0.1761
    -0.1240  -0.1097  -0.0552  -0.0476  -0.0294  -0.0018   0.0185   0.0540
     0.0863   0.1059   0.1485   0.1780   0.1855   0.2049   0.2853   0.3142
     0.3349   0.3892   0.4167   0.4658   0.5257   0.5553   0.5878   0.6234
     0.6456   0.6930   0.7028   0.7384   0.7649   0.7822   0.8260   0.8432
     0.8465   0.8910   0.9004   0.9395   0.9581   1.0104   1.0939   1.1526
     1.1985   1.2230   1.2742   1.3639   1.3870   1.4094   1.4483   1.4666
     1.5133   1.5326   1.6021   1.6300   1.6554   1.6999   1.7154   1.7379
     1.7638   1.8152   1.8537   1.8648   1.8785   1.9109   1.9239   1.9690
     1.9813   2.0218   2.0730   2.1169   2.1540   2.1775   2.1980   2.2308
     2.2558   2.2742   2.4513   2.5919   2.7380   2.9984   3.0493   3.2938
     3.3651   3.4273   3.5090   3.6497   3.7754   4.0017   4.1156   4.1939
     4.4078   4.5157   4.6266   4.8070   4.8689   4.9701   5.0936   5.1803
     5.2724   5.3599   5.5788   5.7314   5.8498   6.0374   6.3755   6.4238

          k = 0.4000-0.4619 0.0000 ( 89080 PWs)   bands (ev):

   -13.9277  -9.7060  -8.6285  -5.8584  -5.7209  -5.3981  -5.3137  -5.1466
    -4.5584  -4.4319  -4.3892  -4.0615  -3.9830  -3.9085  -3.8596  -3.7148
    -3.7079  -3.6576  -3.6346  -3.6040  -3.5639  -3.5169  -3.5006  -3.4760
    -3.4614  -3.4160  -3.3487  -3.3075  -3.2802  -3.2505  -3.2237  -3.1858
    -3.1693  -3.1268  -3.0748  -3.0309  -2.9897  -2.9074  -2.8914  -2.8615
    -2.8295  -2.7795  -2.6812  -2.6435  -2.5740  -2.5235  -2.4707  -2.4128
    -2.3936  -2.3672  -2.3354  -2.2423  -2.2195  -2.1696  -2.1512  -2.1165
    -2.1010  -2.0386  -2.0098  -1.9897  -1.9837  -1.9394  -1.9091  -1.8639
    -1.8429  -1.8098  -1.7980  -1.7676  -1.7472  -1.7343  -1.7025  -1.6524
    -1.6261  -1.5993  -1.5581  -1.5060  -1.4364  -1.4182  -1.4023  -1.3761
    -1.3416  -1.3006  -1.2834  -1.2579  -1.2196  -1.1932  -1.1717  -1.1629
    -1.0448  -1.0188  -1.0021  -0.9939  -0.9489  -0.9457  -0.9077  -0.8421
    -0.8385  -0.8185  -0.7767  -0.7700  -0.7276  -0.7125  -0.7042  -0.6908
    -0.6514  -0.6349  -0.6048  -0.5817  -0.5602  -0.5363  -0.5354  -0.5262
    -0.4998  -0.4476  -0.4317  -0.3754  -0.2750  -0.2692  -0.2394  -0.1841
    -0.1173  -0.0946  -0.0831  -0.0422  -0.0120   0.0151   0.0483   0.0771
     0.0894   0.1261   0.1651   0.1719   0.2626   0.2714   0.2897   0.3195
     0.3465   0.3822   0.4479   0.4785   0.5007   0.5369   0.6104   0.6308
     0.6615   0.6692   0.6952   0.7088   0.7289   0.7588   0.8193   0.8494
     0.8635   0.8970   0.9261   0.9438   0.9856   0.9894   1.0701   1.1532
     1.1699   1.2440   1.2807   1.3640   1.3914   1.4237   1.4494   1.4569
     1.5126   1.5664   1.5987   1.6290   1.6661   1.6947   1.7167   1.7513
     1.7767   1.7936   1.8386   1.8571   1.8768   1.9013   1.9235   1.9451
     1.9829   2.0377   2.0853   2.1046   2.1229   2.1665   2.2054   2.2418
     2.2613   2.3311   2.4407   2.5014   2.6926   2.8563   3.0358   3.2228
     3.4145   3.4703   3.6248   3.6823   3.8118   3.9130   4.0012   4.1463
     4.4167   4.4668   4.5163   4.6978   4.9113   4.9853   5.1684   5.2433
     5.2757   5.3677   5.4900   5.6733   5.8101   6.1248   6.3279   6.4204

     the Fermi energy is     1.9987 ev

!    total energy              =  -27813.58205447 Ry

     total all-electron energy =  -1326873.639758 Ry
     estimated scf accuracy    <       0.00000047 Ry
     smearing contrib. (-TS)   =       0.00652946 Ry
     internal energy E=F+TS    =  -27813.58858394 Ry

     The total energy is F=E-TS. E is the sum of the following terms:
     one-electron contribution =  -27115.34702309 Ry
     hartree contribution      =   13862.18651103 Ry
     xc contribution           =    -905.76270755 Ry
     ewald contribution        =   11838.99101502 Ry
     one-center paw contrib.   =  -25493.65637935 Ry

     convergence has been achieved in  19 iterations

     negative rho (up, down):  1.300E-02 0.000E+00

     Forces acting on atoms (cartesian axes, Ry/au):

     atom    1 type  1   force =    -0.00170991   -0.00144964   -0.00558414
     atom    2 type  1   force =     0.00141585   -0.00094474   -0.00359611
     atom    3 type  1   force =     0.00010018    0.00010473   -0.00565609
     atom    4 type  1   force =    -0.00039757    0.00035286   -0.00206998
     atom    5 type  1   force =     0.00173430   -0.00041681   -0.00374488
     atom    6 type  1   force =    -0.00043157   -0.00027314   -0.00406157
     atom    7 type  1   force =     0.00055119    0.00236294   -0.00554332
     atom    8 type  1   force =    -0.00025877    0.00031219   -0.00519026
     atom    9 type  1   force =     0.00024086    0.00075778   -0.00401196
     atom   10 type  1   force =     0.00549171    0.00818479   -0.00096187
     atom   11 type  1   force =    -0.00431334    0.00182798    0.01460719
     atom   12 type  1   force =     0.00201996    0.00084115    0.00495100
     atom   13 type  1   force =    -0.00527383   -0.00927071   -0.00133223
     atom   14 type  1   force =    -0.00343129   -0.00370155    0.00630637
     atom   15 type  1   force =     0.00469535   -0.00293388    0.00570672
     atom   16 type  1   force =     0.00023268   -0.00038054   -0.00184344
     atom   17 type  1   force =     0.00127749    0.00426906    0.00713118
     atom   18 type  1   force =    -0.00025766   -0.00260852    0.00502467
     atom   19 type  1   force =     0.00013737   -0.00010052    0.00044257
     atom   20 type  1   force =     0.00000691    0.00022572   -0.00065621
     atom   21 type  1   force =    -0.00004194    0.00042971    0.00037245
     atom   22 type  1   force =    -0.00002615   -0.00040350    0.00038041
     atom   23 type  1   force =    -0.00056231   -0.00030315   -0.00011265
     atom   24 type  1   force =     0.00030282    0.00008051   -0.00019308
     atom   25 type  1   force =    -0.00035986    0.00044279    0.00016053
     atom   26 type  1   force =    -0.00013563    0.00010585    0.00019324
     atom   27 type  1   force =    -0.00050690   -0.00012695    0.00031437
     atom   28 type  1   force =    -0.00011308    0.00013534   -0.00002335
     atom   29 type  1   force =    -0.00023116   -0.00057911   -0.00041599
     atom   30 type  1   force =    -0.00049157    0.00002089   -0.00022075
     atom   31 type  1   force =    -0.00050646    0.00036881    0.00054712
     atom   32 type  1   force =     0.00040503   -0.00005771    0.00024405
     atom   33 type  1   force =    -0.00024959   -0.00043030   -0.00012024
     atom   34 type  1   force =    -0.00073460    0.00010566   -0.00025071
     atom   35 type  1   force =     0.00010869    0.00000261    0.00029620
     atom   36 type  1   force =    -0.00089843    0.00010637   -0.00038361
     atom   37 type  2   force =     0.00157847    0.00071496    0.00010876
     atom   38 type  2   force =     0.00411764   -0.00089086    0.00554591
     atom   39 type  2   force =     0.00068522    0.00103130    0.00001657
     atom   40 type  3   force =    -0.00001645   -0.00012773   -0.00047737
     atom   41 type  3   force =    -0.00415362    0.00221535   -0.00589949

     Total force =     0.010802     Total SCF correction =     0.001488
     SCF correction compared to forces is large: reduce conv_thr to get better values

     negative rho (up, down):  1.300E-02 0.000E+00

     negative rho (up, down):  1.300E-02 0.000E+00

     negative rho (up, down):  1.300E-02 0.000E+00

     negative rho (up, down):  1.300E-02 0.000E+00

     negative rho (up, down):  1.300E-02 0.000E+00

     negative rho (up, down):  1.300E-02 0.000E+00

     negative rho (up, down):  1.300E-02 0.000E+00

     negative rho (up, down):  1.300E-02 0.000E+00

     negative rho (up, down):  1.300E-02 0.000E+00

     negative rho (up, down):  1.300E-02 0.000E+00

     negative rho (up, down):  1.300E-02 0.000E+00

     negative rho (up, down):  1.300E-02 0.000E+00

     negative rho (up, down):  1.300E-02 0.000E+00

     negative rho (up, down):  1.300E-02 0.000E+00

     negative rho (up, down):  1.300E-02 0.000E+00

     negative rho (up, down):  1.300E-02 0.000E+00

     negative rho (up, down):  1.300E-02 0.000E+00

     negative rho (up, down):  1.300E-02 0.000E+00

     negative rho (up, down):  1.300E-02 0.000E+00

     negative rho (up, down):  1.300E-02 0.000E+00

     negative rho (up, down):  1.300E-02 0.000E+00

     negative rho (up, down):  1.300E-02 0.000E+00

     negative rho (up, down):  1.300E-02 0.000E+00

     negative rho (up, down):  1.300E-02 0.000E+00

     negative rho (up, down):  1.300E-02 0.000E+00

     negative rho (up, down):  1.300E-02 0.000E+00

     negative rho (up, down):  1.300E-02 0.000E+00

     negative rho (up, down):  1.300E-02 0.000E+00

     negative rho (up, down):  1.300E-02 0.000E+00

     negative rho (up, down):  1.300E-02 0.000E+00

     negative rho (up, down):  1.300E-02 0.000E+00

     negative rho (up, down):  1.300E-02 0.000E+00

     negative rho (up, down):  1.300E-02 0.000E+00

     negative rho (up, down):  1.300E-02 0.000E+00
 BEEFens 2000 ensemble energies
             -0.605935425413604E+02
             -0.362535836916717E+01
             -0.158275879426688E+02
              0.429214733659186E+02
             -0.220864922166584E+02
             -0.205084587312062E+02
             -0.351717921634067E+02
             -0.864134921235045E+02
             -0.464596920861939E+02
             -0.472726397773970E+02
             -0.369037231419218E+02
              0.223091948980784E+01
              0.405752091430827E+01
              0.762352041910339E+01
              0.266541647121215E+01
              0.474517983113744E+02
             -0.208758365381402E+02
             -0.230307841434458E+02
              0.192944959681980E+02
             -0.112250640499041E+03
              0.535818429327242E+02
             -0.289803891269673E+02
             -0.337030905748776E+01
             -0.114050253131582E+02
             -0.885002252513470E+01
             -0.465941200684063E+01
              0.881814754209709E+02
             -0.186878336439608E+02
             -0.900370747291447E+01
             -0.517900577985977E+02
              0.815133334487700E+02
             -0.187324634860124E+02
             -0.374913227654766E+02
              0.249123662796734E+02
             -0.285356889137580E+01
              0.163838142445219E+02
             -0.485792440967504E+01
              0.108035386892635E+02
              0.287681816349287E+02
             -0.103196389318804E+03
              0.557787141505576E+02
              0.142114404262979E+02
             -0.170337463854742E+01
             -0.361216834668626E+02
              0.123138012126457E+02
             -0.146542312459754E+02
              0.398250791647062E+02
              0.364461467076137E+02
             -0.307993305515354E+02
             -0.275013675370730E+02
             -0.328307033207053E+02
             -0.351570733471171E+02
              0.135647731509414E+02
             -0.490524720947051E+02
              0.115410299194670E+02
              0.622029302303923E+02
              0.634577546089619E+02
              0.355371052002258E+02
              0.153953948246710E+02
              0.269952702834512E+02
              0.890434668196385E+02
              0.212751494144165E+02
             -0.548139667875265E+02
             -0.156791575756366E+02
             -0.235622625616198E+02
              0.629358178504950E+02
             -0.772622310479160E+02
             -0.671008028021812E+02
             -0.258915293837903E+02
             -0.639235235639876E+01
             -0.470619339667385E+02
              0.270380504363976E+02
              0.800241192479893E+01
              0.867415214573430E+01
             -0.396592602386314E+02
             -0.346646449003129E+02
             -0.541319476145185E+02
              0.390482654272478E+02
             -0.295789858780764E+02
              0.264568491167155E+02
             -0.711681528211163E+01
             -0.317780342721950E+02
             -0.576071184134054E+02
             -0.176723361559136E+02
             -0.906082519861980E+01
             -0.124915185918432E+02
              0.411579081789370E+02
              0.681613010127344E+02
             -0.385055902477567E+02
             -0.793970656085802E+02
             -0.219179287899066E+02
              0.111409688556003E+03
             -0.591709898864023E+02
              0.355943782789169E+02
             -0.956246559971771E+01
             -0.662431993188534E+02
              0.253898045672649E+02
              0.397716861555899E+02
             -0.198744120767094E+02
              0.399784483627589E+02
             -0.295703371127909E+02
             -0.477468697577945E+02
              0.865070175614691E+02
              0.453847319643369E+02
              0.336198176014159E+02
              0.146430752244405E+02
              0.205459487704677E+02
              0.855475883507531E+02
             -0.256175640664818E+02
              0.785954179133778E+01
             -0.142246256713883E+03
              0.181143556725276E+02
             -0.715585889453997E+02
              0.150719732737343E+02
              0.204404512739533E+02
             -0.332295525877395E+02
             -0.556767165622286E+02
              0.655292153756943E+01
             -0.303737041929829E+02
              0.307812540860421E+02
             -0.529303127866281E+02
              0.170859203623513E+01
             -0.356496499003873E+02
             -0.423993536878521E+01
             -0.108333424973890E+01
              0.180703490635589E+02
              0.145522202986160E+01
             -0.650291243181005E+01
              0.589467064580801E+02
              0.907261471423357E+02
              0.483698340947532E+02
              0.829727904384125E+02
             -0.114757149486177E+02
              0.143458690337851E+02
              0.540525987755847E+02
             -0.111105541939240E+02
             -0.734876688263450E+02
             -0.383461936186084E+02
             -0.521136459722485E+02
             -0.276312895069901E+02
              0.326715554402325E+02
             -0.116661549810833E+03
             -0.187319709776918E+02
              0.413723107007705E+02
             -0.385674554431380E+02
             -0.365573355251847E+02
              0.543154648329210E+02
              0.400294346962299E+02
             -0.353685420863745E+02
              0.137145416325193E+02
             -0.272797282719798E+02
              0.342829467112521E+02
              0.444637851248683E+01
              0.210773274799349E+02
             -0.883821049050783E+02
             -0.479468662843267E+02
             -0.991125910060919E+01
              0.322953187018149E+01
             -0.366158764212552E+02
              0.105899865224934E+03
             -0.230744551358010E+02
             -0.398050856916452E+02
              0.388600441819733E+02
             -0.493846159852458E+02
             -0.362738320127565E+02
              0.324127319258071E+02
              0.124269302132519E+02
              0.163827814393719E+02
              0.116266939495600E+02
             -0.132693480377725E+02
              0.224899703043247E+02
              0.589300567556499E+02
             -0.311361471872912E+02
              0.162141677890122E+02
              0.933268926617626E+02
              0.340475984837514E+02
             -0.728759947177548E+01
             -0.188566802355882E+02
              0.153183663140743E+03
             -0.163950546182729E+02
              0.362696147835909E+02
              0.194144010421535E+02
              0.361374792460227E+02
              0.891141564587158E+02
              0.542475607819309E+02
             -0.240258548962873E+01
              0.227501365396066E+02
              0.484641691630841E+02
              0.363441592658298E+02
             -0.524898740542991E+02
              0.934821720471732E+02
             -0.824606591310589E+02
             -0.198224222283176E+02
              0.582189306491734E+02
              0.672575776292114E+01
              0.790263621549263E+01
              0.340578683898572E+02
              0.298883509279349E+02
              0.353374434909874E+02
             -0.637079813111337E+02
              0.288741502297341E+01
             -0.297241408135995E+02
             -0.873018130140464E+01
             -0.147302827368344E+01
             -0.723308680885101E+01
             -0.414646746608571E+01
              0.858153472939771E+02
             -0.100835573301352E+02
             -0.276155655090776E+02
             -0.495136437857322E+01
              0.139675275466036E+02
             -0.563609526259961E+02
             -0.406465214723569E+02
             -0.381525510466592E+02
             -0.629984465220363E+02
             -0.169725389806340E+02
             -0.447028110688075E+02
              0.163413426907125E+02
             -0.241627609793464E+01
             -0.104158845021060E+02
             -0.934257789412817E+01
              0.806535065444052E+01
             -0.242598138244784E+02
              0.688407199783626E+02
             -0.806179595926957E+02
             -0.141009059226850E+02
             -0.173721141487403E+02
              0.181435499808013E+02
              0.214067471831019E+02
             -0.463323039383279E+02
             -0.202211975025317E+02
              0.440176521490290E+02
             -0.275620887958618E+02
              0.186796775177342E+02
              0.382246877893449E+02
             -0.325041743039230E+01
              0.114057677149858E+03
             -0.230215482341961E+02
             -0.340825934844975E+02
              0.579092922449792E+01
             -0.227910294589965E+02
              0.527083076620378E+02
             -0.336506092147083E+02
              0.106189707172497E+02
              0.640358379890591E+02
             -0.125974390768180E+02
              0.120133162859396E+03
              0.125757701914313E+03
             -0.649182037053333E+02
              0.590098139394702E+02
              0.166143851882135E+02
             -0.517146344428127E+02
              0.215954475055369E+02
              0.353435378717503E+02
              0.362136516544454E+02
              0.134981520962046E+01
              0.159110975576348E+02
              0.694624032772490E+02
             -0.246610862488894E+02
              0.180887288049441E+02
              0.738246446919394E+02
             -0.372003361257611E+02
             -0.129280986970356E+02
              0.507955124662900E+02
              0.296949861190920E+02
              0.779761761958316E+02
              0.222059861686228E+02
              0.622099929023261E+01
              0.279971351970147E+02
              0.382692005072494E+02
             -0.470910442775648E+02
              0.329158022284957E+01
              0.129441812404596E+02
              0.113881895188069E+02
              0.220109908191094E+02
             -0.574064810615551E+02
              0.365951345341452E+02
             -0.443556772728193E+02
             -0.347047784293103E+02
              0.177672221116888E+02
             -0.181023367971975E+02
              0.554621955445493E+02
             -0.256425723385576E+02
              0.266658415611179E+02
              0.367936795009898E+02
              0.828420999105061E+02
              0.573991890312468E+02
              0.460909522467380E+02
             -0.105792536169402E+02
             -0.391722331784888E+01
             -0.331476183287233E+02
              0.749696535651590E+02
              0.796267954717812E+02
              0.361658396995428E+02
             -0.191702044144883E+02
              0.511464754826345E+02
             -0.162662230274217E+02
              0.214701043231650E+02
              0.613523455205309E+02
              0.216499337955338E+01
             -0.103906822139352E+02
             -0.282809841516223E+02
             -0.510849390359940E+02
              0.944701775642861E+02
              0.438976088015097E+02
             -0.558567545486337E+02
             -0.964302308229662E+01
              0.249619807496179E+02
             -0.995026106519299E+01
              0.591500107616716E+02
              0.152150733759934E+02
              0.798435456834681E+02
              0.279146155545649E+02
             -0.264212578705174E+02
              0.249271045754597E+02
             -0.501327769669791E+01
             -0.323616752121186E+02
              0.133280747704902E+02
              0.205774266639614E+02
              0.931751699994379E+02
              0.796554179025311E+02
              0.550121070240416E+02
              0.730172418924885E+02
              0.798178868745296E+01
             -0.273662197878828E+02
              0.163076177409228E+02
             -0.367454931671706E+02
             -0.475675941956022E+02
             -0.563173180574853E+02
             -0.266174017979786E+02
             -0.109564512497159E+03
             -0.291097463286165E+02
             -0.836364292170800E+02
              0.209967536185910E+02
             -0.476349275860833E+02
              0.396141021810073E+02
             -0.940115029049048E+02
             -0.329977675288511E+02
              0.548177860659250E+02
              0.207717103602330E+02
             -0.829932161770307E+02
              0.630749349573580E+02
             -0.256401221714206E+02
              0.511707871964240E+02
             -0.242405245960786E+02
             -0.750734737362259E+02
              0.111584611523906E+02
             -0.610551252480786E+02
             -0.167950810751318E+02
             -0.145165584167533E+01
              0.417842368515050E+02
              0.126872306896942E+03
             -0.461359603900052E+02
             -0.362473373704268E+02
             -0.950286805426686E+00
             -0.130061658907213E+02
             -0.821957796087771E+02
             -0.595949472562535E+02
              0.516885043372499E+02
             -0.288582938165571E+02
              0.169155397604308E+02
             -0.488757499571319E+02
             -0.131613179021271E+02
             -0.436722708602441E+02
              0.565067991914668E+02
              0.151256017346815E+02
             -0.231435236737765E+02
             -0.126511215000872E+02
              0.666497247991462E+01
             -0.616604626362493E+01
              0.441165676695328E+02
             -0.251630513657589E+02
              0.272100119611468E+01
              0.339070674043670E+02
              0.171264185496332E+02
             -0.159333956206816E+02
              0.156126534001781E+03
              0.537089907743810E+02
              0.117768075634383E+01
              0.161526822886404E+02
             -0.613909440113423E+02
              0.314733905524318E+02
             -0.721183032081932E+02
             -0.251920058279370E+02
             -0.522168702051325E+02
             -0.219821551742977E+02
              0.568748860717891E+02
             -0.536512779291753E+02
              0.160586614436651E+02
             -0.408500801296009E+01
              0.387428527369471E+01
             -0.433315600430379E+02
             -0.478068056527995E+02
             -0.396332506410727E+01
             -0.424825783317055E+02
             -0.217214881130089E+02
             -0.437822406642719E+02
             -0.119299228235297E+02
             -0.358518863750204E+02
             -0.516089046513549E+02
              0.212426738291136E+02
             -0.208963977580892E+02
              0.187613170844097E+02
              0.974210365735777E+01
             -0.737327481401729E+02
             -0.547729911743098E+02
             -0.397565990082994E+02
              0.353779490539052E+02
              0.269585734036283E+01
             -0.625901917922695E+02
              0.585112215564766E+02
             -0.400750085595794E+02
              0.544354552394771E+02
             -0.289118051537016E+02
             -0.445567483876923E+02
              0.298311179889976E+02
             -0.657121495172801E+02
             -0.379575697980033E+02
              0.671768434811802E+02
              0.203707704324401E+02
             -0.359508030608307E+02
              0.488629322390033E+02
             -0.173775321775594E+02
             -0.322564986249214E+02
             -0.301341749980696E+02
             -0.500086989778058E+02
              0.249057009978514E+02
             -0.932150786171817E+02
             -0.839328586924756E+02
             -0.735475906724207E+01
             -0.306729662413640E+02
             -0.574686456499314E+02
              0.721045938324171E+02
              0.131397643596222E+03
             -0.360719832203627E+02
             -0.256034007203925E+01
             -0.636223950887847E+02
              0.650280645348735E+02
              0.170334074886269E+02
             -0.181051407129796E+02
             -0.409670502189865E+02
              0.148635496908643E+02
             -0.585652337180867E+02
             -0.197643183440135E+02
             -0.903710002103304E+02
              0.336542383778676E+02
              0.168679773007087E+02
              0.185347268697421E+01
             -0.704092037011014E+01
             -0.328824257095939E+02
             -0.757152913532536E+01
              0.125369979214184E+03
             -0.199164802037310E+02
             -0.436861208338644E+02
             -0.683264308871420E+02
              0.109179679756875E+02
             -0.341733238251767E+02
              0.589683265018621E+01
              0.261195379509709E+02
              0.101935408757230E+02
              0.277471762512506E+02
              0.119597710063726E+02
              0.629082419269017E+02
              0.316819255773299E+02
             -0.326268168611142E+02
              0.355383110053237E+02
              0.379011993895169E+02
              0.120732756793321E+02
              0.486213837117445E+02
             -0.224479873181416E+02
              0.764721766099514E+02
              0.171995603424897E+02
             -0.271925669921576E+02
             -0.719805873030213E+01
             -0.186337365600937E+02
              0.261852857444592E+02
             -0.234737136782794E+02
             -0.106711994411739E+00
             -0.846401205483107E+01
              0.809479803355556E+02
              0.499468733760246E+02
             -0.686491547638039E+02
             -0.472013701917879E+01
             -0.554836771354971E+02
             -0.159643634046058E+02
             -0.267636874004321E+02
              0.374397832590432E+01
              0.577159727902639E+00
             -0.257051083285382E+02
              0.813201593442048E+01
             -0.602067788881335E+01
             -0.128263598522326E+02
              0.858317873208850E+02
              0.181823736057680E+02
             -0.806460219037542E+02
             -0.457990150892074E+02
              0.943963248729940E+02
              0.277546630106872E+02
             -0.106686912836236E+02
              0.104455216410969E+03
             -0.194868601983073E+02
             -0.123088805196201E+02
             -0.536565117199768E+01
              0.107146771717545E+02
              0.272139318524596E+02
              0.777342898577467E+01
              0.304917703575736E+02
             -0.188061626620768E+02
             -0.303138815227833E+02
             -0.417609294728510E+02
             -0.476248943824208E+02
              0.463606178704328E+02
              0.126674938763185E+02
              0.387035161065935E+02
              0.133223786425525E+02
              0.854832103115883E+02
              0.156216390607405E+02
             -0.845387941748282E+02
             -0.334043691868823E+02
              0.133640006165991E+02
             -0.302295062115664E+02
              0.625708385273937E+02
             -0.885601414998314E+01
              0.148811563504161E+02
              0.496548900049663E+02
             -0.706733564879341E+02
              0.149575332108683E+03
              0.208348033805709E+02
              0.270981704449441E+02
              0.347160036057537E+02
              0.103291467382805E+02
             -0.159246820463363E+01
              0.358037117914371E+02
             -0.356512882875596E+02
              0.772587948248400E+02
              0.684128288328523E+02
             -0.405517597687784E+02
              0.148942624429272E+02
              0.669501607756883E+02
             -0.223710812678605E+02
              0.154157264034513E+02
              0.434805154325245E+02
              0.421992886018178E+02
             -0.783871540559771E+02
             -0.152641545496393E+02
             -0.355876994654148E+02
             -0.146810662623386E+01
             -0.759895718295594E+01
             -0.545018902927302E+01
             -0.180743941017228E+02
             -0.293186208940194E+02
              0.630942238587798E+01
              0.111798859385789E+02
              0.534977597736101E+02
             -0.389823857407639E+02
              0.373844397890408E+02
              0.437858672911765E+02
             -0.186485135155274E+02
              0.871699445007181E+02
             -0.697285817803169E+02
             -0.103103295838392E+03
             -0.660405962134584E+01
             -0.270114855807174E+01
              0.385101188226758E+01
              0.788830279248692E+02
             -0.107006419449500E+02
              0.416288895623005E+02
              0.442785174165485E+02
              0.385176099367313E+02
             -0.994810410897912E+01
              0.627112195884018E+02
             -0.133766561933160E+02
             -0.306932518420263E+02
             -0.478743114243692E+02
              0.585241741985280E+01
              0.369062450918431E+02
             -0.603036529301102E+01
              0.392690706543302E+02
             -0.180937451950098E+01
              0.654875146975623E+02
              0.187560867566672E+02
              0.999638129518966E+01
             -0.121465145589428E+02
              0.331962469423002E+02
              0.362599965866670E+02
              0.232626935650121E+02
             -0.511226067368312E+00
             -0.549741863493036E+02
              0.260817552274852E+02
              0.175127445032436E+02
              0.402086621206550E+02
              0.272150372901250E+02
              0.372191236155476E+02
             -0.604307197323305E+01
              0.250544578355403E+02
             -0.298267834074504E+02
             -0.194434138730787E+01
             -0.568697885503320E+02
             -0.307945276078131E+02
              0.378242413980979E+02
             -0.934672822643494E+02
              0.294350984174010E+02
              0.183639890384248E+02
              0.839383599877582E+02
             -0.300385601609113E+02
              0.328906518458011E+02
             -0.137837841990762E+02
             -0.463814245812481E+02
             -0.761072178464913E+02
             -0.525412474425011E+01
             -0.858940331276892E+02
              0.199721663661938E+02
             -0.247064754731924E+02
              0.305538748888229E+02
              0.236655114318741E+02
             -0.240718458262326E+02
             -0.264682000183254E+02
              0.390667416269152E+02
             -0.587453083129169E+02
             -0.116555217059465E+02
             -0.196077828023336E+02
              0.212087067657062E+02
             -0.891830946952047E+01
              0.366480899508775E+01
             -0.200591377702705E+02
              0.558574668828072E+02
             -0.438873477085980E+02
              0.787052886027971E+01
              0.584754872037155E+02
             -0.322987161298055E+02
              0.358858757797168E+01
             -0.881982707452994E+01
             -0.668972201977794E+02
             -0.482376333801034E+02
             -0.862273774016089E+01
              0.240587982085584E+02
              0.302193880803121E+02
              0.855095891270059E+01
             -0.417854844353815E+01
              0.152090522995185E+02
             -0.439566795100168E+02
              0.336316760765828E+01
             -0.530164179354085E+02
             -0.324493760005909E+02
              0.474453797276259E+02
             -0.294882438356606E+02
              0.621804746640376E+02
             -0.214150440438917E+02
              0.353437363612086E+02
              0.241496224794820E+02
             -0.643494028961466E+02
             -0.280265173845982E+02
              0.932103977059506E+01
             -0.371618513796354E+02
             -0.339208303078538E+02
             -0.829619430111636E+02
             -0.538829259305222E+02
             -0.510249180344582E+02
             -0.415189789004652E+02
             -0.965821506933452E+00
              0.995953282733367E+01
              0.101688144161170E+01
              0.153182594715504E+02
             -0.548966542186135E+02
              0.141645740348941E+02
              0.255909061398133E+02
             -0.665951249795222E+02
             -0.701271915974259E+02
             -0.430891973262902E+02
             -0.171760822649995E+02
              0.178597153767259E+02
              0.455680352954096E+01
             -0.425647369086612E+02
              0.366140716112367E+02
             -0.215715492787073E+02
              0.516876444946109E+02
             -0.886644013542436E+02
              0.597279959625510E+02
             -0.212616460080594E+01
             -0.367682837248244E+02
             -0.216543889053467E+02
              0.472389476071251E+01
              0.374341562999152E+02
             -0.755546405643617E+02
             -0.120899265838148E+02
             -0.216478099771974E+02
              0.510663523418484E+02
              0.863932378772110E+02
             -0.964357150563399E+02
              0.943253436410548E+02
              0.467421947356823E+02
             -0.724834146190156E+02
             -0.366248799575244E+02
              0.750990037755515E+02
              0.631426105519308E+02
             -0.180473962151885E+02
             -0.461001151291720E+01
              0.729007006776075E+01
              0.648409754141556E+02
             -0.507855886591595E+02
              0.158383816814334E+02
             -0.474356259161512E+01
              0.347321501223304E+02
             -0.746404019090396E+02
             -0.648654266614442E+01
             -0.350790199148231E+02
              0.460126864213888E+02
              0.468305349356886E+02
             -0.861277552079349E+02
             -0.486918139973685E+02
             -0.255930317921566E+02
             -0.339017795884874E+02
             -0.109446351814873E+02
             -0.242474303594701E+02
              0.426786668767110E+02
              0.400780783412829E+02
             -0.565620209529629E+01
             -0.416082002770334E+02
             -0.849561580140192E+02
              0.442449755586616E+02
             -0.522896979630376E+02
             -0.312502205939099E+02
              0.546689210460289E+01
             -0.322386633396077E+02
             -0.397853162323667E+02
             -0.239706074591196E+02
             -0.384770407420690E+02
             -0.270868504606340E+02
             -0.482092483132271E+02
              0.563639318250905E+02
              0.637509710609718E+02
             -0.170585165577336E+01
             -0.260965893896594E+02
             -0.622591946300656E+01
              0.440441726652796E+02
             -0.867052349622742E+02
             -0.146286118132674E+02
              0.523290430109546E+02
              0.663017253474044E+02
             -0.243931597608668E+02
              0.912561010273180E+01
              0.522845209289353E+02
              0.197677008370600E+02
             -0.831686424891541E+01
             -0.452732456859499E+02
              0.279969555872732E+02
             -0.352188740642122E+02
             -0.164500731608348E+02
[...]
              0.282887071954365E+02
              0.141703826783685E+03
              0.241749270616136E+02
              0.122379866494749E+02
             -0.464208187704768E+02
             -0.637578256863993E+02
             -0.188579749420588E+02
              0.328845251712454E+02
             -0.426111590890935E+01
              0.189631689394921E+02
              0.336060622821435E+02
             -0.586170908267964E+02
              0.222067538802585E+02
              0.581875398558540E+02
              0.552606452955198E+02
             -0.420852198743529E+01
             -0.138114144061512E+01
             -0.991230784968758E+01
             -0.481942256780533E+02
             -0.674192594968422E+02
              0.785054527920544E+02
             -0.523370878497352E+01
             -0.587395021883856E+02
              0.171544996818341E+01
             -0.204863185762325E+02
              0.937333753439031E+02
             -0.216479648878278E+02
             -0.353220201932899E+02
              0.334510067073029E+02
             -0.145538782300386E+02
              0.389187034868692E+02
             -0.238895733458025E+01
              0.100991946929975E+03
              0.489177456648360E+02
             -0.509198422526624E+01
             -0.321796124323456E+02
              0.231771450875722E+02
             -0.528108371205934E+02
             -0.128101278467212E+02
              0.585108306476735E+02
             -0.287487138058576E+02
             -0.438182770292657E+02
             -0.223099572946761E+02
              0.518287104555103E+02
              0.124840515098062E+02
             -0.847635112986543E+02
              0.303193518688763E+02
              0.151907470473137E+02
              0.574022006350367E+01
             -0.512963633379871E+02
             -0.378516339014800E+01
              0.323053292081148E+02
              0.512124171028785E+02
              0.631911805603409E+02
              0.228647243542340E+02
              0.800939322351951E+00
             -0.497255287057768E+02
             -0.509251897664263E+02
             -0.747171404599135E+02
             -0.615857973108382E+01
              0.308450016551245E+02
             -0.373059604082789E+01
              0.546482638425620E+02
             -0.317621386089315E+02
              0.166813495212848E+02
             -0.102179385261899E+02
             -0.289023748011686E+02
              0.584710473517028E+02
              0.791518729816323E+01
              0.603510560034296E+02
              0.503123215422465E+01
              0.264912781137116E+02
             -0.192580270839759E+02
              0.585583497603345E+02
             -0.110936860203834E+02
             -0.143442695546112E+00
             -0.789187086907417E+02
             -0.128201616973033E+02
              0.718152103858266E+02
              0.672382908323884E+02
              0.251789899772598E+02
             -0.130286443161539E+02
              0.343003716353036E+01
             -0.173247055021638E+02
             -0.203173418282333E+01
              0.906618053410082E+02
              0.124269563479390E+01
             -0.190336050617910E+02
             -0.110650802498489E+03
             -0.552226179521889E+02
             -0.374376166984151E+02
             -0.657982240307654E+02
             -0.554792576137522E+02
             -0.681669495589755E+02
             -0.446654816032697E+02
             -0.410650601166332E+02
             -0.451411965417439E+02
              0.482772721397080E+02
             -0.294024581442783E+02
             -0.994385143056872E+02
              0.417992304560968E+02
             -0.259768572704151E+02
             -0.790338418463723E+02
              0.942634803957276E+02
             -0.219559819604358E+02
              0.227897767638447E+02
              0.454295520020754E+02
             -0.137996393445786E+01
              0.254109555149753E+02
              0.465294907624852E+01
              0.415908157839759E+00
             -0.150222443839367E+02
             -0.714641988585478E+02
              0.132607753627406E+02
             -0.129251268409004E+03
              0.623192207134599E+02
             -0.440145200139361E+02
             -0.162795142761603E+02
             -0.158273631034482E+02
              0.711445324169361E+01
             -0.227449100017766E+02
              0.296727308529973E+02
             -0.520027947798899E+02
              0.366733219626619E+02
              0.370050503477579E+02
              0.168576070328484E+02
              0.100146657438673E+02
              0.197533278216830E+02
              0.620575140427763E+01
              0.310038069445421E+02
             -0.796427685178577E+01
             -0.591246224910147E+02
              0.756598845612098E+01
             -0.152442819159993E+02
             -0.191668752412505E+01
              0.505260317472607E+02
             -0.825760868018555E+02
             -0.150328816548318E+01
              0.573327999543210E+00
              0.993048486913960E+01
              0.318357719696124E+02
             -0.123634350934963E+02
              0.835042158077936E+02
              0.487213434753733E+02
             -0.182882079095398E+02
             -0.957015808892584E+01
              0.102781968088050E+01
              0.768717418641102E+02
             -0.585790330138828E+02
             -0.105623101803177E+03
              0.308578945602210E+02
             -0.162828733547990E+02
             -0.138863329324184E+02
              0.130748655604100E+02
              0.767622605729067E+02
              0.463582252381199E+02
             -0.153483950016860E+02
             -0.502475014445956E+02
             -0.547802312919448E+01
              0.306089385152511E+02
             -0.111243442833193E+02
             -0.754807550992552E+02
             -0.269436333211527E+01
             -0.888972990015868E+02
             -0.475057035919070E+02
              0.767696984819081E+02
             -0.482952828916330E+02
             -0.635650932696308E+02
             -0.513549081940251E+02
             -0.349342949580104E+02
              0.339981244096365E+02
              0.820303993988741E+02
             -0.354751408777395E+01
              0.276423194215519E+02
             -0.183293279623898E+02
             -0.693346959342621E+02
              0.464378582674335E+02
             -0.444373425025489E+02
              0.321315695471910E+02
              0.375838739363426E+02
             -0.650758899007582E+01
              0.390224056136191E+02
              0.437821921603129E+02
              0.100536917057321E+03
             -0.155972496171147E+02
             -0.455496965274553E+02
             -0.612324196287389E+02
             -0.124025515362264E+02
             -0.232162209489256E+02
              0.102903411095851E+03
             -0.448243703765832E+02
              0.105067852500263E+02
              0.972433499274268E+01
             -0.264530857555491E+02
             -0.797558529734461E+02
             -0.696378537685518E+01
              0.978530743041758E+02
              0.934133688556589E+01
              0.806144643630557E+01
             -0.526341759509423E+02
             -0.605100914948571E+02
             -0.562715310547782E+01
              0.500268124150995E+02
             -0.221450654332865E+02
              0.107859193238905E+03
             -0.434520516170073E+02
              0.146136620888192E+02
             -0.224207859362240E+02
             -0.717654540182003E+02
              0.168999117859437E+01
             -0.501036662947249E+02
             -0.759723218872341E+02
              0.614136069189698E+01
              0.240131306412013E+01
              0.513515321637805E+02
              0.186951548257015E+02
             -0.323215463562005E+02
              0.229629150624487E+02
             -0.809690751123344E+02
             -0.521430478665774E+02
              0.900585558322310E+02
              0.142478298604227E+02
             -0.187970973375453E+02
             -0.351913820377645E+02
             -0.269915116078312E+01
             -0.586470361293789E+01
              0.828481779515423E+02
              0.416928059653702E+02
             -0.166087883059641E+02
             -0.121768817035675E+02
             -0.426824326595105E+02
             -0.200384134826827E+02
             -0.669385556229283E+02
              0.458997962528358E+02
              0.545595926223743E+01
              0.144888479919321E+02
              0.155802306489687E+02
             -0.572380477505774E+00
             -0.168084535475394E+02
             -0.309366211685855E+01
             -0.100313221891733E+03
             -0.229651043635527E+02
             -0.763037438065965E+01
             -0.948126708813996E+01
              0.546291659642571E+02
              0.622995116634150E+02
              0.164640870331859E+02
             -0.969362438129871E+02
              0.647050238781833E+02
             -0.214760917312220E+02
             -0.376736919999464E+02
             -0.863231343276359E+02
             -0.386339286082242E+02
              0.563680723323558E+02
              0.243494265697167E+02
              0.508950235722358E+01
              0.291773353535035E+02
             -0.564226780524154E+02
             -0.421606356228272E+02
              0.514625823154446E+02
              0.386730296453099E+02
              0.518503531712405E+02
             -0.123110958263678E+01
              0.683732371309344E+01
              0.568742260472910E+02
              0.961486876889979E+02
             -0.300024054306959E+02
              0.322458479060479E+02
             -0.117986852662871E+02
             -0.411394419877071E+02
             -0.313906799611915E+02
             -0.299649101580674E+02
             -0.131375159408419E+02
             -0.522919688583165E+02
             -0.217100286814926E+02
             -0.141001819999198E+03
              0.368170087929315E+02
              0.206434543005472E+02
             -0.392976645378408E+01
             -0.379860468712658E+02
             -0.204059951341964E+02
             -0.526359711486479E+02
              0.150762574829832E+02
              0.819070304043714E+02
             -0.251662171095824E+02
             -0.162865316241982E+02
              0.238045131934094E+02
             -0.488480345619687E+02
              0.879189615302787E+02
              0.154219192540114E+02
              0.226036115256696E+02
              0.490055025397083E+02
              0.322109743022816E+01
              0.541639226697798E+02
              0.142981319714280E+02
             -0.106482149930983E+02
              0.734151146791402E+01
              0.827555423870422E+00
              0.726431790702360E+02
              0.100643815798091E+02
              0.120241786302558E+02
             -0.129627137194307E+02
              0.131848753118153E+02
             -0.909955679267097E+02
             -0.325530508316807E+02
             -0.456815590596584E+02
              0.484840746324679E+02
             -0.290696445071019E+02
             -0.657648649865209E+02
              0.537940845990113E+02
             -0.121673948998251E+02
              0.439687274959308E+02
             -0.897487315532425E+02
              0.231961254857924E+02
              0.857497011004767E+01
              0.585110830507119E+01
             -0.831357178164365E+01
             -0.901921862191682E+01
              0.478349418622507E+02
              0.196265644316458E+01
             -0.474576254517239E+02
             -0.175641502522099E+02
              0.276305119933372E+02
             -0.117756302084789E+03
             -0.928787635517778E+02
              0.395694025164846E+01
              0.117347148287718E+02
             -0.412554766858890E+02
             -0.386967303066291E+01
              0.111981193938507E+03
              0.306447592934079E+02
             -0.570943679658232E+02
              0.924674166744620E+01
             -0.962553339774423E+01
              0.105160451567306E+02
             -0.337215059216864E+02
              0.194942726757038E+02
              0.284427503612601E+02
             -0.303615038423101E+01
              0.108058072586021E+03
             -0.139963342267386E+02
             -0.315350488359746E+02
              0.142538587656220E+02
              0.465571054856124E+02
             -0.355281042810887E+02
             -0.319277812186598E+01
              0.963411781063879E+02
             -0.460853771003872E+01
              0.620928584158416E+02
              0.135153633496441E+02
             -0.904752820579783E+01
             -0.305269643495092E+02
              0.566250710889887E+02
             -0.513456244345420E+02
             -0.218169116116610E+01
             -0.169583308765787E+02
             -0.404668721911901E+02
              0.184590185322663E+02
              0.238876032851668E+02
              0.115991030037162E+02
              0.711331252692162E+00
             -0.384277047941655E+02
              0.215366482835184E+02
             -0.672008686760847E+01
             -0.246473109070814E+02
             -0.210375048880555E+02
              0.203165382386977E+02
             -0.594969701949583E+01
             -0.348776838074217E+02
             -0.106455070054450E+03
              0.102930406356017E+02
              0.248498184777838E+02
             -0.386898520141526E+02
             -0.210814846054828E+02
              0.806012790567574E+02
              0.648462199793460E+01
              0.310554655732601E+02
              0.391661802194659E+01
              0.321697373638913E+02
              0.642951867296267E+01
             -0.372723580952097E+02
             -0.228837469034082E+01
              0.876578298175281E+01
              0.273302045619131E+02
              0.781059607470808E+02
              0.506703213555659E+02
              0.162832024315833E+00
              0.168792261600929E+02
              0.612420958498065E+02
              0.235695080174640E+02
             -0.751986023748273E+02
             -0.272970909569511E+02
              0.150655506049270E+02
              0.562778409698677E+01
              0.255092233566854E+02
             -0.546971364834078E+02
              0.900986600735993E+01
              0.385333350410314E+02
              0.497348910945787E+02
             -0.434666218554029E+02
             -0.692770502580618E+01
             -0.208106784038569E+01
             -0.133436925606787E+02
             -0.365452036410621E+02
             -0.215202406960970E+02
             -0.199700676391561E+01
              0.789304520493482E+01
              0.420683320081247E+02
             -0.308151888428165E+02
              0.825079654837070E+02
              0.327351571876329E+02
              0.219497009814676E+02
              0.332311860063848E+02
              0.322823268380881E+02
              0.345485064623808E+02
              0.536593295199299E+02
             -0.433192945580410E+02
              0.618775559555941E+02
             -0.112092364424201E+03
              0.306999258996788E+02
             -0.106407620306930E+03
              0.853792927703622E+02
              0.689750860210181E+02
             -0.109898349596294E+02
             -0.492527043221005E+02
             -0.428813348691049E+02
             -0.622601783657045E+02
             -0.627922337821451E+02
              0.551050095181190E+02
              0.405322388554429E+02
              0.236702275776499E+02
              0.373404217965571E+02
              0.402724419833021E+02
             -0.381575517515702E+02
             -0.197747295789829E+02
              0.585874720741372E+02
             -0.115933696333746E+02
              0.551051474040436E+02
              0.698744045404598E+02
             -0.554335952567793E+01
             -0.705417839444854E+02
             -0.909754931137513E+00
             -0.244845604025799E+01
             -0.882310174664258E+01
             -0.179401286320245E+01
             -0.652260784424518E+02
             -0.210845195326657E+02
              0.535884295392130E+01
              0.894652823591099E+01
              0.468447586265208E+02
             -0.397451088270400E+02
              0.656612413067409E+02
             -0.424959451458379E+02
              0.210012291901284E+02
              0.349996516203730E+02
 
 BEEF-vdW xc energy contributions
           1 :   -782.166042291181     
           2 :    718.796322122563     
           3 :   -608.889325313207     
           4 :    479.244203790748     
           5 :   -357.304388339321     
           6 :    262.971435173538     
           7 :   -203.987670663984     
           8 :    175.862713176264     
           9 :   -165.916445349258     
          10 :    159.489831622394     
          11 :   -145.764188218316     
          12 :    120.990677564933     
          13 :   -88.3006958685211     
          14 :    54.7461508924555     
          15 :   -27.2813632832929     
          16 :    9.51913804289904     
          17 :  -0.521453211486460     
          18 :   -4.16469459878090     
          19 :    9.98302557233103     
          20 :   -20.6884709189108     
          21 :    36.7392671257890     
          22 :   -55.3868714255041     
          23 :    72.2451539266416     
          24 :   -83.4805889791061     
          25 :    87.5472892615743     
          26 :   -85.7126017434915     
          27 :    81.2358109778017     
          28 :   -77.6898523600756     
          29 :    77.2653909649513     
          30 :   -79.8591599532602     
          31 :   -85.7865785574397     
          32 :   -65.8098934086045     

     Writing output data file ./pwscf.save/
 
     init_run     :    333.54s CPU    337.94s WALL (       1 calls)
     electrons    :  12928.05s CPU  13049.59s WALL (       1 calls)
     forces       :     99.83s CPU    101.05s WALL (       1 calls)

     Called by init_run:
     wfcinit      :    285.46s CPU    288.84s WALL (       1 calls)
     potinit      :     45.21s CPU     45.55s WALL (       1 calls)
     hinit0       :      1.11s CPU      1.16s WALL (       1 calls)

     Called by electrons:
     c_bands      :  10751.57s CPU  10846.43s WALL (      20 calls)
     sum_band     :   1510.36s CPU   1522.28s WALL (      20 calls)
     v_of_rho     :    127.91s CPU    132.00s WALL (      20 calls)
     newd         :     29.57s CPU     40.43s WALL (      20 calls)
     PAW_pot      :    133.71s CPU    133.72s WALL (      20 calls)
     mix_rho      :    420.82s CPU    421.46s WALL (      20 calls)
     vdW_kernel   :     33.47s CPU     33.47s WALL (       1 calls)

     Called by c_bands:
     init_us_2    :     74.84s CPU     75.12s WALL (     546 calls)
     cegterg      :   9960.06s CPU  10054.58s WALL (     260 calls)

     Called by *egterg:
     cdiaghg      :    104.84s CPU    104.88s WALL (    1399 calls)
     h_psi        :   6468.92s CPU   6502.08s WALL (    1425 calls)
     s_psi        :   1055.34s CPU   1055.39s WALL (    1425 calls)
     g_psi        :     16.17s CPU     16.17s WALL (    1152 calls)

     Called by h_psi:
     h_psi:calbec :    997.90s CPU    998.07s WALL (    1425 calls)
     vloc_psi     :   4390.87s CPU   4392.26s WALL (    1425 calls)
     add_vuspsi   :   1054.88s CPU   1055.02s WALL (    1425 calls)

     General routines
     calbec       :   1464.86s CPU   1465.06s WALL (    1737 calls)
     fft          :     47.89s CPU     47.92s WALL (    3220 calls)
     ffts         :    135.46s CPU    135.49s WALL (    9634 calls)
     fftw         :   4484.22s CPU   4485.13s WALL (  335074 calls)
 
     Parallel routines
 
     PWSCF        :      3h45m CPU      3h47m WALL

 
   This run was terminated on:  14:20:30   4Jan2023            

=------------------------------------------------------------------------------=
   JOB DONE.
=------------------------------------------------------------------------------=
