
     Program PWSCF v.6.7MaX starts on 26Sep2022 at 14:12: 7 

     This program is part of the open-source Quantum ESPRESSO suite
     for quantum simulation of materials; please cite
         "P. Giannozzi et al., J. Phys.:Condens. Matter 21 395502 (2009);
         "P. Giannozzi et al., J. Phys.:Condens. Matter 29 465901 (2017);
          URL http://www.quantum-espresso.org", 
     in publications or presentations arising from this work. More details at
     http://www.quantum-espresso.org/quote

     Parallel version (MPI), running on     1 processors

     MPI processes distributed on     1 nodes
     Reading input from cch3-ensemble.in
Warning: card &CELL ignored
Warning: card / ignored

     Current dimensions of program PWSCF are:
     Max number of different atomic species (ntypx) = 10
     Max number of k-points (npk) =  40000
     Max angular momentum in pseudopotentials (lmaxx) =  3
     file Pt.pbe-n-kjpaw_psl.1.0.0.UPF: wavefunction(s)  6S 5D renormalized
     file C.pbe-n-kjpaw_psl.1.0.0.UPF: wavefunction(s)  2S 2P renormalized
     file H.pbe-kjpaw_psl.1.0.0.UPF: wavefunction(s)  1S renormalized

     **************************************************************************
     Initializing libbeef V0.1.2 with the BEEF-vdW functional.
     Citation: Wellendorff et al., PRB 85, 235149 (2012).
     **************************************************************************


     IMPORTANT: XC functional enforced from input :
     Exchange-correlation= BEEF-VDW
                           (   1   4  43  14   2   0   0)
     Any further DFT definition will be discarded
     Please, verify this is what you really want


     Subspace diagonalization in iterative solution of the eigenvalue problem:
     a serial algorithm will be used

 
     G-vector sticks info
     --------------------
     sticks:   dense  smooth     PW     G-vecs:    dense   smooth      PW
     Sum        4267    4267   1159               715195   715195  100637
 


     bravais-lattice index     =            0
     lattice parameter (alat)  =      16.0349  a.u.
     unit-cell volume          =   11385.2601 (a.u.)^3
     number of atoms/cell      =           41
     number of atomic types    =            3
     number of electrons       =       371.00
     number of Kohn-Sham states=          223
     kinetic-energy cutoff     =      60.0000  Ry
     charge density cutoff     =     240.0000  Ry
     scf convergence threshold =      1.0E-06
     mixing beta               =       0.7000
     number of iterations used =            8  local-TF  mixing
     Exchange-correlation= BEEF-VDW
                           (   1   4  43  14   2   0   0)

     celldm(1)=  16.034858  celldm(2)=   0.000000  celldm(3)=   0.000000
     celldm(4)=   0.000000  celldm(5)=   0.000000  celldm(6)=   0.000000

     crystal axes: (cart. coord. in units of alat)
               a(1) = (   1.000000   0.000000   0.000000 )  
               a(2) = (   0.500000   0.866025   0.000000 )  
               a(3) = (   0.000000   0.000000   3.188724 )  

     reciprocal axes: (cart. coord. in units 2 pi/alat)
               b(1) = (  1.000000 -0.577350  0.000000 )  
               b(2) = (  0.000000  1.154701  0.000000 )  
               b(3) = (  0.000000  0.000000  0.313605 )  


     PseudoPot. # 1 for Pt read from file:
     /users/bkreitz1/quantum-espresso/potentials/Pt.pbe-n-kjpaw_psl.1.0.0.UPF
     MD5 check sum: 04dc8a03c51ece93fc7b5889c2958091
     Pseudo is Projector augmented-wave + core cor, Zval = 10.0
     Generated using 'atomic' code by A. Dal Corso  v.6.7MaX
     Shape of augmentation charge: PSQ
     Using radial grid of 1277 points,  6 beta functions with: 
                l(1) =   0
                l(2) =   0
                l(3) =   1
                l(4) =   1
                l(5) =   2
                l(6) =   2
     Q(r) pseudized with 0 coefficients 


     PseudoPot. # 2 for C  read from file:
     /users/bkreitz1/quantum-espresso/potentials/C.pbe-n-kjpaw_psl.1.0.0.UPF
     MD5 check sum: a169b0ebad56f5ec0d79c4633f80bf22
     Pseudo is Projector augmented-wave + core cor, Zval =  4.0
     Generated using 'atomic' code by A. Dal Corso  v.6.7MaX
     Shape of augmentation charge: PSQ
     Using radial grid of 1073 points,  4 beta functions with: 
                l(1) =   0
                l(2) =   0
                l(3) =   1
                l(4) =   1
     Q(r) pseudized with 0 coefficients 


     PseudoPot. # 3 for H  read from file:
     /users/bkreitz1/quantum-espresso/potentials/H.pbe-kjpaw_psl.1.0.0.UPF
     MD5 check sum: ae98473e6dc62675f0d0baffdab24f65
     Pseudo is Projector augmented-wave, Zval =  1.0
     Generated using 'atomic' code by A. Dal Corso  v.6.7MaX
     Shape of augmentation charge: PSQ
     Using radial grid of  929 points,  2 beta functions with: 
                l(1) =   0
                l(2) =   0
     Q(r) pseudized with 0 coefficients 


     atomic species   valence    mass     pseudopotential
        Pt            10.00   195.08400     Pt( 1.00)
        C              4.00    12.01100     C ( 1.00)
        H              1.00     1.00800     H ( 1.00)

     No symmetry found



   Cartesian axes

     site n.     atom                  positions (alat units)
         1           Pt  tau(   1) = (   0.0000000   0.0000000   1.0017346  )
         2           Pt  tau(   2) = (   0.3333333   0.0000000   1.0017346  )
         3           Pt  tau(   3) = (   0.6666667   0.0000000   1.0017346  )
         4           Pt  tau(   4) = (   0.1666667   0.2886751   1.0017346  )
         5           Pt  tau(   5) = (   0.5000000   0.2886751   1.0017346  )
         6           Pt  tau(   6) = (   0.8333333   0.2886751   1.0017346  )
         7           Pt  tau(   7) = (   0.3333333   0.5773503   1.0017346  )
         8           Pt  tau(   8) = (   0.6666667   0.5773503   1.0017346  )
         9           Pt  tau(   9) = (   1.0000000   0.5773503   1.0017346  )
        10           Pt  tau(  10) = (   0.1666667   0.0962250   1.2739001  )
        11           Pt  tau(  11) = (   0.5000000   0.0962250   1.2739001  )
        12           Pt  tau(  12) = (   0.8333333   0.0962250   1.2739001  )
        13           Pt  tau(  13) = (   0.3333333   0.3849002   1.2739001  )
        14           Pt  tau(  14) = (   0.6666667   0.3849002   1.2739001  )
        15           Pt  tau(  15) = (   1.0000000   0.3849002   1.2739001  )
        16           Pt  tau(  16) = (   0.5000000   0.6735753   1.2739001  )
        17           Pt  tau(  17) = (   0.8333333   0.6735753   1.2739001  )
        18           Pt  tau(  18) = (   1.1666667   0.6735753   1.2739001  )
        19           Pt  tau(  19) = (   0.0000515   0.1921600   1.5426528  )
        20           Pt  tau(  20) = (   0.3340962   0.1920966   1.5458508  )
        21           Pt  tau(  21) = (   0.6660101   0.1920754   1.5460004  )
        22           Pt  tau(  22) = (   0.1670281   0.4813482   1.5426456  )
        23           Pt  tau(  23) = (   0.5000502   0.4793535   1.5455743  )
        24           Pt  tau(  24) = (   0.8331100   0.4813248   1.5426600  )
        25           Pt  tau(  25) = (   0.3317873   0.7707612   1.5456083  )
        26           Pt  tau(  26) = (   0.6681307   0.7706536   1.5454248  )
        27           Pt  tau(  27) = (   1.0000755   0.7706483   1.5458725  )
        28           Pt  tau(  28) = (  -0.0003288  -0.0000075   1.8178646  )
        29           Pt  tau(  29) = (   0.3295112  -0.0021479   1.8328777  )
        30           Pt  tau(  30) = (   0.6692942  -0.0017348   1.8337905  )
        31           Pt  tau(  31) = (   0.1636237   0.2904235   1.8171299  )
        32           Pt  tau(  32) = (   0.4997493   0.2919681   1.8336517  )
        33           Pt  tau(  33) = (   0.8361581   0.2903467   1.8171907  )
        34           Pt  tau(  34) = (   0.3332417   0.5773714   1.8178999  )
        35           Pt  tau(  35) = (   0.6664707   0.5771471   1.8178379  )
        36           Pt  tau(  36) = (   0.9999640   0.5739059   1.8171300  )
        37           C   tau(  37) = (   0.4983420   0.0954749   1.9670043  )
        38           C   tau(  38) = (   0.4977412   0.0954718   2.1433378  )
        39           H   tau(  39) = (   0.9979795   0.8404609   2.1877792  )
        40           H   tau(  40) = (   0.6024169   0.1561242   2.1880565  )
        41           H   tau(  41) = (   0.3927477   0.1558942   2.1886927  )

     number of k points=    13  Marzari-Vanderbilt smearing, width (Ry)=  0.0200
                       cart. coord. in units 2pi/alat
        k(    1) = (   0.0000000   0.0000000   0.0000000), wk =   0.0800000
        k(    2) = (   0.0000000   0.2309401   0.0000000), wk =   0.1600000
        k(    3) = (   0.0000000   0.4618802   0.0000000), wk =   0.1600000
        k(    4) = (   0.2000000  -0.1154701   0.0000000), wk =   0.1600000
        k(    5) = (   0.2000000   0.1154701   0.0000000), wk =   0.1600000
        k(    6) = (   0.2000000   0.3464102   0.0000000), wk =   0.1600000
        k(    7) = (   0.2000000  -0.5773503   0.0000000), wk =   0.1600000
        k(    8) = (   0.2000000  -0.3464102   0.0000000), wk =   0.1600000
        k(    9) = (   0.4000000  -0.2309401   0.0000000), wk =   0.1600000
        k(   10) = (   0.4000000  -0.0000000   0.0000000), wk =   0.1600000
        k(   11) = (   0.4000000   0.2309401   0.0000000), wk =   0.1600000
        k(   12) = (   0.4000000  -0.6928203   0.0000000), wk =   0.1600000
        k(   13) = (   0.4000000  -0.4618802   0.0000000), wk =   0.1600000

     Dense  grid:   715195 G-vectors     FFT dimensions: (  80,  80, 256)

     Estimated max dynamical RAM per process >       8.61 GB

     Check: negative core charge=   -0.000001

     Initial potential from superposition of free atoms

     starting charge  370.99378, renormalised to  371.00000

     negative rho (up, down):  1.131E-02 0.000E+00


     %%%%%%%%%%%%%%%%%%%%%%%%%%%%%%%%%%%%%%%%%%%%%%%%%%%%%%%%%%%%%%%%%%%%%%%%
     %                                                                      %
     % You are using vdW-DF, which was implemented by the Thonhauser group. %
     % Please cite the following two papers that made this development      %
     % possible and the two reviews that describe the various versions:     %
     %                                                                      %
     %   T. Thonhauser et al., PRL 115, 136402 (2015).                      %
     %   T. Thonhauser et al., PRB 76, 125112 (2007).                       %
     %   K. Berland et al., Rep. Prog. Phys. 78, 066501 (2015).             %
     %   D.C. Langreth et al., J. Phys.: Condens. Matter 21, 084203 (2009). %
     %                                                                      %
     %                                                                      %
     % If you are calculating the stress with vdW-DF, please also cite:     %
     %                                                                      %
     %   R. Sabatini et al., J. Phys.: Condens. Matter 24, 424209 (2012).   %
     %                                                                      %
     %%%%%%%%%%%%%%%%%%%%%%%%%%%%%%%%%%%%%%%%%%%%%%%%%%%%%%%%%%%%%%%%%%%%%%%%


     Starting wfcs are  335 randomized atomic wfcs
     Checking if some PAW data can be deallocated... 

     total cpu time spent up to now is      370.7 secs

     Self-consistent Calculation

     iteration #  1     ecut=    60.00 Ry     beta= 0.70
     Davidson diagonalization with overlap
     ethr =  1.00E-02,  avg # of iterations =  2.1

     Threshold (ethr) on eigenvalues was too large:
     Diagonalizing with lowered threshold

     Davidson diagonalization with overlap
     ethr =  6.53E-04,  avg # of iterations =  3.4

     negative rho (up, down):  1.136E-02 0.000E+00

     total cpu time spent up to now is     1826.8 secs

     total energy              =  -27795.68640815 Ry
     estimated scf accuracy    <       2.70360955 Ry

     iteration #  2     ecut=    60.00 Ry     beta= 0.70
     Davidson diagonalization with overlap
     ethr =  7.29E-04,  avg # of iterations =  2.0

     negative rho (up, down):  9.654E-03 0.000E+00

     total cpu time spent up to now is     2481.9 secs

     total energy              =  -27795.85112590 Ry
     estimated scf accuracy    <       1.16702350 Ry

     iteration #  3     ecut=    60.00 Ry     beta= 0.70
     Davidson diagonalization with overlap
     ethr =  3.15E-04,  avg # of iterations =  5.5

     negative rho (up, down):  7.186E-03 0.000E+00

     total cpu time spent up to now is     3171.4 secs

     total energy              =  -27795.90716222 Ry
     estimated scf accuracy    <       0.46320665 Ry

     iteration #  4     ecut=    60.00 Ry     beta= 0.70
     Davidson diagonalization with overlap
     ethr =  1.25E-04,  avg # of iterations = 10.2

     negative rho (up, down):  5.383E-03 0.000E+00

     total cpu time spent up to now is     3950.9 secs

     total energy              =  -27795.94790811 Ry
     estimated scf accuracy    <       0.18628181 Ry

     iteration #  5     ecut=    60.00 Ry     beta= 0.70
     Davidson diagonalization with overlap
     ethr =  5.02E-05,  avg # of iterations =  4.2

     negative rho (up, down):  3.803E-03 0.000E+00

     total cpu time spent up to now is     4674.9 secs

     total energy              =  -27795.96245416 Ry
     estimated scf accuracy    <       0.05017307 Ry

     iteration #  6     ecut=    60.00 Ry     beta= 0.70
     Davidson diagonalization with overlap
     c_bands:  2 eigenvalues not converged
     ethr =  1.35E-05,  avg # of iterations =  9.2

     negative rho (up, down):  3.309E-03 0.000E+00

     total cpu time spent up to now is     5611.9 secs

     total energy              =  -27795.97208198 Ry
     estimated scf accuracy    <       0.00861804 Ry

     iteration #  7     ecut=    60.00 Ry     beta= 0.70
     Davidson diagonalization with overlap
     c_bands:  2 eigenvalues not converged
     c_bands:  2 eigenvalues not converged
     ethr =  2.32E-06,  avg # of iterations = 13.8

     negative rho (up, down):  3.267E-03 0.000E+00

     total cpu time spent up to now is     6608.9 secs

     total energy              =  -27795.97415393 Ry
     estimated scf accuracy    <       0.00565380 Ry

     iteration #  8     ecut=    60.00 Ry     beta= 0.70
     Davidson diagonalization with overlap
     c_bands:  1 eigenvalues not converged
     c_bands:  1 eigenvalues not converged
     ethr =  1.52E-06,  avg # of iterations = 10.5

     negative rho (up, down):  3.527E-03 0.000E+00

     total cpu time spent up to now is     7337.8 secs

     total energy              =  -27795.97454560 Ry
     estimated scf accuracy    <       0.00273304 Ry

     iteration #  9     ecut=    60.00 Ry     beta= 0.70
     Davidson diagonalization with overlap
     ethr =  7.37E-07,  avg # of iterations =  3.3

     negative rho (up, down):  4.093E-03 0.000E+00

     total cpu time spent up to now is     7985.9 secs

     total energy              =  -27795.97473426 Ry
     estimated scf accuracy    <       0.00069211 Ry

     iteration # 10     ecut=    60.00 Ry     beta= 0.70
     Davidson diagonalization with overlap
     ethr =  1.87E-07,  avg # of iterations =  5.9

     negative rho (up, down):  4.880E-03 0.000E+00

     total cpu time spent up to now is     8713.4 secs

     total energy              =  -27795.97484290 Ry
     estimated scf accuracy    <       0.00058179 Ry

     iteration # 11     ecut=    60.00 Ry     beta= 0.70
     Davidson diagonalization with overlap
     ethr =  1.57E-07,  avg # of iterations =  1.7

     negative rho (up, down):  6.533E-03 0.000E+00

     total cpu time spent up to now is     9335.4 secs

     total energy              =  -27795.97488549 Ry
     estimated scf accuracy    <       0.00044583 Ry

     iteration # 12     ecut=    60.00 Ry     beta= 0.70
     Davidson diagonalization with overlap
     ethr =  1.20E-07,  avg # of iterations =  2.5

     negative rho (up, down):  7.794E-03 0.000E+00

     total cpu time spent up to now is     9971.6 secs

     total energy              =  -27795.97489638 Ry
     estimated scf accuracy    <       0.00034345 Ry

     iteration # 13     ecut=    60.00 Ry     beta= 0.70
     Davidson diagonalization with overlap
     ethr =  9.26E-08,  avg # of iterations =  1.2

     negative rho (up, down):  9.840E-03 0.000E+00

     total cpu time spent up to now is    10579.7 secs

     total energy              =  -27795.97488534 Ry
     estimated scf accuracy    <       0.00018651 Ry

     iteration # 14     ecut=    60.00 Ry     beta= 0.70
     Davidson diagonalization with overlap
     ethr =  5.03E-08,  avg # of iterations =  1.2

     negative rho (up, down):  1.049E-02 0.000E+00

     total cpu time spent up to now is    11181.8 secs

     total energy              =  -27795.97487821 Ry
     estimated scf accuracy    <       0.00010362 Ry

     iteration # 15     ecut=    60.00 Ry     beta= 0.70
     Davidson diagonalization with overlap
     ethr =  2.79E-08,  avg # of iterations =  2.0

     negative rho (up, down):  1.221E-02 0.000E+00

     total cpu time spent up to now is    11823.7 secs

     total energy              =  -27795.97486660 Ry
     estimated scf accuracy    <       0.00005424 Ry

     iteration # 16     ecut=    60.00 Ry     beta= 0.70
     Davidson diagonalization with overlap
     ethr =  1.46E-08,  avg # of iterations =  2.0

     negative rho (up, down):  1.223E-02 0.000E+00

     total cpu time spent up to now is    12481.6 secs

     total energy              =  -27795.97487577 Ry
     estimated scf accuracy    <       0.00001217 Ry

     iteration # 17     ecut=    60.00 Ry     beta= 0.70
     Davidson diagonalization with overlap
     ethr =  3.28E-09,  avg # of iterations =  4.3

     negative rho (up, down):  1.257E-02 0.000E+00

     total cpu time spent up to now is    13318.6 secs

     total energy              =  -27795.97487863 Ry
     estimated scf accuracy    <       0.00000461 Ry

     iteration # 18     ecut=    60.00 Ry     beta= 0.70
     Davidson diagonalization with overlap
     ethr =  1.24E-09,  avg # of iterations =  2.3

     negative rho (up, down):  1.255E-02 0.000E+00

     total cpu time spent up to now is    14020.1 secs

     total energy              =  -27795.97487984 Ry
     estimated scf accuracy    <       0.00000542 Ry

     iteration # 19     ecut=    60.00 Ry     beta= 0.70
     Davidson diagonalization with overlap
     ethr =  1.24E-09,  avg # of iterations =  2.0

     negative rho (up, down):  1.258E-02 0.000E+00

     total cpu time spent up to now is    14634.3 secs

     End of self-consistent calculation

          k = 0.0000 0.0000 0.0000 ( 89311 PWs)   bands (ev):

   -12.7164  -8.8789  -6.8103  -5.5310  -4.7254  -4.7146  -4.7097  -4.4617
    -4.4270  -4.4247  -4.4243  -4.3896  -4.3414  -4.3392  -4.1468  -3.8823
    -3.8760  -3.8753  -3.8391  -3.8377  -3.7969  -3.4632  -3.4604  -3.4231
    -3.4137  -3.4121  -3.2943  -3.2119  -3.2115  -3.1997  -3.1859  -3.1845
    -3.0957  -3.0545  -3.0536  -3.0017  -3.0003  -2.9862  -2.9413  -2.9205
    -2.9204  -2.9092  -2.8781  -2.8779  -2.5468  -2.3926  -2.3873  -2.3438
    -2.3427  -2.3344  -2.3163  -2.2744  -2.2734  -2.2683  -2.1122  -2.1117
    -2.0605  -2.0558  -2.0533  -1.8750  -1.8717  -1.6214  -1.6186  -1.5690
    -1.5415  -1.5404  -1.4936  -1.4683  -1.3777  -1.3760  -1.3570  -1.3409
    -1.3400  -1.3395  -1.3327  -1.3007  -1.2903  -1.2901  -1.2439  -1.2434
    -1.2405  -1.2280  -1.2279  -1.1573  -1.1536  -1.1477  -1.1278  -1.1248
    -1.1214  -0.9403  -0.9237  -0.9230  -0.8914  -0.8912  -0.8907  -0.8780
    -0.8777  -0.8170  -0.8165  -0.8019  -0.7129  -0.7129  -0.6739  -0.6695
    -0.6482  -0.5604  -0.5591  -0.5333  -0.5282  -0.5256  -0.5126  -0.4033
    -0.3966  -0.3680  -0.0731  -0.0710  -0.0486  -0.0036  -0.0024   0.0100
     0.0141   0.0155   0.0256   0.1381   0.1386   0.1981   0.1982   0.1995
     0.2372   0.2382   0.2719   0.2996   0.3425   0.4486   0.4499   0.4863
     0.4870   0.5351   0.5374   0.6925   0.7305   0.7314   0.7474   0.7849
     0.7871   0.8278   0.8306   0.9008   0.9021   0.9290   0.9729   0.9963
     0.9966   1.0253   1.0961   1.0982   1.1143   1.1631   1.1634   1.1789
     1.1790   1.1839   1.1931   1.2114   1.2119   1.2140   1.2849   1.2862
     1.3025   1.3032   1.3063   1.3795   1.3804   1.3948   1.3981   1.3991
     1.4389   1.4393   1.4860   1.5366   1.5406   1.5408   1.5459   1.5462
     1.5953   1.6196   1.6197   1.6492   1.6609   1.6616   1.6858   1.6982
     1.8355   1.8357   1.9433   1.9494   1.9494   1.9858   1.9859   2.0045
     2.5453   2.5480   2.5585   2.7679   2.8487   2.8492   2.8820   3.9944
     3.9962   4.8411   5.1470   5.1476   5.1657   5.6174   5.6248   6.0353
     6.6550   6.6986   6.7771   6.7791   6.8165   6.9263   6.9282

          k = 0.0000 0.2309 0.0000 ( 89332 PWs)   bands (ev):

   -12.7161  -8.8718  -6.6679  -5.4025  -4.9689  -4.7193  -4.6755  -4.6223
    -4.4851  -4.4601  -4.3213  -4.2206  -4.1783  -4.1644  -4.0824  -3.9691
    -3.9167  -3.8066  -3.8046  -3.7678  -3.7407  -3.4936  -3.4147  -3.3989
    -3.3756  -3.3512  -3.3238  -3.2724  -3.2558  -3.2278  -3.1831  -3.1773
    -3.1110  -3.0899  -3.0760  -3.0296  -3.0247  -2.9806  -2.9798  -2.8448
    -2.8263  -2.7638  -2.7475  -2.7260  -2.5635  -2.4785  -2.4705  -2.4382
    -2.4112  -2.3987  -2.3931  -2.2843  -2.2442  -2.1862  -2.1382  -2.1364
    -2.0633  -2.0489  -1.9922  -1.9123  -1.8766  -1.7915  -1.7111  -1.7066
    -1.6729  -1.6439  -1.6130  -1.5761  -1.5724  -1.5500  -1.5273  -1.4957
    -1.4479  -1.4106  -1.3729  -1.3609  -1.3396  -1.3171  -1.2567  -1.2485
    -1.2318  -1.1620  -1.1572  -1.1393  -1.1137  -1.0924  -1.0755  -1.0568
    -1.0135  -0.9801  -0.9722  -0.9407  -0.9213  -0.9064  -0.8887  -0.8731
    -0.8406  -0.8106  -0.7984  -0.7714  -0.7653  -0.7328  -0.7106  -0.7031
    -0.6606  -0.6200  -0.6123  -0.5856  -0.5588  -0.5181  -0.5165  -0.4882
    -0.4525  -0.4481  -0.4195  -0.4191  -0.2871  -0.2374  -0.2043  -0.0809
    -0.0513  -0.0217   0.0033   0.0055   0.0305   0.0488   0.1236   0.2023
     0.2628   0.2963   0.3018   0.3499   0.3647   0.3840   0.3951   0.4146
     0.4287   0.4615   0.4748   0.5900   0.6150   0.6202   0.6422   0.6635
     0.7280   0.7667   0.8069   0.8154   0.8407   0.8459   0.9130   0.9161
     0.9805   0.9894   0.9992   1.0189   1.0531   1.0862   1.1414   1.1431
     1.1942   1.2021   1.2037   1.2273   1.2656   1.3326   1.3594   1.3644
     1.4161   1.4314   1.4914   1.4991   1.5129   1.5417   1.5454   1.5598
     1.6128   1.6217   1.6311   1.6528   1.6684   1.7045   1.7079   1.7938
     1.8134   1.8528   1.8742   1.9007   1.9073   1.9321   1.9591   1.9723
     1.9917   2.0261   2.0743   2.1164   2.1603   2.2333   2.2734   2.2848
     2.3126   2.5597   2.6582   2.9869   3.2650   3.4425   3.5364   3.8787
     4.0712   4.6215   4.9281   5.1365   5.4876   5.6312   5.7678   5.9248
     5.9696   6.1568   6.6012   6.6749   6.7692   6.7996   6.9763

          k = 0.0000 0.4619 0.0000 ( 89376 PWs)   bands (ev):

   -12.7156  -8.8604  -6.2574  -5.6382  -5.0513  -4.7182  -4.7078  -4.5799
    -4.4691  -4.4537  -4.3277  -4.1796  -4.0355  -3.9354  -3.8490  -3.8369
    -3.8055  -3.6714  -3.6688  -3.6164  -3.6072  -3.6053  -3.4983  -3.4514
    -3.4416  -3.4064  -3.4011  -3.3835  -3.3384  -3.2801  -3.2739  -3.2352
    -3.1006  -3.0339  -3.0089  -3.0016  -2.9889  -2.9115  -2.8153  -2.7670
    -2.7627  -2.7509  -2.7345  -2.6222  -2.5480  -2.5444  -2.4945  -2.4553
    -2.3989  -2.3897  -2.3554  -2.3065  -2.3021  -2.2654  -2.2491  -2.1839
    -2.1665  -2.0891  -2.0687  -2.0533  -1.9926  -1.9194  -1.9042  -1.8593
    -1.8399  -1.8253  -1.7947  -1.6916  -1.6581  -1.6373  -1.5965  -1.5894
    -1.5250  -1.5183  -1.5023  -1.4025  -1.3840  -1.3681  -1.3275  -1.2861
    -1.2830  -1.2372  -1.2160  -1.1938  -1.1657  -1.1458  -1.1344  -1.1238
    -1.1097  -1.1060  -1.0733  -1.0639  -0.9999  -0.9799  -0.9499  -0.9261
    -0.9220  -0.8864  -0.8522  -0.8171  -0.7829  -0.7413  -0.7341  -0.7107
    -0.6805  -0.6703  -0.6248  -0.6069  -0.5661  -0.5084  -0.4719  -0.4607
    -0.4300  -0.3747  -0.3325  -0.2849  -0.2426  -0.1855  -0.1812  -0.1679
    -0.1184  -0.0759  -0.0654  -0.0615  -0.0185   0.0050   0.0354   0.0415
     0.0692   0.0836   0.0911   0.1168   0.1615   0.2349   0.2427   0.2913
     0.3218   0.3627   0.3984   0.4497   0.5261   0.5311   0.6021   0.6187
     0.6443   0.7209   0.7336   0.8047   0.8050   0.8527   0.8708   0.8781
     0.9104   0.9483   0.9494   0.9835   1.0481   1.0532   1.1076   1.1248
     1.1547   1.1587   1.2108   1.2646   1.3053   1.3686   1.3977   1.4240
     1.4533   1.5303   1.5360   1.5566   1.5613   1.5886   1.6249   1.6810
     1.6883   1.7070   1.7383   1.8278   1.8369   1.8581   1.8670   1.8832
     1.8952   1.9296   1.9587   2.0854   2.1074   2.1255   2.1313   2.1473
     2.2348   2.3659   2.4715   2.5715   2.6674   2.8529   3.1539   3.1620
     3.3125   3.4368   3.4493   3.8072   3.9055   4.0103   4.1683   4.4217
     4.4530   4.5278   4.5806   4.6679   4.8413   4.9566   5.2984   5.3354
     5.5863   5.7356   6.2014   6.2435   6.5152   6.7306   6.8033

          k = 0.2000-0.1155 0.0000 ( 89332 PWs)   bands (ev):

   -12.7161  -8.8718  -6.6679  -5.4025  -4.9683  -4.7249  -4.6711  -4.6216
    -4.4829  -4.4629  -4.3213  -4.2203  -4.1783  -4.1648  -4.0811  -3.9690
    -3.9166  -3.8067  -3.8046  -3.7692  -3.7398  -3.4934  -3.4130  -3.4007
    -3.3750  -3.3512  -3.3249  -3.2722  -3.2564  -3.2273  -3.1831  -3.1773
    -3.1113  -3.0901  -3.0757  -3.0294  -3.0251  -2.9806  -2.9799  -2.8448
    -2.8266  -2.7637  -2.7474  -2.7260  -2.5638  -2.4787  -2.4705  -2.4380
    -2.4113  -2.3990  -2.3924  -2.2838  -2.2442  -2.1862  -2.1382  -2.1362
    -2.0629  -2.0492  -1.9925  -1.9112  -1.8774  -1.7911  -1.7111  -1.7067
    -1.6727  -1.6441  -1.6126  -1.5759  -1.5727  -1.5501  -1.5274  -1.4957
    -1.4479  -1.4106  -1.3724  -1.3609  -1.3396  -1.3170  -1.2570  -1.2488
    -1.2319  -1.1618  -1.1572  -1.1392  -1.1137  -1.0922  -1.0756  -1.0567
    -1.0136  -0.9801  -0.9721  -0.9407  -0.9213  -0.9064  -0.8887  -0.8731
    -0.8407  -0.8106  -0.7985  -0.7714  -0.7653  -0.7329  -0.7106  -0.7030
    -0.6607  -0.6199  -0.6126  -0.5853  -0.5587  -0.5183  -0.5166  -0.4882
    -0.4525  -0.4480  -0.4194  -0.4191  -0.2875  -0.2372  -0.2039  -0.0809
    -0.0513  -0.0219   0.0032   0.0054   0.0305   0.0488   0.1237   0.2022
     0.2627   0.2964   0.3018   0.3497   0.3646   0.3839   0.3954   0.4144
     0.4287   0.4613   0.4749   0.5901   0.6150   0.6202   0.6420   0.6634
     0.7280   0.7667   0.8069   0.8153   0.8406   0.8460   0.9129   0.9162
     0.9804   0.9893   0.9992   1.0190   1.0532   1.0861   1.1414   1.1431
     1.1942   1.2022   1.2037   1.2273   1.2654   1.3328   1.3593   1.3644
     1.4162   1.4312   1.4914   1.4992   1.5128   1.5417   1.5454   1.5598
     1.6128   1.6217   1.6312   1.6528   1.6684   1.7045   1.7078   1.7940
     1.8133   1.8528   1.8742   1.9006   1.9074   1.9322   1.9592   1.9724
     1.9918   2.0262   2.0743   2.1164   2.1602   2.2335   2.2735   2.2849
     2.3124   2.5598   2.6583   2.9866   3.2654   3.4425   3.5362   3.8779
     4.0724   4.6206   4.9284   5.1371   5.4875   5.6311   5.7677   5.9254
     5.9693   6.1569   6.6012   6.6749   6.7691   6.7982   6.9763

          k = 0.2000 0.1155 0.0000 ( 89332 PWs)   bands (ev):

   -12.7161  -8.8717  -6.6679  -5.4027  -4.9702  -4.7158  -4.6767  -4.6228
    -4.4840  -4.4610  -4.3213  -4.2203  -4.1786  -4.1648  -4.0817  -3.9691
    -3.9168  -3.8072  -3.8046  -3.7681  -3.7402  -3.4938  -3.4141  -3.3995
    -3.3761  -3.3512  -3.3241  -3.2725  -3.2554  -3.2269  -3.1831  -3.1772
    -3.1112  -3.0893  -3.0771  -3.0296  -3.0262  -2.9804  -2.9792  -2.8453
    -2.8256  -2.7641  -2.7480  -2.7260  -2.5644  -2.4768  -2.4715  -2.4380
    -2.4115  -2.3968  -2.3928  -2.2846  -2.2438  -2.1898  -2.1381  -2.1356
    -2.0645  -2.0469  -1.9942  -1.9111  -1.8764  -1.7909  -1.7117  -1.7070
    -1.6736  -1.6402  -1.6155  -1.5754  -1.5713  -1.5497  -1.5266  -1.4957
    -1.4483  -1.4108  -1.3735  -1.3611  -1.3399  -1.3171  -1.2555  -1.2492
    -1.2317  -1.1629  -1.1567  -1.1394  -1.1138  -1.0933  -1.0745  -1.0586
    -1.0138  -0.9812  -0.9721  -0.9407  -0.9212  -0.9058  -0.8871  -0.8719
    -0.8397  -0.8112  -0.7995  -0.7711  -0.7653  -0.7320  -0.7115  -0.7043
    -0.6610  -0.6211  -0.6113  -0.5869  -0.5577  -0.5168  -0.5157  -0.4882
    -0.4528  -0.4480  -0.4195  -0.4191  -0.2809  -0.2410  -0.2066  -0.0812
    -0.0501  -0.0215   0.0033   0.0059   0.0312   0.0484   0.1238   0.2033
     0.2626   0.2953   0.3023   0.3491   0.3642   0.3854   0.3943   0.4148
     0.4283   0.4607   0.4735   0.5896   0.6153   0.6203   0.6423   0.6669
     0.7270   0.7671   0.8076   0.8168   0.8419   0.8467   0.9134   0.9166
     0.9809   0.9898   0.9988   1.0187   1.0520   1.0870   1.1413   1.1433
     1.1934   1.2022   1.2035   1.2275   1.2660   1.3317   1.3595   1.3646
     1.4153   1.4314   1.4912   1.4989   1.5134   1.5415   1.5453   1.5599
     1.6131   1.6215   1.6305   1.6530   1.6685   1.7042   1.7081   1.7934
     1.8128   1.8525   1.8741   1.9011   1.9065   1.9317   1.9589   1.9719
     1.9916   2.0258   2.0741   2.1166   2.1600   2.2331   2.2732   2.2844
     2.3130   2.5617   2.6575   2.9848   3.2643   3.4428   3.5372   3.8768
     4.0732   4.6216   4.9282   5.1341   5.4877   5.6316   5.7685   5.9220
     5.9715   6.1569   6.6028   6.6756   6.7689   6.8021   6.9745

          k = 0.2000 0.3464 0.0000 ( 89348 PWs)   bands (ev):

   -12.7157  -8.8625  -6.3906  -5.2318  -5.2024  -5.1193  -4.6255  -4.6159
    -4.5375  -4.1134  -4.1041  -4.0909  -4.0530  -4.0356  -4.0317  -3.9921
    -3.9121  -3.9031  -3.8195  -3.5419  -3.5340  -3.5113  -3.5081  -3.4387
    -3.4183  -3.3666  -3.3095  -3.2985  -3.2704  -3.2312  -3.1881  -3.1657
    -3.1608  -3.1345  -3.0750  -3.0509  -3.0368  -2.9951  -2.9646  -2.8794
    -2.8252  -2.6554  -2.6143  -2.5634  -2.5541  -2.5266  -2.5013  -2.4742
    -2.4283  -2.4024  -2.3580  -2.2913  -2.2567  -2.2005  -2.1822  -2.1255
    -2.1106  -2.1067  -2.0264  -2.0044  -1.9806  -1.9434  -1.8841  -1.8137
    -1.8045  -1.7620  -1.7256  -1.6979  -1.6540  -1.6392  -1.6199  -1.5914
    -1.5486  -1.4497  -1.4323  -1.4236  -1.3985  -1.3710  -1.3616  -1.2923
    -1.2687  -1.2391  -1.2200  -1.1513  -1.1275  -1.1141  -1.0924  -1.0776
    -1.0671  -1.0562  -1.0148  -1.0094  -0.9747  -0.9699  -0.9376  -0.8655
    -0.8605  -0.8277  -0.8094  -0.8052  -0.7919  -0.7626  -0.7293  -0.7116
    -0.6955  -0.6836  -0.6726  -0.6677  -0.6442  -0.6219  -0.5325  -0.5272
    -0.4702  -0.4177  -0.3971  -0.3762  -0.3514  -0.2348  -0.2222  -0.1824
    -0.1359  -0.1206  -0.0437  -0.0156  -0.0041   0.0254   0.0637   0.0764
     0.1187   0.1404   0.1520   0.2197   0.2383   0.3152   0.3532   0.3733
     0.3897   0.4105   0.4402   0.5003   0.5231   0.5649   0.5936   0.6166
     0.6876   0.7050   0.7317   0.7503   0.7693   0.8222   0.8607   0.8848
     0.9279   0.9496   0.9568   0.9753   0.9953   1.0066   1.0268   1.0541
     1.1177   1.1673   1.2502   1.2744   1.3226   1.4061   1.4935   1.5013
     1.5137   1.5413   1.5646   1.6117   1.6498   1.6662   1.6791   1.7070
     1.7207   1.7335   1.7550   1.7688   1.7961   1.8158   1.8587   1.8869
     1.9108   1.9275   1.9528   2.0015   2.0763   2.1230   2.1750   2.1811
     2.2021   2.2378   2.2744   2.3353   2.3986   2.5830   2.8342   2.9311
     3.1669   3.2215   3.4428   3.4677   3.5940   3.9704   4.0284   4.2355
     4.3652   4.4254   4.5532   4.6973   5.2878   5.4575   5.6346   5.7202
     5.9272   6.1414   6.3012   6.3247   6.3787   6.4070   6.4951

          k = 0.2000-0.5774 0.0000 ( 89368 PWs)   bands (ev):

   -12.7154  -8.8569  -5.8951  -5.8434  -5.2798  -4.8306  -4.7079  -4.5968
    -4.4560  -4.3839  -4.0837  -4.0650  -3.9550  -3.9172  -3.8156  -3.8073
    -3.7058  -3.6993  -3.6362  -3.6010  -3.5762  -3.5693  -3.5524  -3.5142
    -3.4634  -3.3976  -3.3780  -3.3685  -3.3458  -3.3317  -3.2940  -3.2252
    -3.1268  -3.0848  -3.0593  -3.0130  -2.9862  -2.9622  -2.9336  -2.9033
    -2.7553  -2.7502  -2.6683  -2.5760  -2.5559  -2.5233  -2.5059  -2.4317
    -2.4092  -2.3294  -2.2944  -2.2658  -2.2272  -2.1976  -2.1542  -2.1383
    -2.0888  -2.0703  -2.0347  -2.0134  -1.9656  -1.9614  -1.9270  -1.9176
    -1.8930  -1.8712  -1.8426  -1.8008  -1.7793  -1.7185  -1.6837  -1.6462
    -1.6176  -1.5189  -1.4939  -1.4914  -1.4536  -1.4288  -1.4122  -1.3814
    -1.3385  -1.2922  -1.2858  -1.2659  -1.2419  -1.1992  -1.1623  -1.1133
    -1.0863  -1.0752  -1.0473  -1.0374  -0.9656  -0.9369  -0.8945  -0.8860
    -0.8558  -0.8283  -0.8105  -0.7878  -0.7820  -0.7618  -0.7492  -0.7140
    -0.6951  -0.6803  -0.6664  -0.6311  -0.6219  -0.6150  -0.6034  -0.5716
    -0.5534  -0.5106  -0.3660  -0.3335  -0.2884  -0.2537  -0.2168  -0.1538
    -0.1352  -0.1052  -0.0976  -0.0738  -0.0340  -0.0207  -0.0078   0.0226
     0.0606   0.0931   0.1302   0.1420   0.2333   0.2440   0.2526   0.3234
     0.3303   0.4226   0.4626   0.4767   0.5148   0.5564   0.5849   0.6070
     0.6302   0.6598   0.6754   0.6997   0.7071   0.7807   0.7987   0.8216
     0.8272   0.8864   0.9027   0.9423   0.9493   1.0172   1.0679   1.1475
     1.1830   1.2428   1.2994   1.3506   1.3686   1.4152   1.4323   1.4964
     1.5058   1.5455   1.5964   1.6389   1.6550   1.6848   1.7073   1.7212
     1.7680   1.7850   1.8443   1.8547   1.8606   1.8803   1.9094   1.9228
     1.9345   2.0094   2.0359   2.0884   2.1245   2.1528   2.1558   2.2071
     2.2327   2.2882   2.3952   2.8806   3.0566   3.2304   3.3190   3.3870
     3.5377   3.6107   3.6282   3.8291   3.9971   4.1689   4.3392   4.4451
     4.4601   4.7937   4.8124   4.9954   5.0332   5.1409   5.2011   5.2507
     5.3997   5.5869   5.6939   5.9387   6.2161   6.3737   6.4145

          k = 0.2000-0.3464 0.0000 ( 89348 PWs)   bands (ev):

   -12.7157  -8.8626  -6.3905  -5.2301  -5.2032  -5.1194  -4.6310  -4.6131
    -4.5368  -4.1136  -4.1038  -4.0911  -4.0530  -4.0363  -4.0306  -3.9917
    -3.9121  -3.9027  -3.8193  -3.5417  -3.5336  -3.5115  -3.5079  -3.4393
    -3.4181  -3.3674  -3.3096  -3.2980  -3.2705  -3.2308  -3.1886  -3.1656
    -3.1601  -3.1348  -3.0738  -3.0512  -3.0367  -2.9949  -2.9657  -2.8797
    -2.8237  -2.6538  -2.6155  -2.5615  -2.5539  -2.5273  -2.5016  -2.4740
    -2.4292  -2.4027  -2.3589  -2.2899  -2.2564  -2.1986  -2.1832  -2.1255
    -2.1116  -2.1082  -2.0262  -2.0048  -1.9811  -1.9419  -1.8858  -1.8146
    -1.8042  -1.7619  -1.7265  -1.6949  -1.6545  -1.6405  -1.6203  -1.5905
    -1.5481  -1.4493  -1.4317  -1.4236  -1.3981  -1.3726  -1.3621  -1.2922
    -1.2674  -1.2388  -1.2194  -1.1505  -1.1260  -1.1117  -1.0939  -1.0776
    -1.0684  -1.0558  -1.0151  -1.0085  -0.9753  -0.9710  -0.9390  -0.8651
    -0.8614  -0.8268  -0.8088  -0.8058  -0.7909  -0.7624  -0.7302  -0.7118
    -0.6968  -0.6853  -0.6724  -0.6690  -0.6425  -0.6221  -0.5298  -0.5276
    -0.4698  -0.4193  -0.3974  -0.3783  -0.3505  -0.2347  -0.2253  -0.1800
    -0.1367  -0.1199  -0.0439  -0.0152  -0.0049   0.0242   0.0642   0.0773
     0.1197   0.1407   0.1522   0.2196   0.2396   0.3138   0.3534   0.3734
     0.3897   0.4101   0.4392   0.4983   0.5244   0.5646   0.5935   0.6167
     0.6874   0.7046   0.7317   0.7475   0.7689   0.8212   0.8618   0.8843
     0.9273   0.9496   0.9570   0.9758   0.9950   1.0058   1.0268   1.0539
     1.1178   1.1668   1.2503   1.2747   1.3226   1.4062   1.4941   1.5014
     1.5127   1.5418   1.5642   1.6113   1.6500   1.6665   1.6789   1.7067
     1.7205   1.7333   1.7549   1.7686   1.7968   1.8162   1.8593   1.8868
     1.9121   1.9278   1.9527   2.0017   2.0759   2.1231   2.1753   2.1820
     2.2022   2.2380   2.2740   2.3355   2.3983   2.5862   2.8342   2.9294
     3.1651   3.2233   3.4422   3.4673   3.5995   3.9700   4.0266   4.2360
     4.3649   4.4252   4.5572   4.6977   5.2842   5.4608   5.6348   5.7229
     5.9272   6.1388   6.3004   6.3256   6.3773   6.4068   6.4936

          k = 0.4000-0.2309 0.0000 ( 89376 PWs)   bands (ev):

   -12.7156  -8.8604  -6.2574  -5.6381  -5.0508  -4.7212  -4.7061  -4.5800
    -4.4658  -4.4583  -4.3252  -4.1794  -4.0354  -3.9354  -3.8490  -3.8370
    -3.8051  -3.6721  -3.6681  -3.6159  -3.6080  -3.6051  -3.4981  -3.4514
    -3.4412  -3.4063  -3.4018  -3.3835  -3.3384  -3.2800  -3.2742  -3.2351
    -3.1024  -3.0338  -3.0090  -3.0018  -2.9889  -2.9117  -2.8159  -2.7670
    -2.7626  -2.7512  -2.7345  -2.6224  -2.5475  -2.5448  -2.4933  -2.4553
    -2.3990  -2.3891  -2.3550  -2.3065  -2.3023  -2.2653  -2.2493  -2.1842
    -2.1648  -2.0887  -2.0687  -2.0535  -1.9927  -1.9199  -1.9041  -1.8590
    -1.8397  -1.8251  -1.7951  -1.6915  -1.6579  -1.6373  -1.5963  -1.5897
    -1.5248  -1.5185  -1.5022  -1.4026  -1.3842  -1.3680  -1.3275  -1.2859
    -1.2829  -1.2369  -1.2161  -1.1938  -1.1657  -1.1457  -1.1344  -1.1236
    -1.1096  -1.1060  -1.0733  -1.0638  -0.9999  -0.9798  -0.9498  -0.9262
    -0.9219  -0.8863  -0.8522  -0.8170  -0.7831  -0.7414  -0.7344  -0.7107
    -0.6806  -0.6706  -0.6248  -0.6070  -0.5662  -0.5085  -0.4719  -0.4607
    -0.4301  -0.3750  -0.3328  -0.2852  -0.2424  -0.1859  -0.1812  -0.1679
    -0.1184  -0.0756  -0.0656  -0.0612  -0.0186   0.0051   0.0355   0.0415
     0.0697   0.0838   0.0908   0.1168   0.1615   0.2350   0.2426   0.2913
     0.3216   0.3624   0.3985   0.4494   0.5261   0.5308   0.6020   0.6185
     0.6447   0.7209   0.7335   0.8046   0.8050   0.8527   0.8710   0.8780
     0.9103   0.9483   0.9495   0.9835   1.0482   1.0532   1.1077   1.1248
     1.1547   1.1583   1.2108   1.2646   1.3053   1.3685   1.3976   1.4242
     1.4532   1.5303   1.5360   1.5565   1.5613   1.5887   1.6249   1.6810
     1.6883   1.7069   1.7382   1.8278   1.8369   1.8582   1.8672   1.8832
     1.8952   1.9297   1.9588   2.0855   2.1076   2.1255   2.1314   2.1474
     2.2348   2.3659   2.4702   2.5716   2.6680   2.8530   3.1541   3.1619
     3.3120   3.4370   3.4498   3.8069   3.9067   4.0101   4.1687   4.4218
     4.4531   4.5277   4.5806   4.6678   4.8414   4.9569   5.2981   5.3362
     5.5861   5.7353   6.2007   6.2433   6.5154   6.7304   6.8035

          k = 0.4000-0.0000 0.0000 ( 89348 PWs)   bands (ev):

   -12.7157  -8.8625  -6.3906  -5.2314  -5.2025  -5.1194  -4.6304  -4.6131
    -4.5359  -4.1136  -4.1041  -4.0909  -4.0530  -4.0359  -4.0303  -3.9924
    -3.9121  -3.9026  -3.8198  -3.5421  -3.5342  -3.5113  -3.5082  -3.4389
    -3.4181  -3.3649  -3.3099  -3.2985  -3.2705  -3.2324  -3.1885  -3.1657
    -3.1605  -3.1346  -3.0749  -3.0510  -3.0368  -2.9955  -2.9650  -2.8796
    -2.8263  -2.6551  -2.6138  -2.5631  -2.5538  -2.5268  -2.5012  -2.4742
    -2.4284  -2.4022  -2.3577  -2.2912  -2.2566  -2.2001  -2.1821  -2.1251
    -2.1104  -2.1070  -2.0263  -2.0048  -1.9807  -1.9429  -1.8847  -1.8136
    -1.8043  -1.7620  -1.7251  -1.6976  -1.6541  -1.6393  -1.6199  -1.5915
    -1.5485  -1.4497  -1.4321  -1.4236  -1.3985  -1.3712  -1.3616  -1.2922
    -1.2686  -1.2392  -1.2200  -1.1513  -1.1272  -1.1138  -1.0925  -1.0777
    -1.0673  -1.0563  -1.0148  -1.0093  -0.9748  -0.9702  -0.9377  -0.8655
    -0.8607  -0.8277  -0.8096  -0.8052  -0.7918  -0.7625  -0.7294  -0.7117
    -0.6957  -0.6838  -0.6726  -0.6678  -0.6440  -0.6220  -0.5323  -0.5272
    -0.4701  -0.4176  -0.3971  -0.3765  -0.3514  -0.2346  -0.2225  -0.1825
    -0.1360  -0.1205  -0.0437  -0.0157  -0.0043   0.0253   0.0637   0.0765
     0.1187   0.1404   0.1520   0.2195   0.2386   0.3153   0.3533   0.3732
     0.3896   0.4103   0.4401   0.4999   0.5232   0.5647   0.5937   0.6166
     0.6875   0.7050   0.7317   0.7499   0.7693   0.8224   0.8608   0.8848
     0.9279   0.9496   0.9568   0.9754   0.9953   1.0066   1.0269   1.0542
     1.1178   1.1672   1.2503   1.2743   1.3225   1.4061   1.4935   1.5013
     1.5135   1.5413   1.5646   1.6117   1.6499   1.6663   1.6790   1.7070
     1.7207   1.7335   1.7550   1.7688   1.7961   1.8159   1.8587   1.8869
     1.9109   1.9275   1.9528   2.0015   2.0766   2.1230   2.1750   2.1812
     2.2022   2.2378   2.2744   2.3353   2.3985   2.5828   2.8345   2.9309
     3.1669   3.2216   3.4428   3.4676   3.5940   3.9716   4.0276   4.2357
     4.3652   4.4254   4.5541   4.6970   5.2870   5.4579   5.6346   5.7206
     5.9274   6.1407   6.3010   6.3248   6.3791   6.4071   6.4949

          k = 0.4000 0.2309 0.0000 ( 89376 PWs)   bands (ev):

   -12.7156  -8.8602  -6.2576  -5.6386  -5.0521  -4.7149  -4.7094  -4.5798
    -4.4678  -4.4545  -4.3272  -4.1793  -4.0355  -3.9355  -3.8499  -3.8369
    -3.8055  -3.6724  -3.6686  -3.6162  -3.6072  -3.6052  -3.4991  -3.4510
    -3.4415  -3.4066  -3.4013  -3.3838  -3.3389  -3.2793  -3.2739  -3.2350
    -3.1015  -3.0344  -3.0091  -3.0017  -2.9884  -2.9118  -2.8153  -2.7671
    -2.7645  -2.7507  -2.7345  -2.6229  -2.5484  -2.5440  -2.4964  -2.4556
    -2.3979  -2.3895  -2.3558  -2.3062  -2.3019  -2.2655  -2.2479  -2.1847
    -2.1676  -2.0889  -2.0680  -2.0537  -1.9931  -1.9175  -1.9038  -1.8595
    -1.8419  -1.8262  -1.7909  -1.6919  -1.6596  -1.6362  -1.5971  -1.5872
    -1.5253  -1.5167  -1.5020  -1.4024  -1.3840  -1.3693  -1.3277  -1.2870
    -1.2834  -1.2387  -1.2159  -1.1935  -1.1664  -1.1465  -1.1348  -1.1242
    -1.1105  -1.1057  -1.0738  -1.0659  -0.9990  -0.9794  -0.9505  -0.9254
    -0.9224  -0.8857  -0.8517  -0.8168  -0.7821  -0.7399  -0.7343  -0.7101
    -0.6797  -0.6689  -0.6246  -0.6064  -0.5661  -0.5082  -0.4715  -0.4607
    -0.4290  -0.3714  -0.3329  -0.2809  -0.2432  -0.1857  -0.1804  -0.1674
    -0.1197  -0.0773  -0.0640  -0.0633  -0.0183   0.0040   0.0349   0.0412
     0.0659   0.0823   0.0926   0.1168   0.1611   0.2344   0.2440   0.2913
     0.3231   0.3622   0.3969   0.4482   0.5284   0.5320   0.6046   0.6176
     0.6444   0.7217   0.7357   0.8041   0.8055   0.8536   0.8709   0.8782
     0.9113   0.9489   0.9490   0.9830   1.0476   1.0539   1.1074   1.1240
     1.1556   1.1612   1.2118   1.2646   1.3052   1.3690   1.3980   1.4224
     1.4519   1.5306   1.5359   1.5558   1.5614   1.5879   1.6248   1.6807
     1.6880   1.7074   1.7384   1.8283   1.8366   1.8579   1.8662   1.8831
     1.8949   1.9292   1.9588   2.0850   2.1062   2.1258   2.1312   2.1470
     2.2347   2.3659   2.4736   2.5723   2.6672   2.8521   3.1524   3.1616
     3.3112   3.4362   3.4465   3.8090   3.9051   4.0088   4.1664   4.4218
     4.4521   4.5272   4.5797   4.6696   4.8411   4.9547   5.2986   5.3367
     5.5873   5.7348   6.2025   6.2453   6.5155   6.7308   6.8022

          k = 0.4000-0.6928 0.0000 ( 89368 PWs)   bands (ev):

   -12.7154  -8.8567  -5.8957  -5.8433  -5.2794  -4.8322  -4.7073  -4.5954
    -4.4550  -4.3847  -4.0839  -4.0645  -3.9549  -3.9171  -3.8154  -3.8075
    -3.7060  -3.6993  -3.6369  -3.6012  -3.5764  -3.5690  -3.5528  -3.5143
    -3.4645  -3.3973  -3.3778  -3.3681  -3.3455  -3.3321  -3.2935  -3.2244
    -3.1268  -3.0854  -3.0596  -3.0133  -2.9871  -2.9621  -2.9337  -2.9044
    -2.7562  -2.7490  -2.6688  -2.5768  -2.5561  -2.5230  -2.5040  -2.4318
    -2.4111  -2.3299  -2.2924  -2.2684  -2.2272  -2.1980  -2.1528  -2.1375
    -2.0906  -2.0704  -2.0345  -2.0135  -1.9647  -1.9594  -1.9274  -1.9180
    -1.8923  -1.8706  -1.8423  -1.8015  -1.7793  -1.7205  -1.6814  -1.6460
    -1.6174  -1.5173  -1.4939  -1.4907  -1.4530  -1.4298  -1.4129  -1.3822
    -1.3410  -1.2922  -1.2848  -1.2689  -1.2418  -1.1991  -1.1603  -1.1142
    -1.0865  -1.0750  -1.0465  -1.0374  -0.9645  -0.9369  -0.8952  -0.8865
    -0.8559  -0.8285  -0.8108  -0.7870  -0.7825  -0.7614  -0.7485  -0.7147
    -0.6944  -0.6791  -0.6667  -0.6313  -0.6210  -0.6140  -0.6034  -0.5720
    -0.5527  -0.5106  -0.3647  -0.3341  -0.2898  -0.2533  -0.2158  -0.1537
    -0.1356  -0.1068  -0.0970  -0.0742  -0.0340  -0.0212  -0.0076   0.0227
     0.0605   0.0925   0.1315   0.1423   0.2338   0.2439   0.2527   0.3244
     0.3304   0.4233   0.4609   0.4785   0.5132   0.5558   0.5857   0.6066
     0.6306   0.6599   0.6751   0.6996   0.7078   0.7811   0.7992   0.8217
     0.8256   0.8862   0.9033   0.9432   0.9503   1.0186   1.0681   1.1480
     1.1827   1.2418   1.2994   1.3503   1.3681   1.4149   1.4323   1.4961
     1.5061   1.5457   1.5966   1.6392   1.6549   1.6851   1.7075   1.7214
     1.7672   1.7852   1.8435   1.8544   1.8611   1.8799   1.9095   1.9226
     1.9345   2.0095   2.0362   2.0884   2.1244   2.1528   2.1555   2.2074
     2.2324   2.2891   2.3954   2.8774   3.0585   3.2282   3.3190   3.3869
     3.5377   3.6109   3.6296   3.8294   3.9959   4.1660   4.3390   4.4451
     4.4564   4.7957   4.8111   4.9980   5.0332   5.1396   5.2014   5.2509
     5.3986   5.5855   5.6952   5.9404   6.2155   6.3750   6.4156

          k = 0.4000-0.4619 0.0000 ( 89368 PWs)   bands (ev):

   -12.7154  -8.8569  -5.8950  -5.8435  -5.2799  -4.8285  -4.7084  -4.6041
    -4.4481  -4.3857  -4.0838  -4.0655  -3.9551  -3.9170  -3.8156  -3.8073
    -3.7061  -3.6992  -3.6354  -3.6010  -3.5758  -3.5694  -3.5523  -3.5142
    -3.4636  -3.3976  -3.3781  -3.3686  -3.3467  -3.3317  -3.2936  -3.2251
    -3.1268  -3.0858  -3.0597  -3.0133  -2.9862  -2.9623  -2.9336  -2.9033
    -2.7550  -2.7502  -2.6689  -2.5759  -2.5560  -2.5226  -2.5057  -2.4316
    -2.4093  -2.3283  -2.2948  -2.2655  -2.2271  -2.1976  -2.1548  -2.1385
    -2.0888  -2.0702  -2.0349  -2.0130  -1.9656  -1.9610  -1.9270  -1.9175
    -1.8932  -1.8713  -1.8425  -1.8009  -1.7795  -1.7181  -1.6839  -1.6462
    -1.6176  -1.5191  -1.4937  -1.4915  -1.4537  -1.4287  -1.4122  -1.3813
    -1.3381  -1.2922  -1.2858  -1.2655  -1.2419  -1.1991  -1.1624  -1.1132
    -1.0862  -1.0751  -1.0473  -1.0376  -0.9658  -0.9369  -0.8943  -0.8859
    -0.8560  -0.8283  -0.8106  -0.7879  -0.7820  -0.7620  -0.7494  -0.7141
    -0.6952  -0.6804  -0.6662  -0.6311  -0.6220  -0.6151  -0.6034  -0.5716
    -0.5535  -0.5105  -0.3663  -0.3335  -0.2885  -0.2537  -0.2171  -0.1539
    -0.1350  -0.1050  -0.0974  -0.0737  -0.0340  -0.0206  -0.0078   0.0226
     0.0606   0.0933   0.1300   0.1419   0.2333   0.2440   0.2527   0.3234
     0.3301   0.4225   0.4627   0.4765   0.5150   0.5563   0.5848   0.6071
     0.6301   0.6599   0.6755   0.6996   0.7071   0.7807   0.7986   0.8216
     0.8271   0.8864   0.9025   0.9422   0.9492   1.0170   1.0678   1.1477
     1.1831   1.2428   1.2994   1.3506   1.3686   1.4153   1.4323   1.4965
     1.5059   1.5455   1.5963   1.6389   1.6550   1.6848   1.7072   1.7211
     1.7680   1.7850   1.8443   1.8547   1.8606   1.8804   1.9094   1.9229
     1.9345   2.0094   2.0359   2.0884   2.1245   2.1529   2.1559   2.2071
     2.2329   2.2881   2.3953   2.8799   3.0560   3.2313   3.3190   3.3874
     3.5377   3.6107   3.6281   3.8295   3.9964   4.1695   4.3392   4.4452
     4.4609   4.7937   4.8125   4.9954   5.0334   5.1413   5.2011   5.2502
     5.3993   5.5869   5.6937   5.9384   6.2164   6.3734   6.4140

     the Fermi energy is     1.9286 ev

!    total energy              =  -27795.97487975 Ry

     total all-electron energy =  -1326798.268482 Ry
     estimated scf accuracy    <       0.00000043 Ry
     smearing contrib. (-TS)   =       0.00498045 Ry
     internal energy E=F+TS    =  -27795.97986020 Ry

     The total energy is F=E-TS. E is the sum of the following terms:
     one-electron contribution =  -27104.32139014 Ry
     hartree contribution      =   13854.92553275 Ry
     xc contribution           =    -901.86279577 Ry
     ewald contribution        =   11842.35454657 Ry
     one-center paw contrib.   =  -25487.07575361 Ry

     convergence has been achieved in  19 iterations

     negative rho (up, down):  1.258E-02 0.000E+00

     Forces acting on atoms (cartesian axes, Ry/au):

     atom    1 type  1   force =     0.00004472    0.00118788   -0.00381523
     atom    2 type  1   force =    -0.00003420   -0.00004100   -0.00331930
     atom    3 type  1   force =     0.00006511   -0.00004898   -0.00329951
     atom    4 type  1   force =    -0.00023750    0.00012144   -0.00405489
     atom    5 type  1   force =     0.00001449    0.00002832   -0.00328604
     atom    6 type  1   force =     0.00027973    0.00012201   -0.00404972
     atom    7 type  1   force =    -0.00104100   -0.00060384   -0.00382820
     atom    8 type  1   force =     0.00106827   -0.00058333   -0.00385534
     atom    9 type  1   force =     0.00002349   -0.00029947   -0.00409097
     atom   10 type  1   force =    -0.00013236   -0.00216677    0.00447708
     atom   11 type  1   force =     0.00011542    0.00005245    0.01022132
     atom   12 type  1   force =     0.00021761   -0.00216788    0.00462539
     atom   13 type  1   force =     0.00190871    0.00129423    0.00456594
     atom   14 type  1   force =    -0.00175128    0.00122848    0.00461729
     atom   15 type  1   force =     0.00009058    0.00000802    0.00261675
     atom   16 type  1   force =    -0.00012971   -0.00005778   -0.00600433
     atom   17 type  1   force =    -0.00193103    0.00094096    0.00448940
     atom   18 type  1   force =     0.00211044    0.00097730    0.00457768
     atom   19 type  1   force =    -0.00004955    0.00033371    0.00001938
     atom   20 type  1   force =    -0.00010878   -0.00005649    0.00014297
     atom   21 type  1   force =    -0.00009306   -0.00004447    0.00018568
     atom   22 type  1   force =    -0.00036627   -0.00025844   -0.00001519
     atom   23 type  1   force =    -0.00008981    0.00010640   -0.00020396
     atom   24 type  1   force =     0.00025048   -0.00023854    0.00001832
     atom   25 type  1   force =     0.00005531   -0.00013479   -0.00017313
     atom   26 type  1   force =    -0.00022337   -0.00014218   -0.00013370
     atom   27 type  1   force =    -0.00011041   -0.00006131    0.00015854
     atom   28 type  1   force =    -0.00009507    0.00004830   -0.00005430
     atom   29 type  1   force =    -0.00042920   -0.00029407   -0.00013564
     atom   30 type  1   force =     0.00001440   -0.00013633    0.00008906
     atom   31 type  1   force =    -0.00025237    0.00002318   -0.00020411
     atom   32 type  1   force =    -0.00007388    0.00014620   -0.00009296
     atom   33 type  1   force =     0.00003268    0.00001136   -0.00018492
     atom   34 type  1   force =    -0.00019666   -0.00015707   -0.00002447
     atom   35 type  1   force =    -0.00000266   -0.00013372   -0.00003529
     atom   36 type  1   force =    -0.00011578   -0.00023249   -0.00019591
     atom   37 type  2   force =     0.00054531    0.00152368    0.00082757
     atom   38 type  2   force =    -0.00215902    0.00198058    0.00242154
     atom   39 type  3   force =     0.00001689    0.00022119   -0.00001870
     atom   40 type  3   force =    -0.00039526   -0.00047346   -0.00006537
     atom   41 type  3   force =     0.00316459   -0.00202328   -0.00291270

     Total force =     0.006499     Total SCF correction =     0.001070
     SCF correction compared to forces is large: reduce conv_thr to get better values

     negative rho (up, down):  1.258E-02 0.000E+00

     negative rho (up, down):  1.258E-02 0.000E+00

     negative rho (up, down):  1.258E-02 0.000E+00

     negative rho (up, down):  1.258E-02 0.000E+00

     negative rho (up, down):  1.258E-02 0.000E+00

     negative rho (up, down):  1.258E-02 0.000E+00

     negative rho (up, down):  1.258E-02 0.000E+00

     negative rho (up, down):  1.258E-02 0.000E+00

     negative rho (up, down):  1.258E-02 0.000E+00

     negative rho (up, down):  1.258E-02 0.000E+00

     negative rho (up, down):  1.258E-02 0.000E+00

     negative rho (up, down):  1.258E-02 0.000E+00

     negative rho (up, down):  1.258E-02 0.000E+00

     negative rho (up, down):  1.258E-02 0.000E+00

     negative rho (up, down):  1.258E-02 0.000E+00

     negative rho (up, down):  1.258E-02 0.000E+00

     negative rho (up, down):  1.258E-02 0.000E+00

     negative rho (up, down):  1.258E-02 0.000E+00

     negative rho (up, down):  1.258E-02 0.000E+00

     negative rho (up, down):  1.258E-02 0.000E+00

     negative rho (up, down):  1.258E-02 0.000E+00

     negative rho (up, down):  1.258E-02 0.000E+00

     negative rho (up, down):  1.258E-02 0.000E+00

     negative rho (up, down):  1.258E-02 0.000E+00

     negative rho (up, down):  1.258E-02 0.000E+00

     negative rho (up, down):  1.258E-02 0.000E+00

     negative rho (up, down):  1.258E-02 0.000E+00

     negative rho (up, down):  1.258E-02 0.000E+00

     negative rho (up, down):  1.258E-02 0.000E+00

     negative rho (up, down):  1.258E-02 0.000E+00

     negative rho (up, down):  1.258E-02 0.000E+00

     negative rho (up, down):  1.258E-02 0.000E+00

     negative rho (up, down):  1.258E-02 0.000E+00

     negative rho (up, down):  1.258E-02 0.000E+00
 BEEFens 2000 ensemble energies
             -0.603240403875350E+02
             -0.359997333924241E+01
             -0.157623791915386E+02
              0.427184057714422E+02
             -0.220095101893478E+02
             -0.204419067687303E+02
             -0.349693999747998E+02
             -0.859795610992185E+02
             -0.463104034038931E+02
             -0.470875532316710E+02
             -0.367347972982262E+02
              0.222841522833005E+01
              0.403961043392530E+01
              0.765911107045844E+01
              0.263775533072351E+01
              0.472389469514754E+02
             -0.207814605390294E+02
             -0.229655390049400E+02
              0.191796659204854E+02
             -0.111783149103629E+03
              0.533259967859334E+02
             -0.288904188500251E+02
             -0.332468977173081E+01
             -0.113683005302448E+02
             -0.884737229682435E+01
             -0.460413180260582E+01
              0.878047661025003E+02
             -0.185880764465734E+02
             -0.895231910122379E+01
             -0.515309313033685E+02
              0.811903381730720E+02
             -0.187049275965883E+02
             -0.372841518250204E+02
              0.248189637183113E+02
             -0.283690027996829E+01
              0.162569205782689E+02
             -0.486613586240355E+01
              0.108089405251994E+02
              0.286333422849253E+02
             -0.102735797264343E+03
              0.555538827077383E+02
              0.141624592831558E+02
             -0.165511232436353E+01
             -0.359789551262497E+02
              0.122595328153287E+02
             -0.145888509984298E+02
              0.395810870108771E+02
              0.362908099236522E+02
             -0.307131324087095E+02
             -0.273402510332672E+02
             -0.326885080765525E+02
             -0.350115728639600E+02
              0.135147745221315E+02
             -0.488022828970564E+02
              0.114716439628370E+02
              0.619613272555212E+02
              0.631271993127673E+02
              0.354182701741064E+02
              0.153141154856177E+02
              0.268731940364136E+02
              0.886637690243361E+02
              0.211798400946333E+02
             -0.545650223742193E+02
             -0.156521614400497E+02
             -0.234415998912820E+02
              0.626460899661892E+02
             -0.769508279486176E+02
             -0.668695964037751E+02
             -0.257745971212185E+02
             -0.635705715232734E+01
             -0.468597031400603E+02
              0.269245118433779E+02
              0.794741942227108E+01
              0.858642046379305E+01
             -0.395238629009093E+02
             -0.344981635563564E+02
             -0.538693042528431E+02
              0.388823624675792E+02
             -0.294245514150525E+02
              0.263564330860727E+02
             -0.711058051912859E+01
             -0.316543147397512E+02
             -0.573565133593142E+02
             -0.175846987036089E+02
             -0.896500614867489E+01
             -0.123911595094567E+02
              0.410151554908080E+02
              0.678545796488789E+02
             -0.383023653025302E+02
             -0.790299982312804E+02
             -0.218530560684002E+02
              0.110923339178225E+03
             -0.589563313615975E+02
              0.354550669262406E+02
             -0.949793540125154E+01
             -0.659934411098066E+02
              0.252814708685455E+02
              0.396297954165688E+02
             -0.198097489105228E+02
              0.398719138194751E+02
             -0.294657003556958E+02
             -0.474850540848717E+02
              0.860562456189027E+02
              0.451520018787744E+02
              0.335363986759514E+02
              0.145671985680755E+02
              0.204314381398383E+02
              0.852021008116936E+02
             -0.255233065632251E+02
              0.786348650664964E+01
             -0.141647079884866E+03
              0.180225549030006E+02
             -0.712681195653514E+02
              0.150327394980028E+02
              0.203453236757918E+02
             -0.330756422292525E+02
             -0.554596364043665E+02
              0.652874672213920E+01
             -0.302561964740315E+02
              0.305567181637581E+02
             -0.527386738825099E+02
              0.175334308743300E+01
             -0.354835705862705E+02
             -0.421155320929319E+01
             -0.108016143656315E+01
              0.179952811924645E+02
              0.144492324701525E+01
             -0.647991201795924E+01
              0.586777142572277E+02
              0.903329683214034E+02
              0.481536486399217E+02
              0.826821315593696E+02
             -0.114352481174455E+02
              0.142703851884714E+02
              0.538289228753407E+02
             -0.111186130253917E+02
             -0.731745476934020E+02
             -0.381854455135008E+02
             -0.519226034314834E+02
             -0.275126494757493E+02
              0.325861685759311E+02
             -0.116120662710715E+03
             -0.186683320815438E+02
              0.411523488650937E+02
             -0.384036268954350E+02
             -0.364133181130530E+02
              0.540863708790067E+02
              0.398057524272938E+02
             -0.352579908835102E+02
              0.135878861557819E+02
             -0.271969135265690E+02
              0.341175849823828E+02
              0.440951605923948E+01
              0.210417753313455E+02
             -0.880378023248251E+02
             -0.477492770663249E+02
             -0.990871659719039E+01
              0.321908945984339E+01
             -0.364318074360348E+02
              0.105423250088949E+03
             -0.230250906005760E+02
             -0.397268964812499E+02
              0.386696133924013E+02
             -0.491749336655336E+02
             -0.361245990763797E+02
              0.322910594536711E+02
              0.123778124146204E+02
              0.163823411281758E+02
              0.115649494848966E+02
             -0.132272777629878E+02
              0.224575983408146E+02
              0.586779492222944E+02
             -0.310138853162301E+02
              0.161097389537433E+02
              0.929637159177618E+02
              0.339127858201920E+02
             -0.725825339335825E+01
             -0.187593096036874E+02
              0.152498483220915E+03
             -0.162827709481747E+02
              0.361213964169004E+02
              0.192780019537874E+02
              0.360047215023989E+02
              0.886957399045485E+02
              0.540412164209158E+02
             -0.235825775367356E+01
              0.226394004620997E+02
              0.482234032713573E+02
              0.361471417440712E+02
             -0.522214712635625E+02
              0.930894053823545E+02
             -0.821097363217774E+02
             -0.197593032508168E+02
              0.579690513198784E+02
              0.666948646511058E+01
              0.785835232317186E+01
              0.339289732742413E+02
              0.298369540456108E+02
              0.351827790274600E+02
             -0.634166941162352E+02
              0.285250331353723E+01
             -0.296302694834877E+02
             -0.866620655204429E+01
             -0.144731021897928E+01
             -0.717525834600790E+01
             -0.412026702291138E+01
              0.854832021222298E+02
             -0.100700373890892E+02
             -0.274888065418065E+02
             -0.495678480447360E+01
              0.139126899570844E+02
             -0.560558686014523E+02
             -0.404250072350441E+02
             -0.380090593761744E+02
             -0.627052802895757E+02
             -0.168691474848290E+02
             -0.445274833381142E+02
              0.162379240654027E+02
             -0.241556827618905E+01
             -0.103687755445899E+02
             -0.929937574376271E+01
              0.805045519179930E+01
             -0.242028535824410E+02
              0.685811427232266E+02
             -0.802454779642883E+02
             -0.140344734537785E+02
             -0.173212046032700E+02
              0.181035788914165E+02
              0.213356367460285E+02
             -0.460993173218340E+02
             -0.201315974665716E+02
              0.438436141766968E+02
             -0.275085404070250E+02
              0.186348190535413E+02
              0.380973999745539E+02
             -0.322765902432036E+01
              0.113525300682143E+03
             -0.229425718598142E+02
             -0.339207810102099E+02
              0.577716707727734E+01
             -0.226813815603512E+02
              0.524513139350019E+02
             -0.334638187219418E+02
              0.105754424466036E+02
              0.637788002002022E+02
             -0.125522185409254E+02
              0.119613891040813E+03
              0.125186844310167E+03
             -0.646180552774060E+02
              0.587565949417906E+02
              0.165174988899674E+02
             -0.514685926672327E+02
              0.215177354094757E+02
              0.351693756480166E+02
              0.360133973343643E+02
              0.132121172299492E+01
              0.158765268752504E+02
              0.691707512855496E+02
             -0.245684853786826E+02
              0.180753666642262E+02
              0.735166067805192E+02
             -0.370444912299539E+02
             -0.128422365492575E+02
              0.505464787580559E+02
              0.295752695731631E+02
              0.776057155005219E+02
              0.220807335954033E+02
              0.618118371301415E+01
              0.278860201655479E+02
              0.381005031750036E+02
             -0.468984507327440E+02
              0.327165784002796E+01
              0.128416327881339E+02
              0.113216701477841E+02
              0.219250802294151E+02
             -0.571600277097423E+02
              0.364409747786671E+02
             -0.441552841607245E+02
             -0.345831906483997E+02
              0.177037600116607E+02
             -0.180831935717126E+02
              0.551946879976270E+02
             -0.255458170649931E+02
              0.265192908620971E+02
              0.366531681076850E+02
              0.825048307433594E+02
              0.571873792948920E+02
              0.458970340828698E+02
             -0.105386382872234E+02
             -0.385658757892327E+01
             -0.330498042791204E+02
              0.746218150321924E+02
              0.792654665292929E+02
              0.359783647559177E+02
             -0.190463682655351E+02
              0.509182432615539E+02
             -0.162750454364387E+02
              0.213871574556304E+02
              0.610665928809991E+02
              0.215931387293080E+01
             -0.103738341664900E+02
             -0.281875409196698E+02
             -0.508465185634486E+02
              0.940354983776450E+02
              0.437027931535628E+02
             -0.555701882361196E+02
             -0.952367440037349E+01
              0.248361286517171E+02
             -0.990486354831614E+01
              0.588529586089265E+02
              0.151345721879164E+02
              0.794737655995699E+02
              0.277863698685902E+02
             -0.262707952816028E+02
              0.247997006371425E+02
             -0.497555571440603E+01
             -0.322247167683362E+02
              0.132285742238986E+02
              0.204868138009028E+02
              0.928051869426406E+02
              0.793203214366418E+02
              0.547926129225702E+02
              0.727162526056516E+02
              0.797475448927651E+01
             -0.272535960728136E+02
              0.162464266928075E+02
             -0.366033457297986E+02
             -0.473279389766543E+02
             -0.560505843016516E+02
             -0.264758273469053E+02
             -0.109112869754414E+03
             -0.289507290197746E+02
             -0.832668524398039E+02
              0.209030299439009E+02
             -0.474558211873020E+02
              0.394050357908240E+02
             -0.936031884406034E+02
             -0.328603771820846E+02
              0.546349036911403E+02
              0.206544359676678E+02
             -0.825848057744460E+02
              0.628135530473376E+02
             -0.255277244489634E+02
              0.509349213020769E+02
             -0.240975771737816E+02
             -0.747126982586825E+02
              0.110777018961649E+02
             -0.607580067354468E+02
             -0.167872526470618E+02
             -0.147690973414914E+01
              0.415909007525536E+02
              0.126331561228488E+03
             -0.459419504369264E+02
             -0.360578420128169E+02
             -0.940383810317371E+00
             -0.129816897415198E+02
             -0.818309587573118E+02
             -0.593671374001108E+02
              0.514623467805081E+02
             -0.287896719372226E+02
              0.168151700397585E+02
             -0.486611088442000E+02
             -0.130916550477943E+02
             -0.434941256998291E+02
              0.562967354466958E+02
              0.150383355536624E+02
             -0.230429345124944E+02
             -0.125932194755084E+02
              0.660564571659022E+01
             -0.613792165697765E+01
              0.439273412487458E+02
             -0.250519315937730E+02
              0.271102114277051E+01
              0.337719106300088E+02
              0.170522961953168E+02
             -0.158554404257076E+02
              0.155442685035017E+03
              0.534844151673136E+02
              0.111763768288296E+01
              0.161143431354805E+02
             -0.611517519805757E+02
              0.313202076267015E+02
             -0.717560776418591E+02
             -0.250283334051342E+02
             -0.519601163981563E+02
             -0.219153747732087E+02
              0.566191796383463E+02
             -0.533967556700812E+02
              0.159480353223134E+02
             -0.408011366916469E+01
              0.385904029666375E+01
             -0.432099384179405E+02
             -0.476138303762164E+02
             -0.398211003348672E+01
             -0.423115042332681E+02
             -0.215950756937265E+02
             -0.436247417564006E+02
             -0.118957692401965E+02
             -0.357192091788799E+02
             -0.513902377420029E+02
              0.211542270939047E+02
             -0.208401006593081E+02
              0.186547877990582E+02
              0.970712702170133E+01
             -0.734025958477667E+02
             -0.545358984199859E+02
             -0.395616263299721E+02
              0.352336276900091E+02
              0.273454633674825E+01
             -0.623163172069420E+02
              0.582791641289268E+02
             -0.398945636198874E+02
              0.541793498675999E+02
             -0.287916619620902E+02
             -0.443274924323441E+02
              0.297055178427759E+02
             -0.653779891245599E+02
             -0.378297718795729E+02
              0.669489620301011E+02
              0.203066491448600E+02
             -0.357839713809673E+02
              0.486492096997315E+02
             -0.173138677698884E+02
             -0.320939410455928E+02
             -0.300121786086430E+02
             -0.497909965674534E+02
              0.248100990350282E+02
             -0.928532366548283E+02
             -0.836093180089738E+02
             -0.730447422409122E+01
             -0.305316742263878E+02
             -0.572357218202857E+02
              0.717687333674648E+02
              0.130795669257915E+03
             -0.359764904441970E+02
             -0.253765170323669E+01
             -0.633831169686285E+02
              0.647149044166001E+02
              0.169474059317547E+02
             -0.180474029260481E+02
             -0.408129082593404E+02
              0.147811622389677E+02
             -0.582869595793413E+02
             -0.197216166516369E+02
             -0.899923269554095E+02
              0.335041426182582E+02
              0.168307390825016E+02
              0.188306543052704E+01
             -0.700865873020155E+01
             -0.327347513990755E+02
             -0.752815791257547E+01
              0.124807285894629E+03
             -0.198217381716479E+02
             -0.434967544039295E+02
             -0.680246055617708E+02
              0.108589995521161E+02
             -0.340184706747977E+02
              0.585352776056342E+01
              0.259701250708973E+02
              0.101928014873553E+02
              0.276069572907972E+02
              0.118996452066458E+02
              0.626571699605900E+02
              0.315485969326287E+02
             -0.324710080774427E+02
              0.352885748894971E+02
              0.377606986453422E+02
              0.120141236274996E+02
              0.485021212441610E+02
             -0.223167315571759E+02
              0.761756355395820E+02
              0.170883561345069E+02
             -0.270302057536149E+02
             -0.720600070710082E+01
             -0.185608608076990E+02
              0.261051520292555E+02
             -0.233113995864839E+02
             -0.665934315254901E-01
             -0.841509691423687E+01
              0.805515542808394E+02
              0.496943570232625E+02
             -0.683469358654874E+02
             -0.471190025589209E+01
             -0.552623825072954E+02
             -0.158760024533464E+02
             -0.267093050314350E+02
              0.369540847483484E+01
              0.614690959371170E+00
             -0.256048102688461E+02
              0.804656886650028E+01
             -0.597568748523609E+01
             -0.128052649139874E+02
              0.854301257450870E+02
              0.181045956637267E+02
             -0.802833132506999E+02
             -0.456480135262768E+02
              0.939923732345883E+02
              0.276557362674505E+02
             -0.106367815455085E+02
              0.103979489302372E+03
             -0.193830191561171E+02
             -0.122667630531272E+02
             -0.533561828811787E+01
              0.106524261623507E+02
              0.270801568785876E+02
              0.778505176827522E+01
              0.303763239580805E+02
             -0.187418140239194E+02
             -0.301711088033323E+02
             -0.415956036531807E+02
             -0.474233412659345E+02
              0.461983018131601E+02
              0.126010332128588E+02
              0.385563764613450E+02
              0.132684628304845E+02
              0.850856787362022E+02
              0.155255186864314E+02
             -0.842056443099705E+02
             -0.332670638038353E+02
              0.133500227721322E+02
             -0.301193352978648E+02
              0.623097213077091E+02
             -0.876919801920349E+01
              0.147765816226050E+02
              0.494179207101769E+02
             -0.703081352077247E+02
              0.148937892336754E+03
              0.207649940625362E+02
              0.270008081083952E+02
              0.345624057041423E+02
              0.103357416147048E+02
             -0.156211024340814E+01
              0.356554821702063E+02
             -0.355312459492426E+02
              0.768816166432428E+02
              0.680931408896658E+02
             -0.403912532995494E+02
              0.148517036995595E+02
              0.666267791867127E+02
             -0.222690811205018E+02
              0.153349172039738E+02
              0.433276500419470E+02
              0.420016581672122E+02
             -0.780773697411180E+02
             -0.152408991254937E+02
             -0.354562267700337E+02
             -0.145307500820593E+01
             -0.761264773319342E+01
             -0.546090234157680E+01
             -0.180043357015957E+02
             -0.292186754561976E+02
              0.625758141504937E+01
              0.111457830504854E+02
              0.532780265212686E+02
             -0.387872979222919E+02
              0.372078005870605E+02
              0.435906535669617E+02
             -0.185925077352825E+02
              0.868215436137204E+02
             -0.694327856400412E+02
             -0.102645007152088E+03
             -0.656199777617983E+01
             -0.265666655297150E+01
              0.386132867337164E+01
              0.785511502274472E+02
             -0.106940482533663E+02
              0.414452733790308E+02
              0.440438829730629E+02
              0.383349337847955E+02
             -0.991883011932634E+01
              0.624318369863058E+02
             -0.132850226913641E+02
             -0.305318741657733E+02
             -0.477359211095989E+02
              0.581139520099569E+01
              0.367469061972806E+02
             -0.602021600391888E+01
              0.391129498109024E+02
             -0.178011452348071E+01
              0.652228459733151E+02
              0.186457374945157E+02
              0.995204603216816E+01
             -0.121787074388478E+02
              0.330579338674811E+02
              0.360500668978303E+02
              0.231891936250843E+02
             -0.488523609809818E+00
             -0.547577212269308E+02
              0.259247677499062E+02
              0.174120850340595E+02
              0.400732162885618E+02
              0.270640681724074E+02
              0.370544390499030E+02
             -0.597966478825714E+01
              0.249305788099609E+02
             -0.297184327016353E+02
             -0.196125910449996E+01
             -0.566454870372186E+02
             -0.306109084016526E+02
              0.376411938671414E+02
             -0.930993721262297E+02
              0.293154700143006E+02
              0.183277139415119E+02
              0.835867711050847E+02
             -0.299632028952884E+02
              0.327752631095911E+02
             -0.137253288490288E+02
             -0.461453077621883E+02
             -0.758063361297573E+02
             -0.519473433689244E+01
             -0.855213749128459E+02
              0.199299720286549E+02
             -0.246383884409097E+02
              0.304125113482491E+02
              0.235878154154497E+02
             -0.239651235081366E+02
             -0.263819174792724E+02
              0.388689249449595E+02
             -0.585255898169785E+02
             -0.116129635196899E+02
             -0.195255468163422E+02
              0.211148181784331E+02
             -0.892848298153604E+01
              0.362124923791075E+01
             -0.199801399709317E+02
              0.556085411073353E+02
             -0.436608614164415E+02
              0.784519739691007E+01
              0.582362282499179E+02
             -0.321404121242642E+02
              0.358828805511132E+01
             -0.882807157837362E+01
             -0.665996270389988E+02
             -0.480492530814822E+02
             -0.859841314002115E+01
              0.239257827418596E+02
              0.300647738142709E+02
              0.856996112033215E+01
             -0.409578480239884E+01
              0.151005526675949E+02
             -0.437665748632866E+02
              0.336089851676917E+01
             -0.528230427678924E+02
             -0.323507827383764E+02
              0.472172492849963E+02
             -0.293568151578323E+02
              0.618857191698821E+02
             -0.213494967305509E+02
              0.351801201939389E+02
              0.240470855483576E+02
             -0.640927308766991E+02
             -0.279019026013531E+02
              0.927763026629697E+01
             -0.369790000806181E+02
             -0.337390922845017E+02
             -0.825475724672363E+02
             -0.536397426423488E+02
             -0.507926206049327E+02
             -0.413142735959871E+02
             -0.982991829751086E+00
              0.984131322962085E+01
              0.995026638488525E+00
              0.151905464461959E+02
             -0.546348888011154E+02
              0.141196140881478E+02
              0.255390161523169E+02
             -0.663053875784485E+02
             -0.698909915644048E+02
             -0.429374329222338E+02
             -0.170410346296430E+02
              0.177741184831219E+02
              0.457933546472486E+01
             -0.423475630667068E+02
              0.364755598639596E+02
             -0.214863319983935E+02
              0.514691919880775E+02
             -0.882692722541676E+02
              0.594533626592995E+02
             -0.208178232126821E+01
             -0.366162779594788E+02
             -0.214895411616977E+02
              0.471668349454788E+01
              0.371973537599023E+02
             -0.752622621702807E+02
             -0.120127583767868E+02
             -0.215850365289314E+02
              0.508938005090119E+02
              0.860620747863528E+02
             -0.960169434774618E+02
              0.939171520523140E+02
              0.465491572190185E+02
             -0.721442420107129E+02
             -0.364918229071731E+02
              0.747737779731448E+02
              0.628996713809423E+02
             -0.180033658489255E+02
             -0.458438717759526E+01
              0.722479936574301E+01
              0.645021930299587E+02
             -0.505298758207447E+02
              0.157762355274256E+02
             -0.469121924480767E+01
              0.346228610609392E+02
             -0.743374176820770E+02
             -0.646970018986997E+01
             -0.349591300579493E+02
              0.458060405428459E+02
              0.466595510057782E+02
             -0.857434770115186E+02
             -0.484726584642951E+02
             -0.255090447017267E+02
             -0.337158069297895E+02
             -0.108688386284226E+02
             -0.241610777725459E+02
              0.424972535838792E+02
              0.398676463005431E+02
             -0.563572219486935E+01
             -0.414074716977714E+02
             -0.846121314718653E+02
              0.440431365573349E+02
             -0.520798667823350E+02
             -0.311047801158953E+02
              0.543223920951763E+01
             -0.320806182070192E+02
             -0.395929898225542E+02
             -0.238579992679981E+02
             -0.382861568327501E+02
             -0.269521327986831E+02
             -0.479813714079726E+02
              0.561022248738520E+02
              0.634880217460600E+02
             -0.165910657317784E+01
             -0.260070288876558E+02
             -0.627036786713927E+01
              0.438853698560933E+02
             -0.863362917973092E+02
             -0.145081485751422E+02
              0.521039610087868E+02
              0.660208283269036E+02
             -0.243738654759341E+02
              0.907483924135443E+01
              0.520853273487568E+02
              0.197316228351072E+02
             -0.827994922231352E+01
             -0.451147874436907E+02
              0.279676760356804E+02
             -0.350763035146840E+02
             -0.164171685247584E+02
             -0.151888069515914E+02
             -0.199433983092069E+02
              0.193793743633807E+02
              0.795972045746032E+02
              0.189784242920172E+01
              0.533240940523820E+01
             -0.882729980173007E+02
             -0.174811717030525E+02
             -0.350751721736746E+02
              0.273933202678586E+01
             -0.407286387970972E+02
[...]
              0.282243194025268E+02
              0.141083303322832E+03
              0.240610129187643E+02
              0.121553702209693E+02
             -0.461777683884673E+02
             -0.634676274663079E+02
             -0.188314109171885E+02
              0.328037379500722E+02
             -0.424108125521661E+01
              0.188809356729111E+02
              0.334445583184785E+02
             -0.583058380792186E+02
              0.220951679687399E+02
              0.580033877152745E+02
              0.549740599040797E+02
             -0.414656566403806E+01
             -0.140121592846117E+01
             -0.989090657348009E+01
             -0.479890616624558E+02
             -0.670975865787123E+02
              0.781328464893568E+02
             -0.517256341161948E+01
             -0.584946036961496E+02
              0.167912182104308E+01
             -0.203640651916734E+02
              0.933752615739152E+02
             -0.215450667508586E+02
             -0.351571033152471E+02
              0.333297950727974E+02
             -0.144913634547252E+02
              0.387044107291212E+02
             -0.236256376639557E+01
              0.100568858388518E+03
              0.486805072042977E+02
             -0.514555447901894E+01
             -0.319908418731629E+02
              0.230641025506999E+02
             -0.525605795341828E+02
             -0.127692925536408E+02
              0.582283454226563E+02
             -0.286376091420168E+02
             -0.436002257951997E+02
             -0.222006766285865E+02
              0.515883118790472E+02
              0.124052356826144E+02
             -0.844186467296796E+02
              0.301931964017394E+02
              0.151696621903301E+02
              0.571200804696693E+01
             -0.510893865283612E+02
             -0.382815743765281E+01
              0.321286340264497E+02
              0.510091936048645E+02
              0.629186701391998E+02
              0.227192358698640E+02
              0.723552099545344E+00
             -0.495029751747900E+02
             -0.507673931655714E+02
             -0.744150102229223E+02
             -0.609798199443821E+01
              0.307175847918060E+02
             -0.376523299560466E+01
              0.544152147350576E+02
             -0.316242512785013E+02
              0.165622945436417E+02
             -0.101501847885629E+02
             -0.288056513814926E+02
              0.582351936273015E+02
              0.789204015605213E+01
              0.600912300173076E+02
              0.504201149830647E+01
              0.263964339137517E+02
             -0.191814473095001E+02
              0.582773269896197E+02
             -0.110579761075429E+02
             -0.116978279536095E+00
             -0.785852400665748E+02
             -0.127919077578204E+02
              0.715134913835709E+02
              0.669523932670629E+02
              0.250630457402529E+02
             -0.129400269575084E+02
              0.342486594675538E+01
             -0.172326946070208E+02
             -0.195847213749738E+01
              0.902869279987983E+02
              0.121481850281646E+01
             -0.188904062865439E+02
             -0.110163965545732E+03
             -0.550105112121890E+02
             -0.372930589843316E+02
             -0.655062553382188E+02
             -0.552354637954910E+02
             -0.678597229359684E+02
             -0.444724457384364E+02
             -0.409393218823905E+02
             -0.449196927413503E+02
              0.481029499296237E+02
             -0.293166592642272E+02
             -0.990387907970032E+02
              0.416514660020839E+02
             -0.258339472690068E+02
             -0.786527712189891E+02
              0.938226217494638E+02
             -0.218341477463132E+02
              0.227200140279305E+02
              0.452844674245819E+02
             -0.140526409834138E+01
              0.253029475194231E+02
              0.467428268819771E+01
              0.406673577115033E+00
             -0.149979713298749E+02
             -0.711717647318745E+02
              0.132397760826244E+02
             -0.128716914918193E+03
              0.620284101087795E+02
             -0.438426870696142E+02
             -0.161943195565163E+02
             -0.157097781210363E+02
              0.703637876708691E+01
             -0.226839520945813E+02
              0.295392935235957E+02
             -0.517328119667175E+02
              0.365176925333373E+02
              0.368539900550370E+02
              0.167870379070796E+02
              0.100056571815892E+02
              0.196620710740768E+02
              0.616695707945337E+01
              0.308667024501299E+02
             -0.795442019544907E+01
             -0.588272665573125E+02
              0.751856921387684E+01
             -0.150860413690044E+02
             -0.190922490891705E+01
              0.503212239271546E+02
             -0.822421056709742E+02
             -0.148918070881996E+01
              0.562220073822630E+00
              0.990225663786111E+01
              0.316811246148501E+02
             -0.123003297832280E+02
              0.831100911320154E+02
              0.485373642400454E+02
             -0.182234066077177E+02
             -0.950110075517733E+01
              0.101717427336447E+01
              0.765144554454689E+02
             -0.583454605882554E+02
             -0.105193868996624E+03
              0.307570038012209E+02
             -0.162752425154124E+02
             -0.138595479678650E+02
              0.129595687712118E+02
              0.764202880582459E+02
              0.461780419450773E+02
             -0.152599093572287E+02
             -0.500112266003085E+02
             -0.542960797244795E+01
              0.304869378148672E+02
             -0.110557871780842E+02
             -0.751592030764891E+02
             -0.267286557151027E+01
             -0.884618663894418E+02
             -0.472702196329197E+02
              0.763945791992087E+02
             -0.480688295676230E+02
             -0.632574588988983E+02
             -0.511401041885498E+02
             -0.347660322271699E+02
              0.338965984342546E+02
              0.816740900043893E+02
             -0.353192687375207E+01
              0.275177025727254E+02
             -0.182605196471980E+02
             -0.690253106361503E+02
              0.462298568123777E+02
             -0.442355990946346E+02
              0.320230707298253E+02
              0.374491655118849E+02
             -0.645957564913505E+01
              0.388250827662496E+02
              0.436041579639840E+02
              0.100011344201853E+03
             -0.155390691077300E+02
             -0.453190109060158E+02
             -0.609203059416166E+02
             -0.122921293397623E+02
             -0.230666576642277E+02
              0.102499307096329E+03
             -0.446602721731975E+02
              0.104532271014092E+02
              0.969904177449416E+01
             -0.263589437709028E+02
             -0.794091245132909E+02
             -0.695191704526940E+01
              0.974282386067746E+02
              0.925481123768986E+01
              0.802945553453594E+01
             -0.523822237242047E+02
             -0.602495900733534E+02
             -0.553558086557130E+01
              0.498095855482972E+02
             -0.220383746052183E+02
              0.107408761990010E+03
             -0.432954680035619E+02
              0.145189923108363E+02
             -0.223408085110689E+02
             -0.715083655623774E+02
              0.164723185387436E+01
             -0.498571274400654E+02
             -0.756493716786055E+02
              0.609884156936710E+01
              0.236701349839444E+01
              0.511360572519616E+02
              0.185745277376422E+02
             -0.321756812921656E+02
              0.228664111252140E+02
             -0.806092494020571E+02
             -0.519111803116806E+02
              0.896562479947149E+02
              0.141994934039969E+02
             -0.187669771707803E+02
             -0.350864575914399E+02
             -0.269726558232026E+01
             -0.580847647451060E+01
              0.825106822985824E+02
              0.415423948069212E+02
             -0.165506668781723E+02
             -0.121726861980305E+02
             -0.425301478014243E+02
             -0.199730390300873E+02
             -0.666503552350204E+02
              0.456902586261015E+02
              0.543308162550210E+01
              0.144505777456789E+02
              0.155105019816990E+02
             -0.502632267063490E+00
             -0.167160844535069E+02
             -0.311244803936633E+01
             -0.998123563691934E+02
             -0.229340555869771E+02
             -0.760709139337138E+01
             -0.945101276029263E+01
              0.543674403541268E+02
              0.620275622471344E+02
              0.163840474707835E+02
             -0.965296314270586E+02
              0.644022124644715E+02
             -0.213643847678518E+02
             -0.374978711000205E+02
             -0.859296883029023E+02
             -0.385274352343957E+02
              0.561088893301083E+02
              0.242411645585670E+02
              0.504579881161328E+01
              0.290247669058159E+02
             -0.561738500921286E+02
             -0.419481191058460E+02
              0.511947041883543E+02
              0.384844983191949E+02
              0.516244172004903E+02
             -0.123561717829318E+01
              0.680816066430521E+01
              0.566447107080642E+02
              0.957120232358383E+02
             -0.299215679440045E+02
              0.320667177444211E+02
             -0.117065586216880E+02
             -0.409560268091982E+02
             -0.312438935778251E+02
             -0.298356261135698E+02
             -0.130658420605254E+02
             -0.520696659507882E+02
             -0.216080864573178E+02
             -0.140435320655458E+03
              0.367147992186138E+02
              0.205190931440987E+02
             -0.392254621857421E+01
             -0.377977162861119E+02
             -0.203076888807399E+02
             -0.523804120339203E+02
              0.150812648453855E+02
              0.815582327363065E+02
             -0.251023075481128E+02
             -0.162055184968661E+02
              0.237144331004724E+02
             -0.486574578303654E+02
              0.875533400028621E+02
              0.153488910711336E+02
              0.225759975732714E+02
              0.487387165974674E+02
              0.322515445028813E+01
              0.538807132299803E+02
              0.142002310200606E+02
             -0.106419234371355E+02
              0.725585841974933E+01
              0.830429744438561E+00
              0.723337346610660E+02
              0.100664409126068E+02
              0.119423070113835E+02
             -0.129546527880557E+02
              0.131600458909732E+02
             -0.905788329248484E+02
             -0.323798836867845E+02
             -0.454597009899885E+02
              0.482354433733253E+02
             -0.289132740556137E+02
             -0.655158325816834E+02
              0.535141160669666E+02
             -0.121084737963850E+02
              0.437826945054385E+02
             -0.893494207804350E+02
              0.231069742559379E+02
              0.854177480797046E+01
              0.581415380845181E+01
             -0.825190506240557E+01
             -0.900121630636283E+01
              0.476406905951477E+02
              0.196517518146703E+01
             -0.472248904091394E+02
             -0.174958378269265E+02
              0.275376636776865E+02
             -0.117277976378533E+03
             -0.924885505303742E+02
              0.395253989107886E+01
              0.116713612314831E+02
             -0.410559326768192E+02
             -0.388517312398045E+01
              0.111523184485373E+03
              0.304757510166712E+02
             -0.568618953087732E+02
              0.920284612999401E+01
             -0.957529645401104E+01
              0.104941104146599E+02
             -0.335799683285013E+02
              0.194141709831417E+02
              0.283327405158527E+02
             -0.295312081748978E+01
              0.107546655371786E+03
             -0.139976768727807E+02
             -0.314021543217835E+02
              0.141132307686473E+02
              0.463995177721691E+02
             -0.353944119329167E+02
             -0.317588927676163E+01
              0.959311188390417E+02
             -0.461551788969177E+01
              0.618677899661390E+02
              0.134513577899466E+02
             -0.898084729336780E+01
             -0.304529760787195E+02
              0.563828066242390E+02
             -0.510727983158615E+02
             -0.218528499940123E+01
             -0.168816658326350E+02
             -0.402919031990644E+02
              0.184327953712331E+02
              0.238003972833240E+02
              0.116114811116538E+02
              0.724689889747765E+00
             -0.382329997387693E+02
              0.214442594338624E+02
             -0.673289751254197E+01
             -0.245223412091981E+02
             -0.209438448165171E+02
              0.202196013138540E+02
             -0.597337449561712E+01
             -0.347038395251110E+02
             -0.106019555947326E+03
              0.102629267024091E+02
              0.247781631955585E+02
             -0.384579318024888E+02
             -0.209669528282816E+02
              0.802477523995232E+02
              0.644421914518290E+01
              0.308407575097037E+02
              0.385999406792260E+01
              0.319643939252069E+02
              0.643916230740820E+01
             -0.370760772689723E+02
             -0.226307515507642E+01
              0.873994387396459E+01
              0.271994059840567E+02
              0.777543246365183E+02
              0.504568184125534E+02
              0.157436110102481E+00
              0.168594124868192E+02
              0.609835122957669E+02
              0.234359965644388E+02
             -0.748890477689005E+02
             -0.271991831170307E+02
              0.150349016435517E+02
              0.556809919925831E+01
              0.253695803149271E+02
             -0.544779605268080E+02
              0.896161340831465E+01
              0.383694030705146E+02
              0.495168798072905E+02
             -0.432542182302370E+02
             -0.692794231052625E+01
             -0.206505663765074E+01
             -0.132491027703728E+02
             -0.364084192859719E+02
             -0.214626260234308E+02
             -0.196779423834829E+01
              0.786173978889451E+01
              0.418960478183084E+02
             -0.306485961341625E+02
              0.821654507410863E+02
              0.325614212352107E+02
              0.218385131641272E+02
              0.331021206163644E+02
              0.321658842910018E+02
              0.344275122903380E+02
              0.534045294748396E+02
             -0.431162432410668E+02
              0.616113615672784E+02
             -0.111623140104453E+03
              0.305504973366936E+02
             -0.105930163270956E+03
              0.850104230960478E+02
              0.686254493703628E+02
             -0.109425572441535E+02
             -0.490443997405203E+02
             -0.427133296292083E+02
             -0.620386818951908E+02
             -0.625097235837442E+02
              0.548780776073015E+02
              0.403175019151595E+02
              0.235460142749388E+02
              0.372288365792749E+02
              0.400728670973088E+02
             -0.379798627411212E+02
             -0.197017317907103E+02
              0.583696697044810E+02
             -0.115503986989239E+02
              0.549074106952301E+02
              0.695199955295880E+02
             -0.553722402259278E+01
             -0.702107166142961E+02
             -0.906691520869003E+00
             -0.247112182430270E+01
             -0.876556556908440E+01
             -0.183026323357797E+01
             -0.649329758977339E+02
             -0.210220212630662E+02
              0.531962830139937E+01
              0.891613698109884E+01
              0.466168513524237E+02
             -0.395421695971500E+02
              0.654341879942971E+02
             -0.423207678819900E+02
              0.208898382465875E+02
              0.347931626366358E+02
 
 BEEF-vdW xc energy contributions
           1 :   -778.858713968426     
           2 :    715.795986095060     
           3 :   -606.489532279981     
           4 :    477.632987233991     
           5 :   -356.486372545408     
           6 :    262.793815754537     
           7 :   -204.237347774104     
           8 :    176.361517610584     
           9 :   -166.563860126662     
          10 :    160.244448730633     
          11 :   -146.591373503448     
          12 :    121.818611697414     
          13 :   -89.0176717833442     
          14 :    55.2428274314622     
          15 :   -27.5105846370539     
          16 :    9.53136028166966     
          17 :  -0.446288756772105     
          18 :   -4.18231656313196     
          19 :    9.85718109452171     
          20 :   -20.4355746217348     
          21 :    36.4653826984924     
          22 :   -55.2242399612555     
          23 :    72.2738673611003     
          24 :   -83.6785592193036     
          25 :    87.7975112184663     
          26 :   -85.8644458633773     
          27 :    81.1852621038486     
          28 :   -77.4360195421184     
          29 :    76.9196851474894     
          30 :   -79.6039559950389     
          31 :   -85.3605416462822     
          32 :   -65.4816437973476     

     Writing output data file ./pwscf.save/
 
     init_run     :    366.17s CPU    370.53s WALL (       1 calls)
     electrons    :  14140.64s CPU  14263.73s WALL (       1 calls)
     forces       :    107.59s CPU    108.72s WALL (       1 calls)

     Called by init_run:
     wfcinit      :    314.96s CPU    318.31s WALL (       1 calls)
     potinit      :     48.09s CPU     48.46s WALL (       1 calls)
     hinit0       :      1.18s CPU      1.23s WALL (       1 calls)

     Called by electrons:
     c_bands      :  11737.80s CPU  11834.07s WALL (      20 calls)
     sum_band     :   1697.97s CPU   1709.94s WALL (      20 calls)
     v_of_rho     :    133.99s CPU    138.01s WALL (      20 calls)
     newd         :     30.92s CPU     41.74s WALL (      20 calls)
     PAW_pot      :    141.56s CPU    141.58s WALL (      20 calls)
     mix_rho      :    447.30s CPU    448.01s WALL (      20 calls)
     vdW_kernel   :     35.64s CPU     35.65s WALL (       1 calls)

     Called by c_bands:
     init_us_2    :     78.48s CPU     78.77s WALL (     546 calls)
     cegterg      :  10943.17s CPU  11039.00s WALL (     260 calls)

     Called by *egterg:
     cdiaghg      :     97.06s CPU     97.12s WALL (    1408 calls)
     h_psi        :   7174.13s CPU   7207.91s WALL (    1434 calls)
     s_psi        :   1132.23s CPU   1132.37s WALL (    1434 calls)
     g_psi        :     16.90s CPU     16.91s WALL (    1161 calls)

     Called by h_psi:
     h_psi:calbec :   1067.20s CPU   1067.46s WALL (    1434 calls)
     vloc_psi     :   4949.17s CPU   4951.25s WALL (    1434 calls)
     add_vuspsi   :   1131.88s CPU   1132.15s WALL (    1434 calls)

     General routines
     calbec       :   1573.80s CPU   1574.11s WALL (    1746 calls)
     fft          :     53.14s CPU     53.17s WALL (    3220 calls)
     ffts         :    148.32s CPU    148.36s WALL (    9474 calls)
     fftw         :   5048.82s CPU   5050.27s WALL (  330844 calls)
 
     Parallel routines
 
     PWSCF        :      4h 6m CPU      4h 8m WALL

 
   This run was terminated on:  18:20:33  26Sep2022            

=------------------------------------------------------------------------------=
   JOB DONE.
=------------------------------------------------------------------------------=
