
     Program PWSCF v.6.7MaX starts on  4Jan2023 at 10:26: 5 

     This program is part of the open-source Quantum ESPRESSO suite
     for quantum simulation of materials; please cite
         "P. Giannozzi et al., J. Phys.:Condens. Matter 21 395502 (2009);
         "P. Giannozzi et al., J. Phys.:Condens. Matter 29 465901 (2017);
          URL http://www.quantum-espresso.org", 
     in publications or presentations arising from this work. More details at
     http://www.quantum-espresso.org/quote

     Parallel version (MPI), running on     1 processors

     MPI processes distributed on     1 nodes
     Reading input from cchc-tri-ensemble.in
Warning: card &CELL ignored
Warning: card / ignored

     Current dimensions of program PWSCF are:
     Max number of different atomic species (ntypx) = 10
     Max number of k-points (npk) =  40000
     Max angular momentum in pseudopotentials (lmaxx) =  3
     file Pt.pbe-n-kjpaw_psl.1.0.0.UPF: wavefunction(s)  6S 5D renormalized
     file C.pbe-n-kjpaw_psl.1.0.0.UPF: wavefunction(s)  2S 2P renormalized
     file H.pbe-kjpaw_psl.1.0.0.UPF: wavefunction(s)  1S renormalized

     **************************************************************************
     Initializing libbeef V0.1.2 with the BEEF-vdW functional.
     Citation: Wellendorff et al., PRB 85, 235149 (2012).
     **************************************************************************


     IMPORTANT: XC functional enforced from input :
     Exchange-correlation= BEEF-VDW
                           (   1   4  43  14   2   0   0)
     Any further DFT definition will be discarded
     Please, verify this is what you really want


     Subspace diagonalization in iterative solution of the eigenvalue problem:
     a serial algorithm will be used

 
     G-vector sticks info
     --------------------
     sticks:   dense  smooth     PW     G-vecs:    dense   smooth      PW
     Sum        4267    4267   1159               710981   710981  100073
 


     bravais-lattice index     =            0
     lattice parameter (alat)  =      16.0349  a.u.
     unit-cell volume          =   11317.0534 (a.u.)^3
     number of atoms/cell      =           40
     number of atomic types    =            3
     number of electrons       =       373.00
     number of Kohn-Sham states=          224
     kinetic-energy cutoff     =      60.0000  Ry
     charge density cutoff     =     240.0000  Ry
     scf convergence threshold =      1.0E-06
     mixing beta               =       0.7000
     number of iterations used =            8  local-TF  mixing
     Exchange-correlation= BEEF-VDW
                           (   1   4  43  14   2   0   0)

     celldm(1)=  16.034858  celldm(2)=   0.000000  celldm(3)=   0.000000
     celldm(4)=   0.000000  celldm(5)=   0.000000  celldm(6)=   0.000000

     crystal axes: (cart. coord. in units of alat)
               a(1) = (   1.000000   0.000000   0.000000 )  
               a(2) = (   0.500000   0.866025   0.000000 )  
               a(3) = (   0.000000   0.000000   3.169621 )  

     reciprocal axes: (cart. coord. in units 2 pi/alat)
               b(1) = (  1.000000 -0.577350  0.000000 )  
               b(2) = (  0.000000  1.154701  0.000000 )  
               b(3) = (  0.000000  0.000000  0.315495 )  


     PseudoPot. # 1 for Pt read from file:
     /users/bkreitz1/quantum-espresso/potentials/Pt.pbe-n-kjpaw_psl.1.0.0.UPF
     MD5 check sum: 04dc8a03c51ece93fc7b5889c2958091
     Pseudo is Projector augmented-wave + core cor, Zval = 10.0
     Generated using 'atomic' code by A. Dal Corso  v.6.7MaX
     Shape of augmentation charge: PSQ
     Using radial grid of 1277 points,  6 beta functions with: 
                l(1) =   0
                l(2) =   0
                l(3) =   1
                l(4) =   1
                l(5) =   2
                l(6) =   2
     Q(r) pseudized with 0 coefficients 


     PseudoPot. # 2 for C  read from file:
     /users/bkreitz1/quantum-espresso/potentials/C.pbe-n-kjpaw_psl.1.0.0.UPF
     MD5 check sum: a169b0ebad56f5ec0d79c4633f80bf22
     Pseudo is Projector augmented-wave + core cor, Zval =  4.0
     Generated using 'atomic' code by A. Dal Corso  v.6.7MaX
     Shape of augmentation charge: PSQ
     Using radial grid of 1073 points,  4 beta functions with: 
                l(1) =   0
                l(2) =   0
                l(3) =   1
                l(4) =   1
     Q(r) pseudized with 0 coefficients 


     PseudoPot. # 3 for H  read from file:
     /users/bkreitz1/quantum-espresso/potentials/H.pbe-kjpaw_psl.1.0.0.UPF
     MD5 check sum: ae98473e6dc62675f0d0baffdab24f65
     Pseudo is Projector augmented-wave, Zval =  1.0
     Generated using 'atomic' code by A. Dal Corso  v.6.7MaX
     Shape of augmentation charge: PSQ
     Using radial grid of  929 points,  2 beta functions with: 
                l(1) =   0
                l(2) =   0
     Q(r) pseudized with 0 coefficients 


     atomic species   valence    mass     pseudopotential
        Pt            10.00   195.08400     Pt( 1.00)
        C              4.00    12.01100     C ( 1.00)
        H              1.00     1.00800     H ( 1.00)

     No symmetry found



   Cartesian axes

     site n.     atom                  positions (alat units)
         1           Pt  tau(   1) = (   0.0000000   0.0000000   1.0017346  )
         2           Pt  tau(   2) = (   0.3333333   0.0000000   1.0017346  )
         3           Pt  tau(   3) = (   0.6666667   0.0000000   1.0017346  )
         4           Pt  tau(   4) = (   0.1666667   0.2886751   1.0017346  )
         5           Pt  tau(   5) = (   0.5000000   0.2886751   1.0017346  )
         6           Pt  tau(   6) = (   0.8333333   0.2886751   1.0017346  )
         7           Pt  tau(   7) = (   0.3333333   0.5773503   1.0017346  )
         8           Pt  tau(   8) = (   0.6666667   0.5773503   1.0017346  )
         9           Pt  tau(   9) = (   1.0000000   0.5773503   1.0017346  )
        10           Pt  tau(  10) = (   0.1666667   0.0962250   1.2739001  )
        11           Pt  tau(  11) = (   0.5000000   0.0962250   1.2739001  )
        12           Pt  tau(  12) = (   0.8333333   0.0962250   1.2739001  )
        13           Pt  tau(  13) = (   0.3333333   0.3849002   1.2739001  )
        14           Pt  tau(  14) = (   0.6666667   0.3849002   1.2739001  )
        15           Pt  tau(  15) = (   1.0000000   0.3849002   1.2739001  )
        16           Pt  tau(  16) = (   0.5000000   0.6735753   1.2739001  )
        17           Pt  tau(  17) = (   0.8333333   0.6735753   1.2739001  )
        18           Pt  tau(  18) = (   1.1666667   0.6735753   1.2739001  )
        19           Pt  tau(  19) = (  -0.0044391   0.1925613   1.5481713  )
        20           Pt  tau(  20) = (   0.3332008   0.1896319   1.5422203  )
        21           Pt  tau(  21) = (   0.6695567   0.1886592   1.5588878  )
        22           Pt  tau(  22) = (   0.1670367   0.4786375   1.5392669  )
        23           Pt  tau(  23) = (   0.5008415   0.4794367   1.5420547  )
        24           Pt  tau(  24) = (   0.8296213   0.4769631   1.5434606  )
        25           Pt  tau(  25) = (   0.3287639   0.7702287   1.5479073  )
        26           Pt  tau(  26) = (   0.6626222   0.7699435   1.5483957  )
        27           Pt  tau(  27) = (   0.9997521   0.7718699   1.5440115  )
        28           Pt  tau(  28) = (  -0.0173718   0.0056507   1.8222817  )
        29           Pt  tau(  29) = (   0.3207780   0.0002674   1.8266914  )
        30           Pt  tau(  30) = (   0.6581356  -0.0009077   1.8627663  )
        31           Pt  tau(  31) = (   0.1675337   0.2792948   1.8172029  )
        32           Pt  tau(  32) = (   0.4938486   0.2879296   1.8170133  )
        33           Pt  tau(  33) = (   0.8261902   0.2894074   1.8639974  )
        34           Pt  tau(  34) = (   0.3382871   0.5747764   1.8164018  )
        35           Pt  tau(  35) = (   0.6570644   0.5816811   1.8264286  )
        36           Pt  tau(  36) = (   1.0183732   0.5623097   1.8010036  )
        37           C   tau(  37) = (   0.8287258   0.5073601   1.9628724  )
        38           C   tau(  38) = (   0.9411624   0.6067573   2.0451977  )
        39           C   tau(  39) = (   0.9706596   0.7534677   1.9622161  )
        40           H   tau(  40) = (   1.0122310   0.5662996   2.1449110  )

     number of k points=    13  Marzari-Vanderbilt smearing, width (Ry)=  0.0200
                       cart. coord. in units 2pi/alat
        k(    1) = (   0.0000000   0.0000000   0.0000000), wk =   0.0800000
        k(    2) = (   0.0000000   0.2309401   0.0000000), wk =   0.1600000
        k(    3) = (   0.0000000   0.4618802   0.0000000), wk =   0.1600000
        k(    4) = (   0.2000000  -0.1154701   0.0000000), wk =   0.1600000
        k(    5) = (   0.2000000   0.1154701   0.0000000), wk =   0.1600000
        k(    6) = (   0.2000000   0.3464102   0.0000000), wk =   0.1600000
        k(    7) = (   0.2000000  -0.5773503   0.0000000), wk =   0.1600000
        k(    8) = (   0.2000000  -0.3464102   0.0000000), wk =   0.1600000
        k(    9) = (   0.4000000  -0.2309401   0.0000000), wk =   0.1600000
        k(   10) = (   0.4000000  -0.0000000   0.0000000), wk =   0.1600000
        k(   11) = (   0.4000000   0.2309401   0.0000000), wk =   0.1600000
        k(   12) = (   0.4000000  -0.6928203   0.0000000), wk =   0.1600000
        k(   13) = (   0.4000000  -0.4618802   0.0000000), wk =   0.1600000

     Dense  grid:   710981 G-vectors     FFT dimensions: (  80,  80, 256)

     Estimated max dynamical RAM per process >       8.59 GB

     Check: negative core charge=   -0.000002

     Initial potential from superposition of free atoms

     starting charge  372.99376, renormalised to  373.00000

     negative rho (up, down):  1.218E-02 0.000E+00


     %%%%%%%%%%%%%%%%%%%%%%%%%%%%%%%%%%%%%%%%%%%%%%%%%%%%%%%%%%%%%%%%%%%%%%%%
     %                                                                      %
     % You are using vdW-DF, which was implemented by the Thonhauser group. %
     % Please cite the following two papers that made this development      %
     % possible and the two reviews that describe the various versions:     %
     %                                                                      %
     %   T. Thonhauser et al., PRL 115, 136402 (2015).                      %
     %   T. Thonhauser et al., PRB 76, 125112 (2007).                       %
     %   K. Berland et al., Rep. Prog. Phys. 78, 066501 (2015).             %
     %   D.C. Langreth et al., J. Phys.: Condens. Matter 21, 084203 (2009). %
     %                                                                      %
     %                                                                      %
     % If you are calculating the stress with vdW-DF, please also cite:     %
     %                                                                      %
     %   R. Sabatini et al., J. Phys.: Condens. Matter 24, 424209 (2012).   %
     %                                                                      %
     %%%%%%%%%%%%%%%%%%%%%%%%%%%%%%%%%%%%%%%%%%%%%%%%%%%%%%%%%%%%%%%%%%%%%%%%


     Starting wfcs are  337 randomized atomic wfcs
     Checking if some PAW data can be deallocated... 

     total cpu time spent up to now is      335.1 secs

     Self-consistent Calculation

     iteration #  1     ecut=    60.00 Ry     beta= 0.70
     Davidson diagonalization with overlap
     ethr =  1.00E-02,  avg # of iterations =  2.0

     Threshold (ethr) on eigenvalues was too large:
     Diagonalizing with lowered threshold

     Davidson diagonalization with overlap
     ethr =  7.94E-04,  avg # of iterations =  2.6

     negative rho (up, down):  1.550E-02 0.000E+00

     total cpu time spent up to now is     1628.7 secs

     total energy              =  -27811.88004442 Ry
     estimated scf accuracy    <       3.25927894 Ry

     iteration #  2     ecut=    60.00 Ry     beta= 0.70
     Davidson diagonalization with overlap
     ethr =  8.74E-04,  avg # of iterations =  2.0

     negative rho (up, down):  1.334E-02 0.000E+00

     total cpu time spent up to now is     2217.9 secs

     total energy              =  -27812.18459715 Ry
     estimated scf accuracy    <       1.36132075 Ry

     iteration #  3     ecut=    60.00 Ry     beta= 0.70
     Davidson diagonalization with overlap
     ethr =  3.65E-04,  avg # of iterations =  2.0

     negative rho (up, down):  1.113E-02 0.000E+00

     total cpu time spent up to now is     2804.6 secs

     total energy              =  -27812.26333477 Ry
     estimated scf accuracy    <       0.58298493 Ry

     iteration #  4     ecut=    60.00 Ry     beta= 0.70
     Davidson diagonalization with overlap
     ethr =  1.56E-04,  avg # of iterations =  2.8

     negative rho (up, down):  8.775E-03 0.000E+00

     total cpu time spent up to now is     3415.7 secs

     total energy              =  -27812.30115100 Ry
     estimated scf accuracy    <       0.08464051 Ry

     iteration #  5     ecut=    60.00 Ry     beta= 0.70
     Davidson diagonalization with overlap
     c_bands:  1 eigenvalues not converged
     c_bands:  2 eigenvalues not converged
     c_bands:  2 eigenvalues not converged
     c_bands:  1 eigenvalues not converged
     ethr =  2.27E-05,  avg # of iterations = 17.6

     negative rho (up, down):  7.256E-03 0.000E+00

     total cpu time spent up to now is     4456.1 secs

     total energy              =  -27812.32988369 Ry
     estimated scf accuracy    <       0.07995731 Ry

     iteration #  6     ecut=    60.00 Ry     beta= 0.70
     Davidson diagonalization with overlap
     ethr =  2.14E-05,  avg # of iterations =  1.6

     negative rho (up, down):  5.753E-03 0.000E+00

     total cpu time spent up to now is     5001.8 secs

     total energy              =  -27812.33164754 Ry
     estimated scf accuracy    <       0.01189615 Ry

     iteration #  7     ecut=    60.00 Ry     beta= 0.70
     Davidson diagonalization with overlap
     c_bands:  1 eigenvalues not converged
     c_bands:  1 eigenvalues not converged
     c_bands:  1 eigenvalues not converged
     c_bands:  1 eigenvalues not converged
     ethr =  3.19E-06,  avg # of iterations = 12.2

     negative rho (up, down):  5.149E-03 0.000E+00

     total cpu time spent up to now is     5731.0 secs

     total energy              =  -27812.33274406 Ry
     estimated scf accuracy    <       0.00477418 Ry

     iteration #  8     ecut=    60.00 Ry     beta= 0.70
     Davidson diagonalization with overlap
     c_bands:  1 eigenvalues not converged
     ethr =  1.28E-06,  avg # of iterations =  4.7

     negative rho (up, down):  5.048E-03 0.000E+00

     total cpu time spent up to now is     6327.7 secs

     total energy              =  -27812.33310093 Ry
     estimated scf accuracy    <       0.00167866 Ry

     iteration #  9     ecut=    60.00 Ry     beta= 0.70
     Davidson diagonalization with overlap
     ethr =  4.50E-07,  avg # of iterations =  3.5

     negative rho (up, down):  5.439E-03 0.000E+00

     total cpu time spent up to now is     6965.8 secs

     total energy              =  -27812.33328037 Ry
     estimated scf accuracy    <       0.00113367 Ry

     iteration # 10     ecut=    60.00 Ry     beta= 0.70
     Davidson diagonalization with overlap
     ethr =  3.04E-07,  avg # of iterations =  3.7

     negative rho (up, down):  6.000E-03 0.000E+00

     total cpu time spent up to now is     7575.7 secs

     total energy              =  -27812.33334168 Ry
     estimated scf accuracy    <       0.00092624 Ry

     iteration # 11     ecut=    60.00 Ry     beta= 0.70
     Davidson diagonalization with overlap
     ethr =  2.48E-07,  avg # of iterations =  2.7

     negative rho (up, down):  7.164E-03 0.000E+00

     total cpu time spent up to now is     8136.1 secs

     total energy              =  -27812.33336890 Ry
     estimated scf accuracy    <       0.00047780 Ry

     iteration # 12     ecut=    60.00 Ry     beta= 0.70
     Davidson diagonalization with overlap
     ethr =  1.28E-07,  avg # of iterations =  2.0

     negative rho (up, down):  7.776E-03 0.000E+00

     total cpu time spent up to now is     8710.5 secs

     total energy              =  -27812.33339011 Ry
     estimated scf accuracy    <       0.00022688 Ry

     iteration # 13     ecut=    60.00 Ry     beta= 0.70
     Davidson diagonalization with overlap
     ethr =  6.08E-08,  avg # of iterations =  2.0

     negative rho (up, down):  9.995E-03 0.000E+00

     total cpu time spent up to now is     9303.0 secs

     total energy              =  -27812.33340730 Ry
     estimated scf accuracy    <       0.00009916 Ry

     iteration # 14     ecut=    60.00 Ry     beta= 0.70
     Davidson diagonalization with overlap
     ethr =  2.66E-08,  avg # of iterations =  2.2

     negative rho (up, down):  9.887E-03 0.000E+00

     total cpu time spent up to now is     9954.6 secs

     total energy              =  -27812.33342869 Ry
     estimated scf accuracy    <       0.00008806 Ry

     iteration # 15     ecut=    60.00 Ry     beta= 0.70
     Davidson diagonalization with overlap
     ethr =  2.36E-08,  avg # of iterations =  1.0

     negative rho (up, down):  1.241E-02 0.000E+00

     total cpu time spent up to now is    10476.6 secs

     total energy              =  -27812.33342038 Ry
     estimated scf accuracy    <       0.00006447 Ry

     iteration # 16     ecut=    60.00 Ry     beta= 0.70
     Davidson diagonalization with overlap
     c_bands:  1 eigenvalues not converged
     ethr =  1.73E-08,  avg # of iterations =  3.2

     negative rho (up, down):  1.310E-02 0.000E+00

     total cpu time spent up to now is    11048.2 secs

     total energy              =  -27812.33342297 Ry
     estimated scf accuracy    <       0.00000773 Ry

     iteration # 17     ecut=    60.00 Ry     beta= 0.70
     Davidson diagonalization with overlap
     ethr =  2.07E-09,  avg # of iterations =  6.5

     negative rho (up, down):  1.325E-02 0.000E+00

     total cpu time spent up to now is    12160.6 secs

     total energy              =  -27812.33342765 Ry
     estimated scf accuracy    <       0.00000307 Ry

     iteration # 18     ecut=    60.00 Ry     beta= 0.70
     Davidson diagonalization with overlap
     ethr =  8.23E-10,  avg # of iterations =  3.6

     negative rho (up, down):  1.338E-02 0.000E+00

     total cpu time spent up to now is    12825.9 secs

     total energy              =  -27812.33342785 Ry
     estimated scf accuracy    <       0.00000134 Ry

     iteration # 19     ecut=    60.00 Ry     beta= 0.70
     Davidson diagonalization with overlap
     ethr =  3.60E-10,  avg # of iterations =  2.9

     negative rho (up, down):  1.332E-02 0.000E+00

     total cpu time spent up to now is    13447.5 secs

     End of self-consistent calculation

          k = 0.0000 0.0000 0.0000 ( 88877 PWs)   bands (ev):

   -14.6722 -10.5056  -8.1593  -6.7222  -5.9771  -5.3587  -5.2572  -4.9711
    -4.4096  -4.3940  -4.3674  -4.3608  -4.3073  -4.2961  -4.2592  -4.2068
    -3.8956  -3.8457  -3.8092  -3.8061  -3.7640  -3.6759  -3.5707  -3.5351
    -3.4810  -3.4231  -3.3325  -3.2437  -3.2409  -3.2216  -3.1630  -3.1459
    -3.1161  -3.0454  -3.0330  -3.0281  -2.9798  -2.9612  -2.9527  -2.8716
    -2.8611  -2.8200  -2.8062  -2.7368  -2.7289  -2.5985  -2.4951  -2.4582
    -2.3804  -2.3621  -2.3119  -2.3019  -2.2856  -2.2551  -2.1851  -2.1532
    -2.0611  -2.0511  -2.0423  -2.0157  -2.0107  -1.8008  -1.7420  -1.6467
    -1.6212  -1.5976  -1.5614  -1.5260  -1.5173  -1.4860  -1.4569  -1.4514
    -1.3904  -1.3462  -1.3444  -1.3224  -1.2761  -1.2562  -1.2508  -1.2289
    -1.2212  -1.1963  -1.1701  -1.1543  -1.1518  -1.1448  -1.1395  -1.1342
    -1.1026  -1.0247  -1.0109  -0.9350  -0.8941  -0.8791  -0.8605  -0.8298
    -0.7992  -0.7788  -0.7720  -0.7440  -0.7162  -0.6944  -0.6658  -0.6612
    -0.6438  -0.6187  -0.6161  -0.6098  -0.5949  -0.5401  -0.4937  -0.4901
    -0.4185  -0.3734  -0.3337  -0.2571  -0.1435  -0.1405  -0.0614  -0.0046
     0.0094   0.0561   0.0832   0.1282   0.1650   0.1707   0.2112   0.2401
     0.2469   0.2615   0.2733   0.2793   0.3037   0.3467   0.5047   0.5136
     0.5283   0.5302   0.5926   0.6235   0.6666   0.7038   0.7296   0.7440
     0.7483   0.8055   0.8467   0.8583   0.8645   0.8833   0.9453   0.9555
     0.9819   1.0048   1.0460   1.0976   1.0984   1.1513   1.1735   1.1809
     1.1892   1.2085   1.2131   1.2165   1.2300   1.2496   1.2558   1.3032
     1.3117   1.3240   1.3270   1.3771   1.3804   1.4071   1.4130   1.4400
     1.4527   1.4814   1.5274   1.5375   1.5428   1.5547   1.5604   1.5823
     1.6229   1.6265   1.6518   1.6763   1.6936   1.7418   1.7522   1.7627
     1.8810   1.8959   1.9424   1.9604   1.9819   2.0036   2.0353   2.0616
     2.3257   2.3323   2.5147   2.6444   2.8548   2.8907   3.3080   3.6403
     3.6569   3.8899   4.7368   5.0115   5.1395   5.2595   5.4209   5.4438
     6.0584   6.3117   6.4985   6.7464   6.7641   6.8705   6.9042   6.9221

          k = 0.0000 0.2309 0.0000 ( 88782 PWs)   bands (ev):

   -14.6711 -10.5159  -8.1308  -6.5863  -5.9156  -5.3391  -5.1991  -4.9772
    -4.7738  -4.4555  -4.3709  -4.2665  -4.2201  -4.1435  -4.0961  -4.0696
    -3.9568  -3.8891  -3.7948  -3.7498  -3.7318  -3.6233  -3.5510  -3.5219
    -3.4303  -3.3991  -3.3675  -3.2689  -3.2347  -3.2197  -3.2015  -3.1254
    -3.0998  -3.0613  -3.0425  -3.0282  -3.0013  -2.9822  -2.9424  -2.9047
    -2.8207  -2.7897  -2.7406  -2.6686  -2.6437  -2.5964  -2.4962  -2.4783
    -2.4367  -2.3878  -2.3734  -2.3598  -2.3109  -2.2678  -2.2114  -2.1788
    -2.1322  -2.1002  -2.0769  -1.9765  -1.9344  -1.8794  -1.8140  -1.7615
    -1.7020  -1.6693  -1.6472  -1.6149  -1.6055  -1.5621  -1.5389  -1.5206
    -1.4733  -1.4308  -1.4218  -1.3936  -1.3462  -1.3311  -1.3014  -1.2700
    -1.2272  -1.2230  -1.1850  -1.1644  -1.1497  -1.1236  -1.1063  -1.0867
    -1.0546  -1.0262  -0.9945  -0.9529  -0.9308  -0.8924  -0.8764  -0.8616
    -0.8470  -0.8203  -0.7969  -0.7720  -0.7367  -0.7351  -0.7168  -0.6922
    -0.6781  -0.6647  -0.6421  -0.6239  -0.5861  -0.5477  -0.4719  -0.4403
    -0.4273  -0.3921  -0.3779  -0.3709  -0.3631  -0.3299  -0.2536  -0.1855
    -0.1398  -0.0788  -0.0169   0.0121   0.0370   0.0637   0.0856   0.1400
     0.1942   0.2138   0.2698   0.2987   0.3540   0.3748   0.4195   0.4369
     0.4674   0.4853   0.5131   0.5582   0.5937   0.6231   0.6432   0.6724
     0.6951   0.7500   0.7713   0.7905   0.8284   0.8472   0.8772   0.9177
     0.9329   0.9744   0.9986   1.0193   1.0538   1.0864   1.1241   1.1674
     1.1971   1.2187   1.2338   1.2541   1.2667   1.2987   1.3205   1.3875
     1.4057   1.4409   1.4624   1.5068   1.5274   1.5466   1.5562   1.5869
     1.6126   1.6494   1.6599   1.6970   1.7259   1.7363   1.7587   1.7908
     1.8357   1.8590   1.8870   1.9084   1.9238   1.9441   1.9788   1.9877
     2.0153   2.0329   2.0655   2.1291   2.1482   2.1987   2.2625   2.2927
     2.3588   2.5457   2.6585   2.8922   3.1469   3.3228   3.5754   3.6220
     3.8310   3.9491   4.6150   4.8853   5.0731   5.3305   5.6022   5.6427
     5.7685   5.9560   6.1356   6.3984   6.4491   6.7108   6.8210   7.0501

          k = 0.0000 0.4619 0.0000 ( 88834 PWs)   bands (ev):

   -14.6694 -10.5323  -8.0853  -6.1946  -5.7997  -5.5948  -5.2766  -4.9961
    -4.7608  -4.5100  -4.3914  -4.2949  -4.1110  -3.9971  -3.9169  -3.8837
    -3.8736  -3.7618  -3.7391  -3.6598  -3.5984  -3.5674  -3.5220  -3.4684
    -3.4484  -3.3986  -3.3738  -3.3572  -3.3212  -3.2940  -3.2644  -3.2404
    -3.1636  -3.1318  -3.0477  -3.0113  -2.9445  -2.9259  -2.8674  -2.8244
    -2.7667  -2.7557  -2.7121  -2.6688  -2.6446  -2.5811  -2.5531  -2.5138
    -2.4598  -2.4247  -2.3705  -2.3337  -2.3075  -2.2657  -2.2500  -2.2152
    -2.1871  -2.1560  -2.0982  -2.0719  -2.0448  -1.9761  -1.9455  -1.8845
    -1.8695  -1.8353  -1.8067  -1.7799  -1.7394  -1.6741  -1.6487  -1.6015
    -1.5603  -1.5068  -1.4943  -1.4714  -1.4324  -1.3938  -1.3616  -1.3547
    -1.3107  -1.2725  -1.2467  -1.2353  -1.2015  -1.1846  -1.1412  -1.1200
    -1.1100  -1.0717  -1.0561  -1.0330  -0.9956  -0.9787  -0.9448  -0.9188
    -0.9033  -0.8668  -0.8549  -0.8362  -0.8053  -0.7767  -0.7421  -0.7154
    -0.6883  -0.6620  -0.6283  -0.6047  -0.5409  -0.5154  -0.4830  -0.4552
    -0.4435  -0.4123  -0.3899  -0.3703  -0.3252  -0.2816  -0.2514  -0.2000
    -0.1642  -0.1155  -0.1016  -0.0672  -0.0298   0.0124   0.0395   0.0466
     0.0539   0.0885   0.1229   0.1406   0.1834   0.2090   0.2609   0.2871
     0.3015   0.3561   0.3812   0.4086   0.4652   0.5517   0.5947   0.6223
     0.6625   0.7351   0.7580   0.7802   0.8001   0.8433   0.8656   0.8812
     0.9109   0.9450   0.9775   0.9911   1.0252   1.0518   1.0985   1.1225
     1.1611   1.1876   1.2401   1.2754   1.2932   1.3445   1.3757   1.4265
     1.4606   1.5132   1.5305   1.5748   1.5877   1.6266   1.6448   1.6751
     1.6978   1.7309   1.7705   1.8091   1.8384   1.8661   1.8864   1.9058
     1.9263   1.9636   2.0256   2.0606   2.1512   2.1719   2.1897   2.2080
     2.2323   2.2788   2.4184   2.4680   2.6094   2.7770   2.9681   3.1126
     3.2269   3.3267   3.4408   3.5332   3.6593   3.8015   4.0166   4.1421
     4.3246   4.4568   4.5832   4.6125   4.6745   4.9084   5.0359   5.1027
     5.2050   5.6130   5.6894   5.9267   6.1189   6.3088   6.6412   6.7105

          k = 0.2000-0.1155 0.0000 ( 88782 PWs)   bands (ev):

   -14.6717 -10.5051  -8.1422  -6.5895  -5.9470  -5.3069  -5.2337  -5.0264
    -4.6816  -4.4420  -4.4320  -4.2675  -4.2264  -4.1314  -4.1106  -4.0560
    -3.9021  -3.8462  -3.8003  -3.7778  -3.7435  -3.6830  -3.5158  -3.4640
    -3.4584  -3.3669  -3.3587  -3.2975  -3.2345  -3.2234  -3.1775  -3.1309
    -3.1078  -3.0850  -3.0537  -3.0289  -2.9993  -2.9759  -2.9353  -2.9053
    -2.8407  -2.7788  -2.6927  -2.6805  -2.6433  -2.6062  -2.5645  -2.4756
    -2.4169  -2.4131  -2.3864  -2.3596  -2.3187  -2.2319  -2.2123  -2.1929
    -2.1169  -2.0906  -2.0580  -2.0174  -1.9322  -1.8978  -1.7647  -1.7534
    -1.7306  -1.6666  -1.6517  -1.6218  -1.6074  -1.5851  -1.5433  -1.5242
    -1.4995  -1.4490  -1.4191  -1.3915  -1.3560  -1.3348  -1.3018  -1.2805
    -1.2212  -1.2070  -1.1913  -1.1596  -1.1261  -1.1204  -1.0978  -1.0866
    -1.0524  -1.0125  -1.0058  -0.9676  -0.9374  -0.9158  -0.8546  -0.8523
    -0.8449  -0.8070  -0.7935  -0.7459  -0.7404  -0.7208  -0.7063  -0.7026
    -0.6794  -0.6472  -0.6402  -0.5960  -0.5922  -0.5763  -0.4720  -0.4470
    -0.4273  -0.3999  -0.3721  -0.3702  -0.3364  -0.3240  -0.2637  -0.1769
    -0.0914  -0.0355  -0.0216   0.0309   0.0380   0.0796   0.1114   0.1971
     0.1998   0.2204   0.2865   0.2937   0.3232   0.3475   0.4276   0.4386
     0.4669   0.4922   0.5154   0.5282   0.5834   0.5919   0.6537   0.6607
     0.7040   0.7311   0.7644   0.7729   0.8296   0.8486   0.8810   0.9269
     0.9381   1.0000   1.0029   1.0405   1.0476   1.0810   1.1394   1.1860
     1.1923   1.2086   1.2262   1.2361   1.2751   1.2868   1.3296   1.3715
     1.4186   1.4234   1.4904   1.5146   1.5318   1.5342   1.5572   1.5866
     1.5963   1.6072   1.6500   1.7004   1.7073   1.7391   1.7423   1.7778
     1.8310   1.8524   1.8793   1.9147   1.9386   1.9572   1.9648   1.9816
     1.9887   2.0040   2.0279   2.1358   2.1476   2.2320   2.2454   2.3206
     2.4136   2.4462   2.7324   2.9028   2.9456   3.4352   3.6391   3.6902
     3.7298   3.9605   4.6028   4.8407   5.0093   5.4192   5.5636   5.5938
     5.8293   5.8596   6.0877   6.4180   6.5614   6.6651   6.8707   6.9651

          k = 0.2000 0.1155 0.0000 ( 88782 PWs)   bands (ev):

   -14.6711 -10.5159  -8.1309  -6.5862  -5.9154  -5.3378  -5.2006  -4.9767
    -4.7700  -4.4599  -4.3726  -4.2662  -4.2185  -4.1370  -4.1030  -4.0708
    -3.9593  -3.8889  -3.7887  -3.7484  -3.7309  -3.6230  -3.5537  -3.5193
    -3.4313  -3.4006  -3.3681  -3.2683  -3.2347  -3.2207  -3.2007  -3.1226
    -3.0967  -3.0616  -3.0427  -3.0281  -3.0044  -2.9819  -2.9426  -2.9041
    -2.8185  -2.7903  -2.7416  -2.6664  -2.6490  -2.6002  -2.4952  -2.4776
    -2.4374  -2.3897  -2.3718  -2.3615  -2.3103  -2.2691  -2.2130  -2.1786
    -2.1336  -2.0981  -2.0770  -1.9813  -1.9318  -1.8799  -1.8134  -1.7662
    -1.7050  -1.6712  -1.6525  -1.6220  -1.5986  -1.5662  -1.5393  -1.5175
    -1.4746  -1.4313  -1.4230  -1.3940  -1.3432  -1.3303  -1.3042  -1.2770
    -1.2258  -1.2114  -1.1764  -1.1630  -1.1487  -1.1166  -1.1045  -1.0875
    -1.0532  -1.0277  -0.9997  -0.9576  -0.9315  -0.8927  -0.8780  -0.8651
    -0.8458  -0.8232  -0.7930  -0.7722  -0.7391  -0.7331  -0.7158  -0.6855
    -0.6777  -0.6623  -0.6421  -0.6236  -0.5872  -0.5463  -0.4695  -0.4408
    -0.4281  -0.3919  -0.3775  -0.3724  -0.3607  -0.3302  -0.2549  -0.1852
    -0.1430  -0.0775  -0.0177   0.0153   0.0350   0.0652   0.0893   0.1398
     0.1879   0.2173   0.2726   0.3026   0.3545   0.3765   0.4190   0.4381
     0.4640   0.4987   0.5098   0.5589   0.5924   0.6254   0.6457   0.6715
     0.6931   0.7512   0.7719   0.7916   0.8264   0.8491   0.8761   0.9153
     0.9340   0.9736   0.9977   1.0182   1.0526   1.0837   1.1208   1.1687
     1.1955   1.2204   1.2340   1.2547   1.2658   1.2981   1.3190   1.3868
     1.4077   1.4405   1.4629   1.5082   1.5287   1.5471   1.5566   1.5857
     1.6144   1.6513   1.6591   1.6993   1.7255   1.7366   1.7632   1.7919
     1.8418   1.8632   1.8817   1.9047   1.9259   1.9419   1.9725   1.9829
     2.0119   2.0283   2.0672   2.1280   2.1484   2.2003   2.2616   2.2914
     2.3569   2.5370   2.6563   2.8934   3.1491   3.3213   3.5768   3.6279
     3.8306   3.9492   4.6188   4.8776   5.0717   5.3288   5.6046   5.6423
     5.7693   5.9566   6.1385   6.3983   6.4486   6.7117   6.8353   7.0549

          k = 0.2000 0.3464 0.0000 ( 88818 PWs)   bands (ev):

   -14.6695 -10.5325  -8.0906  -6.3178  -5.8097  -5.3828  -5.2330  -5.0287
    -4.9227  -4.7243  -4.1477  -4.0739  -4.0575  -4.0048  -3.9975  -3.9454
    -3.9313  -3.8907  -3.8671  -3.8124  -3.6736  -3.5200  -3.5043  -3.4590
    -3.4259  -3.3902  -3.3247  -3.3009  -3.2937  -3.2612  -3.1640  -3.1522
    -3.1340  -3.1287  -3.0774  -3.0514  -3.0069  -2.9734  -2.9589  -2.9075
    -2.8023  -2.7959  -2.7030  -2.6442  -2.5700  -2.5302  -2.5120  -2.5070
    -2.4481  -2.3891  -2.3747  -2.3537  -2.3239  -2.2619  -2.2138  -2.1841
    -2.1374  -2.1191  -2.0934  -2.0557  -2.0049  -1.9891  -1.9260  -1.8929
    -1.8115  -1.7634  -1.7574  -1.7364  -1.7165  -1.6668  -1.6184  -1.6111
    -1.5677  -1.5223  -1.5112  -1.4485  -1.4315  -1.3979  -1.3655  -1.3292
    -1.2979  -1.2795  -1.2571  -1.2318  -1.1832  -1.1729  -1.1422  -1.1049
    -1.0675  -1.0581  -1.0132  -0.9945  -0.9636  -0.9487  -0.9197  -0.9134
    -0.9029  -0.8605  -0.8467  -0.8127  -0.7837  -0.7699  -0.7311  -0.7060
    -0.6943  -0.6598  -0.6542  -0.6096  -0.5914  -0.5796  -0.5398  -0.5098
    -0.4862  -0.4654  -0.4289  -0.3788  -0.3680  -0.3144  -0.2489  -0.1820
    -0.1658  -0.1504  -0.0840  -0.0542  -0.0239   0.0371   0.0617   0.0694
     0.1068   0.1408   0.1789   0.1885   0.2291   0.2554   0.2853   0.3688
     0.3856   0.4191   0.4281   0.4728   0.5116   0.5672   0.5859   0.6076
     0.6515   0.6834   0.7291   0.7613   0.7874   0.8206   0.8517   0.8684
     0.8943   0.9147   0.9499   0.9684   0.9862   1.0629   1.0744   1.0825
     1.1264   1.1882   1.2530   1.2964   1.3144   1.4006   1.4267   1.4938
     1.5079   1.5419   1.5710   1.6264   1.6323   1.6618   1.6939   1.7196
     1.7273   1.7621   1.7709   1.7925   1.8197   1.8284   1.8852   1.9106
     1.9275   1.9472   1.9737   2.0189   2.0550   2.1178   2.1761   2.1810
     2.2229   2.2645   2.3423   2.3595   2.3923   2.5108   2.6920   2.9157
     2.9667   3.2307   3.2686   3.4337   3.5072   3.6000   3.8767   4.0475
     4.0890   4.4136   4.4574   4.5886   4.7703   5.1058   5.4057   5.5660
     5.6663   5.7063   5.9882   6.1521   6.2301   6.4141   6.5096   6.5529

          k = 0.2000-0.5774 0.0000 ( 88792 PWs)   bands (ev):

   -14.6691 -10.5321  -8.0770  -5.8770  -5.8275  -5.7134  -5.3011  -5.2167
    -4.8271  -4.5290  -4.4051  -4.0447  -4.0138  -3.9204  -3.8949  -3.8120
    -3.7785  -3.7264  -3.6734  -3.6309  -3.5946  -3.5550  -3.5408  -3.5258
    -3.5007  -3.4739  -3.4100  -3.3408  -3.3196  -3.2987  -3.2480  -3.2112
    -3.1881  -3.1606  -3.0736  -3.0366  -2.9822  -2.9297  -2.9114  -2.8832
    -2.8693  -2.7892  -2.6969  -2.6644  -2.6438  -2.5464  -2.5121  -2.5028
    -2.4615  -2.4307  -2.3567  -2.3084  -2.2712  -2.2244  -2.2132  -2.1584
    -2.1160  -2.0834  -2.0449  -2.0244  -2.0019  -1.9702  -1.9519  -1.9456
    -1.8846  -1.8611  -1.8418  -1.8091  -1.7726  -1.7459  -1.7094  -1.6707
    -1.6523  -1.6019  -1.5814  -1.5269  -1.4828  -1.4445  -1.4322  -1.4082
    -1.3957  -1.3451  -1.3264  -1.2674  -1.2256  -1.2129  -1.1949  -1.1835
    -1.1173  -1.0959  -1.0587  -1.0505  -1.0153  -0.9864  -0.9657  -0.9194
    -0.8653  -0.8487  -0.8176  -0.7823  -0.7570  -0.7421  -0.7357  -0.7103
    -0.6794  -0.6668  -0.6406  -0.6051  -0.5839  -0.5724  -0.5514  -0.5457
    -0.5077  -0.4820  -0.4549  -0.4241  -0.3595  -0.2710  -0.2579  -0.1746
    -0.1485  -0.1407  -0.1003  -0.0741  -0.0605  -0.0361  -0.0004   0.0205
     0.0685   0.0964   0.1286   0.1375   0.2091   0.2255   0.2590   0.2813
     0.3331   0.3818   0.3974   0.4148   0.5000   0.5618   0.5842   0.6198
     0.6395   0.6652   0.6919   0.7211   0.7542   0.7803   0.7995   0.8216
     0.8523   0.8644   0.8955   0.9394   0.9722   1.0003   1.0564   1.1555
     1.1949   1.2193   1.2833   1.3436   1.3691   1.4099   1.4444   1.4797
     1.5110   1.5801   1.5989   1.6415   1.6655   1.6817   1.7174   1.7329
     1.7785   1.8094   1.8228   1.8386   1.8575   1.8925   1.9121   1.9381
     1.9852   2.0304   2.0613   2.1496   2.1582   2.1738   2.2023   2.2117
     2.2523   2.3452   2.4466   2.5799   2.8595   2.9668   3.2231   3.2660
     3.3656   3.4318   3.5838   3.7242   3.9374   3.9825   4.0648   4.3276
     4.3874   4.4810   4.6792   4.7582   4.9193   5.0055   5.0553   5.2379
     5.2815   5.4501   5.5051   5.6895   5.7571   6.0448   6.3397   6.3555

          k = 0.2000-0.3464 0.0000 ( 88818 PWs)   bands (ev):

   -14.6705 -10.5152  -8.1085  -6.3292  -5.8701  -5.3371  -5.2598  -5.0370
    -4.9600  -4.6842  -4.1313  -4.0791  -4.0503  -4.0032  -3.9790  -3.9501
    -3.9119  -3.8611  -3.8372  -3.7728  -3.7092  -3.5225  -3.4910  -3.4804
    -3.3992  -3.3776  -3.3350  -3.3122  -3.2942  -3.2508  -3.2064  -3.1584
    -3.1451  -3.1168  -3.0836  -3.0515  -3.0113  -2.9939  -2.9418  -2.8913
    -2.8420  -2.7831  -2.7196  -2.6480  -2.6266  -2.5651  -2.5297  -2.4780
    -2.4291  -2.4021  -2.3792  -2.3678  -2.3201  -2.2784  -2.2249  -2.2048
    -2.1332  -2.0844  -2.0623  -2.0255  -1.9896  -1.9741  -1.9490  -1.9107
    -1.8042  -1.7947  -1.7421  -1.7116  -1.6899  -1.6541  -1.6301  -1.5981
    -1.5733  -1.5500  -1.5124  -1.4353  -1.4213  -1.3915  -1.3684  -1.3421
    -1.3001  -1.2458  -1.2363  -1.2052  -1.1791  -1.1558  -1.1445  -1.1313
    -1.0701  -1.0582  -1.0061  -0.9922  -0.9665  -0.9450  -0.9376  -0.9174
    -0.8949  -0.8552  -0.8413  -0.8085  -0.7753  -0.7586  -0.7377  -0.7010
    -0.6733  -0.6578  -0.6462  -0.6267  -0.5945  -0.5780  -0.5614  -0.5429
    -0.4820  -0.4621  -0.4381  -0.3920  -0.3575  -0.3208  -0.2462  -0.2257
    -0.1500  -0.1209  -0.0635  -0.0499  -0.0090   0.0335   0.0665   0.0880
     0.1241   0.1649   0.1710   0.1884   0.2131   0.2469   0.3252   0.3485
     0.4020   0.4267   0.4542   0.4909   0.4977   0.5732   0.6018   0.6271
     0.6570   0.6755   0.6996   0.7214   0.7532   0.8068   0.8503   0.8732
     0.9077   0.9381   0.9607   1.0096   1.0169   1.0409   1.0600   1.0873
     1.1441   1.1838   1.2015   1.2754   1.3338   1.3932   1.4235   1.4853
     1.5192   1.5529   1.5767   1.5986   1.6520   1.6872   1.6928   1.7380
     1.7435   1.7691   1.7774   1.7975   1.8190   1.8497   1.8697   1.8903
     1.9004   1.9516   1.9910   2.0075   2.0461   2.1153   2.1565   2.1882
     2.2061   2.2266   2.2756   2.3625   2.3974   2.4641   2.7269   2.9019
     3.0101   3.1695   3.2581   3.3510   3.5128   3.6472   3.8536   4.0526
     4.1700   4.3364   4.3931   4.6031   4.6736   5.1188   5.4398   5.4860
     5.6981   5.7930   5.9855   6.0916   6.2377   6.4144   6.4796   6.6445

          k = 0.4000-0.2309 0.0000 ( 88834 PWs)   bands (ev):

   -14.6710 -10.5043  -8.1144  -6.2160  -5.9047  -5.5951  -5.1938  -5.0758
    -4.6908  -4.4867  -4.4587  -4.2768  -4.0551  -3.9889  -3.8799  -3.8596
    -3.8349  -3.7667  -3.7279  -3.7102  -3.5789  -3.5700  -3.5413  -3.4887
    -3.4152  -3.3904  -3.3541  -3.3527  -3.3196  -3.2923  -3.2877  -3.2520
    -3.1424  -3.1191  -3.0985  -2.9823  -2.9635  -2.9069  -2.8677  -2.8398
    -2.7883  -2.7839  -2.7342  -2.7103  -2.6353  -2.6015  -2.5457  -2.5031
    -2.4560  -2.4436  -2.3981  -2.3745  -2.2902  -2.2794  -2.2433  -2.2385
    -2.1952  -2.1426  -2.0712  -2.0456  -2.0312  -1.9892  -1.9772  -1.8957
    -1.8560  -1.8003  -1.7675  -1.7423  -1.7375  -1.7209  -1.6474  -1.6184
    -1.5727  -1.5234  -1.4900  -1.4648  -1.4571  -1.3951  -1.3690  -1.3324
    -1.2901  -1.2856  -1.2457  -1.2288  -1.1739  -1.1573  -1.1357  -1.1160
    -1.0941  -1.0901  -1.0305  -1.0196  -1.0058  -0.9862  -0.9426  -0.9241
    -0.9046  -0.8854  -0.8570  -0.8376  -0.8228  -0.7840  -0.7217  -0.6962
    -0.6914  -0.6514  -0.6182  -0.5837  -0.5767  -0.5276  -0.4775  -0.4520
    -0.4208  -0.4008  -0.3810  -0.3631  -0.3165  -0.2702  -0.1918  -0.1721
    -0.1448  -0.1181  -0.0897  -0.0288  -0.0230  -0.0075  -0.0031   0.0398
     0.0799   0.1194   0.1290   0.1537   0.1802   0.2236   0.2344   0.2809
     0.3181   0.3416   0.3449   0.4675   0.4739   0.5677   0.5900   0.6136
     0.6643   0.7052   0.7321   0.7538   0.8208   0.8531   0.8902   0.9194
     0.9585   0.9665   0.9937   1.0171   1.0551   1.0916   1.1045   1.1227
     1.1377   1.1883   1.2043   1.2322   1.3097   1.3169   1.3660   1.4255
     1.4345   1.5129   1.5551   1.5716   1.5850   1.6019   1.6322   1.6789
     1.7151   1.7521   1.7710   1.8092   1.8515   1.8570   1.8738   1.9048
     1.9308   1.9864   2.0280   2.0333   2.1301   2.1499   2.1647   2.1951
     2.2218   2.2633   2.3795   2.4189   2.5277   2.7271   2.8629   3.1237
     3.2816   3.3281   3.4340   3.5401   3.7502   3.8000   3.9131   4.1604
     4.2408   4.4189   4.5539   4.5639   4.7216   4.8361   4.9339   5.1471
     5.3811   5.6055   5.6539   5.9213   6.0386   6.3196   6.6526   6.7731

          k = 0.4000-0.0000 0.0000 ( 88818 PWs)   bands (ev):

   -14.6705 -10.5153  -8.1086  -6.3287  -5.8698  -5.3350  -5.2624  -5.0346
    -4.9607  -4.6839  -4.1311  -4.0772  -4.0487  -4.0040  -3.9817  -3.9499
    -3.9152  -3.8626  -3.8362  -3.7740  -3.7047  -3.5196  -3.4859  -3.4806
    -3.3981  -3.3752  -3.3323  -3.3134  -3.2953  -3.2541  -3.2097  -3.1597
    -3.1461  -3.1198  -3.0823  -3.0522  -3.0110  -2.9967  -2.9383  -2.8906
    -2.8374  -2.7824  -2.7181  -2.6500  -2.6275  -2.5668  -2.5301  -2.4789
    -2.4324  -2.4036  -2.3793  -2.3707  -2.3208  -2.2813  -2.2245  -2.2051
    -2.1343  -2.0865  -2.0643  -2.0264  -1.9898  -1.9723  -1.9504  -1.9087
    -1.8086  -1.7990  -1.7496  -1.7147  -1.6960  -1.6579  -1.6333  -1.6013
    -1.5706  -1.5521  -1.5111  -1.4355  -1.4235  -1.3917  -1.3605  -1.3369
    -1.2986  -1.2474  -1.2362  -1.2055  -1.1750  -1.1480  -1.1414  -1.1276
    -1.0692  -1.0520  -1.0050  -0.9925  -0.9622  -0.9463  -0.9359  -0.9224
    -0.8876  -0.8565  -0.8382  -0.8069  -0.7729  -0.7580  -0.7393  -0.7050
    -0.6793  -0.6607  -0.6435  -0.6266  -0.5922  -0.5793  -0.5621  -0.5461
    -0.4794  -0.4592  -0.4346  -0.3888  -0.3565  -0.3183  -0.2461  -0.2252
    -0.1523  -0.1194  -0.0631  -0.0512  -0.0105   0.0389   0.0660   0.0885
     0.1242   0.1657   0.1704   0.1948   0.2139   0.2495   0.3205   0.3424
     0.4004   0.4310   0.4569   0.4922   0.4976   0.5739   0.6029   0.6282
     0.6572   0.6751   0.7039   0.7227   0.7543   0.8086   0.8479   0.8765
     0.9069   0.9381   0.9572   1.0031   1.0160   1.0367   1.0537   1.0854
     1.1432   1.1844   1.2004   1.2753   1.3362   1.3930   1.4212   1.4862
     1.5178   1.5530   1.5779   1.5998   1.6508   1.6861   1.6939   1.7411
     1.7442   1.7720   1.7809   1.7989   1.8161   1.8539   1.8685   1.8889
     1.9021   1.9604   1.9895   2.0085   2.0482   2.1150   2.1512   2.1804
     2.1956   2.2225   2.2757   2.3617   2.3990   2.4637   2.7320   2.9053
     3.0107   3.1704   3.2547   3.3478   3.5080   3.6456   3.8502   4.0518
     4.1737   4.3362   4.3940   4.6036   4.6717   5.1151   5.4377   5.4812
     5.7008   5.7899   5.9907   6.0955   6.2422   6.4130   6.4823   6.6168

          k = 0.4000 0.2309 0.0000 ( 88834 PWs)   bands (ev):

   -14.6694 -10.5324  -8.0854  -6.1938  -5.7987  -5.5942  -5.2771  -4.9968
    -4.7596  -4.5125  -4.3915  -4.2950  -4.1036  -3.9946  -3.9171  -3.8834
    -3.8726  -3.7671  -3.7386  -3.6581  -3.5987  -3.5663  -3.5208  -3.4641
    -3.4468  -3.3990  -3.3724  -3.3565  -3.3202  -3.2942  -3.2632  -3.2407
    -3.1655  -3.1317  -3.0486  -3.0121  -2.9485  -2.9287  -2.8703  -2.8259
    -2.7678  -2.7579  -2.7143  -2.6686  -2.6491  -2.5830  -2.5544  -2.5168
    -2.4621  -2.4243  -2.3681  -2.3351  -2.3055  -2.2697  -2.2471  -2.2147
    -2.1841  -2.1532  -2.1022  -2.0759  -2.0459  -1.9823  -1.9543  -1.8867
    -1.8728  -1.8395  -1.8138  -1.7856  -1.7450  -1.6685  -1.6474  -1.6058
    -1.5576  -1.5048  -1.4991  -1.4674  -1.4241  -1.3923  -1.3602  -1.3455
    -1.2974  -1.2721  -1.2467  -1.2346  -1.2034  -1.1802  -1.1425  -1.1230
    -1.1072  -1.0690  -1.0599  -1.0301  -0.9906  -0.9767  -0.9504  -0.9234
    -0.9018  -0.8626  -0.8539  -0.8445  -0.8109  -0.7724  -0.7386  -0.7094
    -0.6862  -0.6628  -0.6299  -0.6009  -0.5358  -0.5155  -0.4783  -0.4516
    -0.4377  -0.4118  -0.3907  -0.3710  -0.3278  -0.2780  -0.2514  -0.1978
    -0.1647  -0.1189  -0.1041  -0.0695  -0.0345   0.0109   0.0400   0.0487
     0.0565   0.0864   0.1230   0.1412   0.1805   0.2116   0.2644   0.2870
     0.3061   0.3572   0.3889   0.4134   0.4679   0.5575   0.5912   0.6236
     0.6642   0.7331   0.7563   0.7767   0.8001   0.8407   0.8650   0.8819
     0.9085   0.9391   0.9773   0.9904   1.0222   1.0505   1.1022   1.1231
     1.1601   1.1879   1.2415   1.2753   1.2921   1.3446   1.3731   1.4282
     1.4610   1.5163   1.5316   1.5764   1.5881   1.6289   1.6438   1.6735
     1.7033   1.7369   1.7779   1.8113   1.8423   1.8660   1.8832   1.9019
     1.9231   1.9590   2.0184   2.0587   2.1395   2.1694   2.1818   2.2077
     2.2276   2.2868   2.4186   2.4662   2.6015   2.7845   2.9745   3.1134
     3.2306   3.3261   3.4417   3.5314   3.6551   3.7968   4.0162   4.1323
     4.3235   4.4557   4.5853   4.6122   4.6747   4.9051   5.0352   5.1024
     5.2071   5.6031   5.6958   5.9320   6.1185   6.3129   6.6424   6.7093

          k = 0.4000-0.6928 0.0000 ( 88792 PWs)   bands (ev):

   -14.6691 -10.5321  -8.0771  -5.8761  -5.8255  -5.7143  -5.3037  -5.2155
    -4.8280  -4.5278  -4.4044  -4.0429  -4.0096  -3.9190  -3.8949  -3.8122
    -3.7803  -3.7289  -3.6719  -3.6313  -3.5954  -3.5531  -3.5388  -3.5259
    -3.5014  -3.4749  -3.4100  -3.3398  -3.3176  -3.3003  -3.2459  -3.2122
    -3.1890  -3.1599  -3.0753  -3.0373  -2.9774  -2.9307  -2.9158  -2.8863
    -2.8684  -2.7927  -2.6997  -2.6664  -2.6469  -2.5466  -2.5119  -2.5014
    -2.4621  -2.4273  -2.3584  -2.3099  -2.2719  -2.2237  -2.2122  -2.1541
    -2.1173  -2.0831  -2.0497  -2.0243  -2.0095  -1.9751  -1.9589  -1.9425
    -1.8826  -1.8651  -1.8456  -1.8095  -1.7741  -1.7473  -1.7086  -1.6741
    -1.6532  -1.6020  -1.5816  -1.5288  -1.4796  -1.4481  -1.4264  -1.4030
    -1.3924  -1.3436  -1.3205  -1.2591  -1.2258  -1.2153  -1.1932  -1.1813
    -1.1201  -1.0969  -1.0590  -1.0509  -1.0151  -0.9885  -0.9669  -0.9175
    -0.8629  -0.8479  -0.8140  -0.7798  -0.7577  -0.7410  -0.7318  -0.7056
    -0.6809  -0.6647  -0.6376  -0.6037  -0.5901  -0.5808  -0.5501  -0.5434
    -0.5085  -0.4807  -0.4506  -0.4217  -0.3578  -0.2703  -0.2570  -0.1778
    -0.1503  -0.1380  -0.0985  -0.0785  -0.0609  -0.0379   0.0053   0.0198
     0.0696   0.0939   0.1301   0.1397   0.2105   0.2246   0.2596   0.2809
     0.3372   0.3790   0.3959   0.4167   0.4990   0.5584   0.5813   0.6220
     0.6426   0.6650   0.6925   0.7206   0.7502   0.7789   0.8005   0.8201
     0.8510   0.8661   0.8970   0.9392   0.9746   1.0046   1.0572   1.1553
     1.1942   1.2221   1.2793   1.3435   1.3671   1.4093   1.4434   1.4761
     1.5119   1.5819   1.5991   1.6428   1.6683   1.6832   1.7161   1.7351
     1.7782   1.8102   1.8211   1.8379   1.8539   1.8962   1.9139   1.9439
     1.9913   2.0293   2.0632   2.1469   2.1513   2.1698   2.1907   2.2073
     2.2506   2.3434   2.4464   2.5850   2.8588   2.9706   3.2287   3.2648
     3.3674   3.4307   3.5826   3.7257   3.9394   3.9821   4.0617   4.3254
     4.3860   4.4796   4.6792   4.7596   4.9108   5.0096   5.0304   5.2372
     5.2842   5.4545   5.5094   5.6838   5.7621   6.0461   6.3434   6.3680

          k = 0.4000-0.4619 0.0000 ( 88792 PWs)   bands (ev):

   -14.6701 -10.5148  -8.0947  -5.9130  -5.9066  -5.6710  -5.3267  -5.0709
    -4.9842  -4.4984  -4.3229  -4.0820  -3.9861  -3.9192  -3.8904  -3.7618
    -3.7436  -3.7263  -3.6863  -3.6554  -3.5906  -3.5590  -3.5436  -3.5285
    -3.4815  -3.4732  -3.4163  -3.3449  -3.3029  -3.2959  -3.2564  -3.2256
    -3.2071  -3.1683  -3.0926  -3.0538  -2.9954  -2.9287  -2.9074  -2.8785
    -2.8468  -2.7868  -2.7080  -2.6847  -2.6414  -2.5554  -2.5182  -2.4879
    -2.4648  -2.4307  -2.3979  -2.3243  -2.2818  -2.2496  -2.2074  -2.1662
    -2.1597  -2.0666  -2.0326  -2.0043  -1.9935  -1.9657  -1.9479  -1.9202
    -1.8703  -1.8482  -1.8236  -1.7927  -1.7792  -1.7640  -1.7321  -1.6810
    -1.6479  -1.6160  -1.5952  -1.5281  -1.4813  -1.4504  -1.4325  -1.3849
    -1.3730  -1.3234  -1.2949  -1.2745  -1.2464  -1.1902  -1.1776  -1.1631
    -1.1369  -1.0772  -1.0683  -1.0270  -1.0163  -0.9825  -0.9259  -0.9130
    -0.9047  -0.8164  -0.8090  -0.7980  -0.7647  -0.7393  -0.7238  -0.6952
    -0.6895  -0.6581  -0.6426  -0.5981  -0.5849  -0.5725  -0.5608  -0.5412
    -0.5165  -0.4866  -0.4338  -0.4177  -0.3833  -0.3511  -0.2855  -0.2399
    -0.1562  -0.1229  -0.1040  -0.0912  -0.0462  -0.0422   0.0124   0.0608
     0.0903   0.1356   0.1426   0.1925   0.2043   0.2196   0.2489   0.2895
     0.3180   0.3834   0.4403   0.4810   0.5310   0.5599   0.5835   0.6144
     0.6264   0.6471   0.6867   0.7272   0.7431   0.7731   0.7935   0.8321
     0.8372   0.8737   0.9235   0.9336   0.9796   0.9960   1.0600   1.1351
     1.1601   1.2229   1.2740   1.3452   1.3934   1.4114   1.4350   1.4849
     1.5169   1.5762   1.6039   1.6432   1.6782   1.6974   1.7220   1.7406
     1.7614   1.8019   1.8294   1.8636   1.8751   1.8863   1.9150   1.9409
     1.9824   2.0574   2.0611   2.1228   2.1476   2.1781   2.1953   2.2381
     2.2440   2.3107   2.4052   2.4567   2.7606   2.9912   3.1712   3.3670
     3.4485   3.5309   3.5915   3.6620   3.7509   3.9134   4.0456   4.3109
     4.4439   4.4808   4.5069   4.8896   4.9137   5.0344   5.0549   5.2099
     5.2455   5.4074   5.5063   5.6458   5.9952   6.0583   6.3236   6.3977

     the Fermi energy is     1.9752 ev

!    total energy              =  -27812.33342798 Ry

     total all-electron energy =  -1326872.391136 Ry
     estimated scf accuracy    <       0.00000035 Ry
     smearing contrib. (-TS)   =       0.00514255 Ry
     internal energy E=F+TS    =  -27812.33857053 Ry

     The total energy is F=E-TS. E is the sum of the following terms:
     one-electron contribution =  -27076.05953509 Ry
     hartree contribution      =   13841.58625222 Ry
     xc contribution           =    -905.09463024 Ry
     ewald contribution        =   11820.92051208 Ry
     one-center paw contrib.   =  -25493.69116950 Ry

     convergence has been achieved in  19 iterations

     negative rho (up, down):  1.332E-02 0.000E+00

     Forces acting on atoms (cartesian axes, Ry/au):

     atom    1 type  1   force =     0.00094129   -0.00018648   -0.00414726
     atom    2 type  1   force =    -0.00082762   -0.00191829   -0.00583135
     atom    3 type  1   force =     0.00021690    0.00012528   -0.00387985
     atom    4 type  1   force =    -0.00153023    0.00005062   -0.00420720
     atom    5 type  1   force =     0.00269723   -0.00124692   -0.00558692
     atom    6 type  1   force =     0.00028850    0.00019448   -0.00384221
     atom    7 type  1   force =    -0.00054371    0.00160568   -0.00428893
     atom    8 type  1   force =     0.00148331    0.00208979   -0.00590071
     atom    9 type  1   force =     0.00022406    0.00021143   -0.00544043
     atom   10 type  1   force =    -0.00068540   -0.00110420    0.00484352
     atom   11 type  1   force =     0.00382321    0.00519626    0.00669001
     atom   12 type  1   force =    -0.00447268    0.00170292    0.02019066
     atom   13 type  1   force =     0.00205322   -0.00193398   -0.00753907
     atom   14 type  1   force =    -0.00359047   -0.00695699    0.00578048
     atom   15 type  1   force =    -0.00166612   -0.00281054    0.00274867
     atom   16 type  1   force =    -0.00005761    0.00007072    0.00466316
     atom   17 type  1   force =    -0.00312815    0.00130065    0.00233797
     atom   18 type  1   force =     0.00066272    0.00136513    0.00303324
     atom   19 type  1   force =    -0.00011627    0.00070002    0.00001839
     atom   20 type  1   force =     0.00016939    0.00038868   -0.00020934
     atom   21 type  1   force =     0.00006638    0.00013775   -0.00027786
     atom   22 type  1   force =     0.00028618    0.00009323   -0.00030646
     atom   23 type  1   force =    -0.00028015   -0.00036133   -0.00016313
     atom   24 type  1   force =     0.00005005    0.00010471   -0.00005972
     atom   25 type  1   force =     0.00022589    0.00019018    0.00021707
     atom   26 type  1   force =     0.00044111   -0.00013111   -0.00032582
     atom   27 type  1   force =    -0.00013759    0.00022066   -0.00030004
     atom   28 type  1   force =     0.00008099   -0.00000144   -0.00026087
     atom   29 type  1   force =     0.00015518   -0.00053309   -0.00030782
     atom   30 type  1   force =     0.00014390    0.00009072    0.00028757
     atom   31 type  1   force =    -0.00047614    0.00013419   -0.00018649
     atom   32 type  1   force =     0.00031636    0.00042609    0.00016914
     atom   33 type  1   force =    -0.00016247   -0.00014681   -0.00036079
     atom   34 type  1   force =     0.00017291    0.00031851   -0.00025992
     atom   35 type  1   force =    -0.00014825    0.00042562   -0.00021205
     atom   36 type  1   force =     0.00015339    0.00019014    0.00056200
     atom   37 type  2   force =     0.00237683    0.00005182    0.00096364
     atom   38 type  2   force =     0.00465714   -0.00297531    0.00900819
     atom   39 type  2   force =     0.00165553    0.00015189    0.00110449
     atom   40 type  3   force =    -0.00551879    0.00276928   -0.00872398

     Total force =     0.015509     Total SCF correction =     0.000860

     negative rho (up, down):  1.332E-02 0.000E+00

     negative rho (up, down):  1.332E-02 0.000E+00

     negative rho (up, down):  1.332E-02 0.000E+00

     negative rho (up, down):  1.332E-02 0.000E+00

     negative rho (up, down):  1.332E-02 0.000E+00

     negative rho (up, down):  1.332E-02 0.000E+00

     negative rho (up, down):  1.332E-02 0.000E+00

     negative rho (up, down):  1.332E-02 0.000E+00

     negative rho (up, down):  1.332E-02 0.000E+00

     negative rho (up, down):  1.332E-02 0.000E+00

     negative rho (up, down):  1.332E-02 0.000E+00

     negative rho (up, down):  1.332E-02 0.000E+00

     negative rho (up, down):  1.332E-02 0.000E+00

     negative rho (up, down):  1.332E-02 0.000E+00

     negative rho (up, down):  1.332E-02 0.000E+00

     negative rho (up, down):  1.332E-02 0.000E+00

     negative rho (up, down):  1.332E-02 0.000E+00

     negative rho (up, down):  1.332E-02 0.000E+00

     negative rho (up, down):  1.332E-02 0.000E+00

     negative rho (up, down):  1.332E-02 0.000E+00

     negative rho (up, down):  1.332E-02 0.000E+00

     negative rho (up, down):  1.332E-02 0.000E+00

     negative rho (up, down):  1.332E-02 0.000E+00

     negative rho (up, down):  1.332E-02 0.000E+00

     negative rho (up, down):  1.332E-02 0.000E+00

     negative rho (up, down):  1.332E-02 0.000E+00

     negative rho (up, down):  1.332E-02 0.000E+00

     negative rho (up, down):  1.332E-02 0.000E+00

     negative rho (up, down):  1.332E-02 0.000E+00

     negative rho (up, down):  1.332E-02 0.000E+00

     negative rho (up, down):  1.332E-02 0.000E+00

     negative rho (up, down):  1.332E-02 0.000E+00

     negative rho (up, down):  1.332E-02 0.000E+00

     negative rho (up, down):  1.332E-02 0.000E+00
 BEEFens 2000 ensemble energies
             -0.605375692867395E+02
             -0.362108350958152E+01
             -0.158215054710566E+02
              0.428661225524395E+02
             -0.220623953520656E+02
             -0.205058150238676E+02
             -0.351196175770901E+02
             -0.863205340778759E+02
             -0.464653586000685E+02
             -0.472494901223577E+02
             -0.368655026765186E+02
              0.222089664515053E+01
              0.406253570809764E+01
              0.763911526686147E+01
              0.265822487643322E+01
              0.474109293545050E+02
             -0.208661540089494E+02
             -0.230531644271026E+02
              0.192625213583582E+02
             -0.112166193786100E+03
              0.535332304969280E+02
             -0.289634795646512E+02
             -0.335031108453887E+01
             -0.113936202002660E+02
             -0.887483250107823E+01
             -0.467898427323095E+01
              0.881154724017122E+02
             -0.186274883164320E+02
             -0.901165659085086E+01
             -0.517450097859115E+02
              0.814861831448025E+02
             -0.187597037422552E+02
             -0.374513612824962E+02
              0.249194379188454E+02
             -0.283951863396851E+01
              0.163363942880981E+02
             -0.486885158862765E+01
              0.108158403161412E+02
              0.287084868356088E+02
             -0.103132511128073E+03
              0.557217763223047E+02
              0.142033185907982E+02
             -0.166440006231545E+01
             -0.361169858712984E+02
              0.122970241216979E+02
             -0.146053765865474E+02
              0.397653165305111E+02
              0.364259472304028E+02
             -0.308003664601429E+02
             -0.274746172147520E+02
             -0.327878880398838E+02
             -0.351205497800316E+02
              0.135249171015716E+02
             -0.490144940685165E+02
              0.115144313893494E+02
              0.621646399735502E+02
              0.633729810006144E+02
              0.355066064803030E+02
              0.153981821909625E+02
              0.269555833140877E+02
              0.889534991808600E+02
              0.212845071789625E+02
             -0.547644970015016E+02
             -0.156901043357914E+02
             -0.235270015696894E+02
              0.628942066505946E+02
             -0.772285985663870E+02
             -0.670489520007561E+02
             -0.258318573964327E+02
             -0.635021248077703E+01
             -0.470669259033927E+02
              0.270106984106520E+02
              0.798943944515577E+01
              0.865722086102511E+01
             -0.396181184973287E+02
             -0.346288816429647E+02
             -0.540699985759885E+02
              0.390275170542286E+02
             -0.295258710442521E+02
              0.264112662331930E+02
             -0.709984637491628E+01
             -0.317665433467207E+02
             -0.575855124927087E+02
             -0.176671760634664E+02
             -0.904805591566662E+01
             -0.124899608132126E+02
              0.411235154314062E+02
              0.680721640750431E+02
             -0.384660630225881E+02
             -0.793412127435089E+02
             -0.219172722666370E+02
              0.111328561462512E+03
             -0.591043840247898E+02
              0.355672455999475E+02
             -0.955447403629705E+01
             -0.662204184950816E+02
              0.253829017283458E+02
              0.397719612710552E+02
             -0.198501135544483E+02
              0.399673515960333E+02
             -0.295680316131841E+02
             -0.476715926719358E+02
              0.863913722473658E+02
              0.453470139089063E+02
              0.336154473541552E+02
              0.146373637863682E+02
              0.205071586378471E+02
              0.854975924222466E+02
             -0.255994328484958E+02
              0.785588616837168E+01
             -0.142158136887983E+03
              0.181118826427402E+02
             -0.715135331086441E+02
              0.150547781996263E+02
              0.204167601876348E+02
             -0.331980722984010E+02
             -0.556375861975681E+02
              0.656246976220996E+01
             -0.303417733159367E+02
              0.307268305425423E+02
             -0.528929743171712E+02
              0.173112107989436E+01
             -0.356243710264531E+02
             -0.424058631268184E+01
             -0.108584811649752E+01
              0.180256407963542E+02
              0.144363401424835E+01
             -0.650746227695151E+01
              0.588726550371612E+02
              0.906430526978044E+02
              0.483191987112187E+02
              0.829491922934751E+02
             -0.114712242961381E+02
              0.143379378529452E+02
              0.540092215682097E+02
             -0.111332236524765E+02
             -0.734070419807326E+02
             -0.382825664749630E+02
             -0.520620354895875E+02
             -0.276080585941641E+02
              0.326541417680094E+02
             -0.116562199359645E+03
             -0.187074352958942E+02
              0.413267948538020E+02
             -0.385455398417999E+02
             -0.365217155126841E+02
              0.542571252811372E+02
              0.399931362366232E+02
             -0.353321540483084E+02
              0.136578740734528E+02
             -0.272455002049669E+02
              0.342482481363328E+02
              0.446055723737612E+01
              0.211003577286454E+02
             -0.883150650678981E+02
             -0.479214871534673E+02
             -0.990069928249602E+01
              0.325915937233603E+01
             -0.365792485001034E+02
              0.105803616448440E+03
             -0.230780666992318E+02
             -0.397850242660617E+02
              0.388398225186659E+02
             -0.493626102634334E+02
             -0.362369091090561E+02
              0.323963299649572E+02
              0.124163645607708E+02
              0.163826864944086E+02
              0.115986503252117E+02
             -0.132627845037146E+02
              0.224994951156443E+02
              0.589065954299354E+02
             -0.311288189576619E+02
              0.162078170408864E+02
              0.932526703433287E+02
              0.340095446352478E+02
             -0.728879000024585E+01
             -0.188189348528195E+02
              0.153047686176952E+03
             -0.163563688845206E+02
              0.362265490396496E+02
              0.193739949242819E+02
              0.361407505535050E+02
              0.890480151442583E+02
              0.542203238685585E+02
             -0.241176117300419E+01
              0.227150765213104E+02
              0.483999959473297E+02
              0.363037011830920E+02
             -0.524253869651095E+02
              0.934035890131922E+02
             -0.823773985314839E+02
             -0.198225470691616E+02
              0.581890552978586E+02
              0.668106981496680E+01
              0.790309288333003E+01
              0.340575908299669E+02
              0.298797489176415E+02
              0.353117290396897E+02
             -0.636649971544497E+02
              0.289047695644217E+01
             -0.297068658592798E+02
             -0.873599850807925E+01
             -0.145837696344631E+01
             -0.719799416736442E+01
             -0.413213367436595E+01
              0.857467683860926E+02
             -0.100910126083956E+02
             -0.275898643404261E+02
             -0.495497610465354E+01
              0.139597635728155E+02
             -0.562966491742726E+02
             -0.405692748424703E+02
             -0.381405799357353E+02
             -0.629245448169597E+02
             -0.169538002242402E+02
             -0.446750153766028E+02
              0.163242501549605E+02
             -0.242074246504680E+01
             -0.104023809000271E+02
             -0.933577910550338E+01
              0.806695300683003E+01
             -0.242838279369355E+02
              0.687809614246682E+02
             -0.805244839108357E+02
             -0.140850186689777E+02
             -0.173821348855812E+02
              0.181454246670718E+02
              0.213663676615124E+02
             -0.462932894691598E+02
             -0.202150772782287E+02
              0.439819023624549E+02
             -0.275610977855598E+02
              0.186557599650004E+02
              0.382123024239642E+02
             -0.323955769752547E+01
              0.113958346152040E+03
             -0.230406749026766E+02
             -0.340559664264858E+02
              0.579832657904342E+01
             -0.227555918823070E+02
              0.526656713436886E+02
             -0.335944498417486E+02
              0.106103793252870E+02
              0.640122622693869E+02
             -0.125948741888743E+02
              0.120016636777732E+03
              0.125633905714345E+03
             -0.648485158987587E+02
              0.589483586626663E+02
              0.165862246035686E+02
             -0.516586189824260E+02
              0.216002342289001E+02
              0.352763177980187E+02
              0.361612085095933E+02
              0.135090806540757E+01
              0.158900076376357E+02
              0.693825082065755E+02
             -0.246448954666020E+02
              0.180870619249400E+02
              0.737869265241164E+02
             -0.371839911095437E+02
             -0.128849280566869E+02
              0.507242150362723E+02
              0.296677988455586E+02
              0.779289654448739E+02
              0.221691627269241E+02
              0.619519577728749E+01
              0.279949185678947E+02
              0.382269151637725E+02
             -0.470149100914649E+02
              0.327607927350817E+01
              0.128787122230913E+02
              0.113595482555088E+02
              0.219837394702301E+02
             -0.573374829285488E+02
              0.365746444418136E+02
             -0.443229258901223E+02
             -0.346663691973745E+02
              0.177287120051735E+02
             -0.181204614930729E+02
              0.553902068884904E+02
             -0.256466436915145E+02
              0.266312833746843E+02
              0.367835247015241E+02
              0.827825277321344E+02
              0.573538703189038E+02
              0.460439891485416E+02
             -0.106083354126749E+02
             -0.389119855939884E+01
             -0.331199574130679E+02
              0.748884105227727E+02
              0.795622210267501E+02
              0.361186133852229E+02
             -0.191334716129066E+02
              0.511076286214440E+02
             -0.162915279011772E+02
              0.214713436702849E+02
              0.612897978819955E+02
              0.216241654980502E+01
             -0.103953055154044E+02
             -0.282857727037079E+02
             -0.509977460056828E+02
              0.943667509945061E+02
              0.438267283102513E+02
             -0.557798711782710E+02
             -0.960593272555064E+01
              0.249561954309234E+02
             -0.995011890120512E+01
              0.590888643216473E+02
              0.152087962615948E+02
              0.797827575053011E+02
              0.278654201716914E+02
             -0.264170733789398E+02
              0.249204261047854E+02
             -0.501228102395635E+01
             -0.323551143732884E+02
              0.133165833682519E+02
              0.205800994755981E+02
              0.930762647139286E+02
              0.795931324938274E+02
              0.549597659924535E+02
              0.729778948040275E+02
              0.796956269362971E+01
             -0.273321760246934E+02
              0.162951392614884E+02
             -0.367384662227590E+02
             -0.474990700322554E+02
             -0.562764870471258E+02
             -0.265909299311907E+02
             -0.109480756640547E+03
             -0.290578711213887E+02
             -0.835461838684479E+02
              0.209593790165900E+02
             -0.476030137986421E+02
              0.395626037493706E+02
             -0.939105065722007E+02
             -0.329627371734978E+02
              0.548182789906605E+02
              0.207508028708511E+02
             -0.828915151654170E+02
              0.630468914074266E+02
             -0.256106781671475E+02
              0.511314238501351E+02
             -0.242448180225700E+02
             -0.749920526129433E+02
              0.111669265577631E+02
             -0.610066767568765E+02
             -0.168222327516116E+02
             -0.144545118508340E+01
              0.417650227857705E+02
              0.126764244851833E+03
             -0.461063273337333E+02
             -0.362220456942429E+02
             -0.947109920056903E+00
             -0.130060208318613E+02
             -0.821225481833923E+02
             -0.595621460256830E+02
              0.516514131550250E+02
             -0.288628087345829E+02
              0.168762808455072E+02
             -0.488489631412285E+02
             -0.131496058926277E+02
             -0.436496256827922E+02
              0.564689588927158E+02
              0.151344942185403E+02
             -0.231161918681158E+02
             -0.126262001605312E+02
              0.664081357126548E+01
             -0.617355387812768E+01
              0.440905621873227E+02
             -0.251520384200409E+02
              0.269062417381622E+01
              0.338472293379270E+02
              0.171351285122059E+02
             -0.158955147488730E+02
              0.155996006744103E+03
              0.536387338424093E+02
              0.116112863052243E+01
              0.161709797276222E+02
             -0.613331711664214E+02
              0.314450136939705E+02
             -0.720387632918701E+02
             -0.251552308870502E+02
             -0.521498379385467E+02
             -0.219603313376082E+02
              0.568054947023762E+02
             -0.535921755237065E+02
              0.160152423593711E+02
             -0.406208179888540E+01
              0.388745048353218E+01
             -0.433221598028185E+02
             -0.477713182204792E+02
             -0.394567652249066E+01
             -0.424804486609307E+02
             -0.217102451654400E+02
             -0.437511005630841E+02
             -0.119299018248522E+02
             -0.358302934544708E+02
             -0.515670106025766E+02
              0.212389592812248E+02
             -0.209170334425922E+02
              0.187312561298572E+02
              0.973556092742552E+01
             -0.736521591701957E+02
             -0.547369378288876E+02
             -0.396889303500742E+02
              0.353713503729466E+02
              0.271466585335892E+01
             -0.625601010873912E+02
              0.584454466701847E+02
             -0.400332332508690E+02
              0.543593106936671E+02
             -0.288761540623282E+02
             -0.445201045450654E+02
              0.298343738565394E+02
             -0.656492031071752E+02
             -0.379273234212517E+02
              0.671489875684441E+02
              0.203431402712170E+02
             -0.358856182357752E+02
              0.488046652490466E+02
             -0.173584814845196E+02
             -0.322003919887994E+02
             -0.301150917776715E+02
             -0.499616357258076E+02
              0.248700316100548E+02
             -0.931322435453594E+02
             -0.838822980173349E+02
             -0.733395180615389E+01
             -0.306440823075894E+02
             -0.574162578347386E+02
              0.720432553016882E+02
              0.131271129460241E+03
             -0.360673588501596E+02
             -0.255110742581644E+01
             -0.635819813961596E+02
              0.649603396667992E+02
              0.170168651613615E+02
             -0.180755240817691E+02
             -0.409420935761659E+02
              0.148545947851787E+02
             -0.585264990728749E+02
             -0.197436830803988E+02
             -0.903193821780008E+02
              0.336224156041580E+02
              0.168808733369815E+02
              0.185478434546712E+01
             -0.701094794538960E+01
             -0.328289924681944E+02
             -0.754419961356882E+01
              0.125227130467949E+03
             -0.199032664332450E+02
             -0.436175085656825E+02
             -0.682605147569579E+02
              0.108903034148365E+02
             -0.341236129369667E+02
              0.587426243280868E+01
              0.260841982071113E+02
              0.101862326454648E+02
              0.277041815543530E+02
              0.119326678189442E+02
              0.628564734730563E+02
              0.316700815561140E+02
             -0.325789642624904E+02
              0.354488873811088E+02
              0.378855680222075E+02
              0.120712304462778E+02
              0.485970522976874E+02
             -0.223981761886854E+02
              0.764297660347412E+02
              0.171742257982123E+02
             -0.271575004635594E+02
             -0.719424514381432E+01
             -0.186051805841885E+02
              0.261782373941737E+02
             -0.234602672779259E+02
             -0.791731721200222E-01
             -0.845030490068189E+01
              0.808675845529691E+02
              0.498914500190174E+02
             -0.686265815713316E+02
             -0.471089090505922E+01
             -0.554650384558543E+02
             -0.159642204800157E+02
             -0.267552522331790E+02
              0.372756943041065E+01
              0.569853707408042E+00
             -0.256727362025621E+02
              0.810393678661825E+01
             -0.601193205549471E+01
             -0.128388667961440E+02
              0.857603293624877E+02
              0.181754978399258E+02
             -0.805351850706710E+02
             -0.457675030549616E+02
              0.942918586889773E+02
              0.277265888300818E+02
             -0.106660545615173E+02
              0.104346373070018E+03
             -0.194960722379523E+02
             -0.123032161700950E+02
             -0.534776205305934E+01
              0.106982847887369E+02
              0.271601622476443E+02
              0.778508324821172E+01
              0.304781216721008E+02
             -0.188028641502813E+02
             -0.302603911860701E+02
             -0.417008533413080E+02
             -0.475869011760776E+02
              0.463254574724688E+02
              0.126653524733026E+02
              0.386718296208831E+02
              0.133055983271580E+02
              0.853949905872271E+02
              0.156099193775550E+02
             -0.844611471313974E+02
             -0.333780030492132E+02
              0.133832972360504E+02
             -0.302212518525109E+02
              0.625185394979609E+02
             -0.883864587410881E+01
              0.148721685541108E+02
              0.496095240364899E+02
             -0.705916330296250E+02
              0.149460300860664E+03
              0.208175073351989E+02
              0.270905016381168E+02
              0.346768879473610E+02
              0.103427828496621E+02
             -0.159508827636245E+01
              0.357945912994965E+02
             -0.356101070665115E+02
              0.771559899454026E+02
              0.683253727115347E+02
             -0.405103793725005E+02
              0.148892002437802E+02
              0.668885651294538E+02
             -0.223661066440644E+02
              0.153892834651522E+02
              0.434699452944291E+02
              0.421741441517000E+02
             -0.783245059886151E+02
             -0.152612890697843E+02
             -0.355847987506555E+02
             -0.146149024932311E+01
             -0.760037154840884E+01
             -0.549030163193629E+01
             -0.180764960716054E+02
             -0.292779820231549E+02
              0.627702648819321E+01
              0.111784396499583E+02
              0.534553753135933E+02
             -0.389273114398552E+02
              0.373163810307713E+02
              0.437349033707458E+02
             -0.186711982744498E+02
              0.871109161520230E+02
             -0.696682605696108E+02
             -0.103001590276844E+03
             -0.657796683860143E+01
             -0.268012464850244E+01
              0.386451341033967E+01
              0.787909246632229E+02
             -0.107140497844603E+02
              0.415833692164100E+02
              0.442152516609847E+02
              0.384801501518508E+02
             -0.993169358646594E+01
              0.626837180936161E+02
             -0.133526083503276E+02
             -0.306514017449059E+02
             -0.478729085329646E+02
              0.584336110300220E+01
              0.369088143475990E+02
             -0.603293835031167E+01
              0.392621772349301E+02
             -0.179233301514853E+01
              0.654501371819387E+02
              0.187500460590610E+02
              0.998043697116310E+01
             -0.121632819991488E+02
              0.331734569290536E+02
              0.362223596201724E+02
              0.232620689913310E+02
             -0.512103966558925E+00
             -0.549321408409956E+02
              0.260393245506762E+02
              0.174899169742212E+02
              0.402015328178471E+02
              0.271905906350730E+02
              0.371894320633883E+02
             -0.604776245021802E+01
              0.250060581631115E+02
             -0.297954625563316E+02
             -0.194798447092558E+01
             -0.568287136103245E+02
             -0.307685700078324E+02
              0.377948790225892E+02
             -0.933909993839061E+02
              0.294192441300897E+02
              0.183565689744540E+02
              0.838435864074538E+02
             -0.300654119649604E+02
              0.328522076855487E+02
             -0.137733408107063E+02
             -0.463266151037813E+02
             -0.760769119005198E+02
             -0.521818911923080E+01
             -0.858084417469519E+02
              0.199820037490983E+02
             -0.246933622698907E+02
              0.305205575876844E+02
              0.236219935136493E+02
             -0.240292735270717E+02
             -0.264286546103453E+02
              0.390318768919796E+02
             -0.586815460435831E+02
             -0.116241656909640E+02
             -0.195887105465801E+02
              0.211819038748486E+02
             -0.895138276563011E+01
              0.364791351625229E+01
             -0.200504276343662E+02
              0.557987480644545E+02
             -0.437962846076425E+02
              0.786096527812163E+01
              0.583993216738566E+02
             -0.322541337387325E+02
              0.357750003738710E+01
             -0.883770357620631E+01
             -0.668476247499566E+02
             -0.482286281248333E+02
             -0.863022580967596E+01
              0.240163103688866E+02
              0.301731714676665E+02
              0.855166064739507E+01
             -0.415109745862333E+01
              0.151928292427207E+02
             -0.439406829268903E+02
              0.336921692717976E+01
             -0.529840624756696E+02
             -0.324209171473025E+02
              0.473859401814278E+02
             -0.294629507279950E+02
              0.620967904594106E+02
             -0.213837738585059E+02
              0.353316225667314E+02
              0.241210918071619E+02
             -0.642947394584002E+02
             -0.280199775148540E+02
              0.931083978935851E+01
             -0.370921121673831E+02
             -0.338918314106917E+02
             -0.828617332796928E+02
             -0.538393470487765E+02
             -0.509687808491301E+02
             -0.414789206522302E+02
             -0.971692738794530E+00
              0.991758779289910E+01
              0.983853876067030E+00
              0.152707660923506E+02
             -0.548380506365176E+02
              0.141373828889488E+02
              0.255427222999497E+02
             -0.665490328382200E+02
             -0.700914531497889E+02
             -0.430420482217814E+02
             -0.171178730510231E+02
              0.178491878557165E+02
              0.455887829951632E+01
             -0.425557306633324E+02
              0.366033519982103E+02
             -0.215526851008819E+02
              0.516517071282893E+02
             -0.885728734310168E+02
              0.596417121197939E+02
             -0.208749259402543E+01
             -0.367284447248753E+02
             -0.216338484881321E+02
              0.472497022291914E+01
              0.373893823314469E+02
             -0.754925618664868E+02
             -0.120786149137809E+02
             -0.216249433072524E+02
              0.510387873502554E+02
              0.863202087194366E+02
             -0.963254064870919E+02
              0.942519748709545E+02
              0.467366451707781E+02
             -0.724188470574340E+02
             -0.366064634804859E+02
              0.750280292208365E+02
              0.631041837728646E+02
             -0.180202876693348E+02
             -0.461879260693013E+01
              0.726977826638007E+01
              0.647599549454428E+02
             -0.507260465247085E+02
              0.158308664820604E+02
             -0.472249147344704E+01
              0.347365734607898E+02
             -0.745692567066168E+02
             -0.648664564713644E+01
             -0.350698719184404E+02
              0.459749746946706E+02
              0.468143287726129E+02
             -0.860246468597918E+02
             -0.486376531503400E+02
             -0.255865627549140E+02
             -0.338454581180530E+02
             -0.109319403983752E+02
             -0.242652649575250E+02
              0.426424804804659E+02
              0.400547463681995E+02
             -0.566515455808951E+01
             -0.415507191095958E+02
             -0.848676085980342E+02
              0.442043497560683E+02
             -0.522577470459179E+02
             -0.312100155169427E+02
              0.546047321505772E+01
             -0.321800440477294E+02
             -0.397425539060094E+02
             -0.239351171235388E+02
             -0.384084866601871E+02
             -0.270661291703624E+02
             -0.481702574550739E+02
              0.563160730269881E+02
              0.637211254624794E+02
             -0.169353611528095E+01
             -0.260899010411869E+02
             -0.624092095731135E+01
              0.440142703689555E+02
             -0.866418925660004E+02
             -0.145994789729688E+02
              0.523004040862328E+02
              0.662019612921166E+02
             -0.244164513953272E+02
              0.912986120045252E+01
              0.522222660984933E+02
              0.197636625697415E+02
             -0.833468422681324E+01
             -0.452312978089408E+02
              0.279962728658977E+02
             -0.351933872868032E+02
             -0.164676428827341E+02
             -0.152702697691863E+02
             -0.200002504713411E+02
              0.194409294634860E+02
              0.798608413295035E+02
              0.187965181633490E+01
              0.535468197443407E+01
             -0.885617508277701E+02
             -0.175156804776130E+02
[...]
              0.282899449102707E+02
              0.141585503511736E+03
              0.241417758514649E+02
              0.122222815537024E+02
             -0.463900879316303E+02
             -0.637065297913601E+02
             -0.188499248045883E+02
              0.328561728089330E+02
             -0.425317596411514E+01
              0.189071138637862E+02
              0.335567286822046E+02
             -0.585839426750707E+02
              0.221772682332461E+02
              0.581945054076784E+02
              0.552270801425901E+02
             -0.419873568112712E+01
             -0.139520609485976E+01
             -0.991426976936896E+01
             -0.481593695038331E+02
             -0.673612335193009E+02
              0.784415620423920E+02
             -0.522258688991872E+01
             -0.586963524799052E+02
              0.169060322408220E+01
             -0.204582991879627E+02
              0.936648252504133E+02
             -0.216113307249122E+02
             -0.352846897672526E+02
              0.334099369275068E+02
             -0.145271309537342E+02
              0.388729597423516E+02
             -0.242367249723191E+01
              0.100927592715705E+03
              0.488573109239895E+02
             -0.513758073070267E+01
             -0.321297992710900E+02
              0.231521331295464E+02
             -0.527567670298239E+02
             -0.128041333182118E+02
              0.584495507146098E+02
             -0.287159593331128E+02
             -0.437796942918869E+02
             -0.222801146446471E+02
              0.517908151852004E+02
              0.124852696904680E+02
             -0.847190603608705E+02
              0.302967047795288E+02
              0.151946236355020E+02
              0.572396626030002E+01
             -0.512503188379856E+02
             -0.379337290231490E+01
              0.322713996079818E+02
              0.511993760085395E+02
              0.631091261253233E+02
              0.228197028006408E+02
              0.792149725135573E+00
             -0.496686638843058E+02
             -0.508940041369708E+02
             -0.746886536183161E+02
             -0.610585369607350E+01
              0.308132035545728E+02
             -0.375724223147395E+01
              0.546011825724024E+02
             -0.317288056577089E+02
              0.166628037569208E+02
             -0.101822724011512E+02
             -0.288740662105614E+02
              0.584174513472689E+02
              0.791593559175624E+01
              0.602771001210122E+02
              0.504103077410161E+01
              0.264777046101790E+02
             -0.192442766004629E+02
              0.585106909308807E+02
             -0.110628875769638E+02
             -0.154944744712914E+00
             -0.788527999745790E+02
             -0.128216353954742E+02
              0.717704542676745E+02
              0.672059972467691E+02
              0.251312516013087E+02
             -0.130146927288883E+02
              0.340506869967828E+01
             -0.172896571534410E+02
             -0.199069702187921E+01
              0.905728931763714E+02
              0.122733380360023E+01
             -0.189872781996978E+02
             -0.110565080796622E+03
             -0.552161335883381E+02
             -0.374021241852571E+02
             -0.657592208312078E+02
             -0.554148237299760E+02
             -0.681221525352756E+02
             -0.446140111551537E+02
             -0.410520745633509E+02
             -0.450954791184370E+02
              0.482439661154024E+02
             -0.294075495257972E+02
             -0.994309375297619E+02
              0.417781866676831E+02
             -0.259266787270388E+02
             -0.789555506831668E+02
              0.941881162700078E+02
             -0.219201993399413E+02
              0.227913814837333E+02
              0.454240085837633E+02
             -0.141777514741432E+01
              0.253746274867023E+02
              0.467284320813445E+01
              0.416953447530570E+00
             -0.150000060118503E+02
             -0.713804852314421E+02
              0.132692087012578E+02
             -0.129165082902516E+03
              0.622295655918685E+02
             -0.439741351835682E+02
             -0.162540389188402E+02
             -0.158002279795948E+02
              0.707195818354041E+01
             -0.227413897431971E+02
              0.296713014227154E+02
             -0.519452933031082E+02
              0.366516277929063E+02
              0.369506357277923E+02
              0.168683434716405E+02
              0.999813031000480E+01
              0.197322284077985E+02
              0.618266459204824E+01
              0.309935131703424E+02
             -0.796930614794584E+01
             -0.590236876648478E+02
              0.755806229880631E+01
             -0.151997622808186E+02
             -0.190774241702968E+01
              0.504567143258454E+02
             -0.825141327213021E+02
             -0.152780371667677E+01
              0.561555527043026E+00
              0.992639954536833E+01
              0.318037661075077E+02
             -0.123450177863225E+02
              0.834352439547461E+02
              0.487223758050515E+02
             -0.182993874474070E+02
             -0.958398226831616E+01
              0.102914294462173E+01
              0.768167338823097E+02
             -0.585480531264117E+02
             -0.105552627350588E+03
              0.308341932139613E+02
             -0.162601988567837E+02
             -0.138667609250768E+02
              0.130436346663436E+02
              0.767085646206714E+02
              0.463283549050940E+02
             -0.153285786400793E+02
             -0.501859070875899E+02
             -0.545960892398730E+01
              0.305869085305391E+02
             -0.111048213579494E+02
             -0.754106455981962E+02
             -0.266817179092934E+01
             -0.887890117746653E+02
             -0.474564178791575E+02
              0.766573182670514E+02
             -0.482366442219576E+02
             -0.634875470972928E+02
             -0.513106605287996E+02
             -0.348849424593209E+02
              0.339682168212552E+02
              0.819594275578613E+02
             -0.351746579391238E+01
              0.276147858232069E+02
             -0.183048832188170E+02
             -0.692598196472705E+02
              0.463880621946930E+02
             -0.443822751428025E+02
              0.321334212181303E+02
              0.375755495950163E+02
             -0.649708981310670E+01
              0.390118231350122E+02
              0.437661034169643E+02
              0.100393551609748E+03
             -0.156036231586260E+02
             -0.454608354842614E+02
             -0.611648013494686E+02
             -0.123681960519400E+02
             -0.231601251002790E+02
              0.102834196179864E+03
             -0.447795710459905E+02
              0.105011382643406E+02
              0.973517687844657E+01
             -0.264360748698113E+02
             -0.796545343682176E+02
             -0.696211484362641E+01
              0.977591272702888E+02
              0.931399673660817E+01
              0.807277355079395E+01
             -0.525526961069652E+02
             -0.604524347749827E+02
             -0.559720464300098E+01
              0.499704272753503E+02
             -0.221176898765325E+02
              0.107773998364260E+03
             -0.433904016538259E+02
              0.145933464920508E+02
             -0.224287937065375E+02
             -0.717110920960052E+02
              0.167652589362473E+01
             -0.500517381282618E+02
             -0.759086187838057E+02
              0.611434160984351E+01
              0.238893475997381E+01
              0.513031351227910E+02
              0.186640026879434E+02
             -0.322765113296044E+02
              0.229575876826131E+02
             -0.808633031718919E+02
             -0.521096790067176E+02
              0.899803707084929E+02
              0.142619383663195E+02
             -0.188118617286138E+02
             -0.351847495841223E+02
             -0.268667223807847E+01
             -0.584597797593665E+01
              0.827457741363008E+02
              0.416498161111624E+02
             -0.166149843510648E+02
             -0.122072102694455E+02
             -0.426735438300715E+02
             -0.200528134116601E+02
             -0.668932020282595E+02
              0.458361804804178E+02
              0.544329031731368E+01
              0.144872417693147E+02
              0.155495709172857E+02
             -0.543854377865898E+00
             -0.167830192824802E+02
             -0.313678895834748E+01
             -0.100194188394241E+03
             -0.229506926941784E+02
             -0.760334926349884E+01
             -0.947375165272391E+01
              0.545997956928449E+02
              0.622231853606241E+02
              0.164466739885806E+02
             -0.968561348602894E+02
              0.646469105790449E+02
             -0.214571180818187E+02
             -0.376322123371675E+02
             -0.862382338931029E+02
             -0.386351343255717E+02
              0.562847265277763E+02
              0.243050862437847E+02
              0.507543780243583E+01
              0.291398628275081E+02
             -0.563736126384622E+02
             -0.421120748308796E+02
              0.513897711879662E+02
              0.386393686132902E+02
              0.518130916013288E+02
             -0.128118236221212E+01
              0.680957829677021E+01
              0.568328585494691E+02
              0.960624727507540E+02
             -0.300021273263817E+02
              0.321866668136297E+02
             -0.117317848546641E+02
             -0.411038658686201E+02
             -0.313410811533578E+02
             -0.299151846200676E+02
             -0.131150247557427E+02
             -0.522556753385211E+02
             -0.217058218239023E+02
             -0.140884724285832E+03
              0.367929586495661E+02
              0.206196642011751E+02
             -0.392035107325674E+01
             -0.379409141352987E+02
             -0.203985497975758E+02
             -0.525641684838681E+02
              0.150804733864661E+02
              0.818337627557875E+02
             -0.251645460699583E+02
             -0.162568474999873E+02
              0.237660001507455E+02
             -0.487924243255884E+02
              0.878605836669770E+02
              0.154150296123312E+02
              0.226249714554549E+02
              0.489532599117724E+02
              0.324963276989087E+01
              0.541087736496504E+02
              0.142606986292275E+02
             -0.106583693098587E+02
              0.732072317045836E+01
              0.862064087346823E+00
              0.726076925540976E+02
              0.100597625187443E+02
              0.119887591782511E+02
             -0.129519596558775E+02
              0.131827885048549E+02
             -0.909194482083309E+02
             -0.325203487103640E+02
             -0.456328699851823E+02
              0.484547836101111E+02
             -0.290351426143876E+02
             -0.657386851020999E+02
              0.537217850605599E+02
             -0.121733182191873E+02
              0.439295024339202E+02
             -0.896803795320989E+02
              0.231845246960934E+02
              0.858320224331584E+01
              0.582199727997408E+01
             -0.829598275249111E+01
             -0.900750790217342E+01
              0.478059928074541E+02
              0.197790502440233E+01
             -0.473846596692603E+02
             -0.175409459622512E+02
              0.276389478336149E+02
             -0.117658363893672E+03
             -0.928047806844347E+02
              0.396857332746725E+01
              0.117125853029556E+02
             -0.411829907146822E+02
             -0.387889143238255E+01
              0.111906718823315E+03
              0.306337288074628E+02
             -0.570457235894299E+02
              0.924210698776398E+01
             -0.962388607531838E+01
              0.104994415423633E+02
             -0.336660535930865E+02
              0.194635985099990E+02
              0.284143046804327E+02
             -0.301941446074210E+01
              0.107942734116882E+03
             -0.140120013227748E+02
             -0.315237814131420E+02
              0.142186599104609E+02
              0.465426845357720E+02
             -0.355112168654540E+02
             -0.318514831226031E+01
              0.962463436180229E+02
             -0.463561246986183E+01
              0.620400989735973E+02
              0.134986447975205E+02
             -0.904766870250448E+01
             -0.305117015586542E+02
              0.565881396477320E+02
             -0.512998706752004E+02
             -0.219630418311755E+01
             -0.169462241019339E+02
             -0.404366885846590E+02
              0.184403096329040E+02
              0.238389735135632E+02
              0.116078543231122E+02
              0.720502666769789E+00
             -0.383678854384694E+02
              0.215378087812394E+02
             -0.672965238446562E+01
             -0.246379601195998E+02
             -0.210259347096157E+02
              0.203309828441151E+02
             -0.594124522368315E+01
             -0.348364977576027E+02
             -0.106348204873266E+03
              0.102695027170509E+02
              0.248560446170987E+02
             -0.386240090102534E+02
             -0.210456840295585E+02
              0.805120531571516E+02
              0.645984398527472E+01
              0.309882496044596E+02
              0.388272184335543E+01
              0.321165416299518E+02
              0.643275456451499E+01
             -0.372311237777602E+02
             -0.225272699345300E+01
              0.875900604683761E+01
              0.272989015075063E+02
              0.780582773628933E+02
              0.506363143309516E+02
              0.158207515888591E+00
              0.168498704862293E+02
              0.611802709954025E+02
              0.235331915289441E+02
             -0.751553595614944E+02
             -0.272902048676667E+02
              0.150719733428365E+02
              0.561236812746967E+01
              0.254763771377987E+02
             -0.546678214196110E+02
              0.901042137409186E+01
              0.384722091910902E+02
              0.497020693794209E+02
             -0.434271853871087E+02
             -0.693839646722512E+01
             -0.207561062988822E+01
             -0.133337249715372E+02
             -0.365357377812968E+02
             -0.215109323403399E+02
             -0.196024636734649E+01
              0.788306692851199E+01
              0.420310538125835E+02
             -0.307800161797075E+02
              0.824308853018231E+02
              0.326966172579498E+02
              0.219022624745083E+02
              0.331883087103689E+02
              0.322800065806452E+02
              0.344960481316414E+02
              0.536103988393982E+02
             -0.432788814624515E+02
              0.618161447076503E+02
             -0.111981163560821E+03
              0.306819803473407E+02
             -0.106316495613259E+03
              0.853099684963225E+02
              0.688936602150901E+02
             -0.109819554312385E+02
             -0.492297139322699E+02
             -0.428412841239824E+02
             -0.622305741815999E+02
             -0.627258895892899E+02
              0.550415965253829E+02
              0.404832245830457E+02
              0.236462121959169E+02
              0.373425927497926E+02
              0.402069988458308E+02
             -0.381232971785141E+02
             -0.197671544565872E+02
              0.585256557078253E+02
             -0.115648459910719E+02
              0.550489640839662E+02
              0.697832732742516E+02
             -0.552422336388457E+01
             -0.704634123457537E+02
             -0.945539160449130E+00
             -0.245111792686847E+01
             -0.881079817772650E+01
             -0.178266932828785E+01
             -0.651730440662097E+02
             -0.211004446472062E+02
              0.534121073316835E+01
              0.891547059237485E+01
              0.467862931018802E+02
             -0.396945087731767E+02
              0.656532993577670E+02
             -0.424579567410329E+02
              0.209595685123327E+02
              0.349545699328754E+02
 
 BEEF-vdW xc energy contributions
           1 :   -781.667719328725     
           2 :    718.511860582066     
           3 :   -608.893492784261     
           4 :    479.463322281851     
           5 :   -357.592434340927     
           6 :    263.189851792133     
           7 :   -204.062053862432     
           8 :    175.805305977311     
           9 :   -165.808515762879     
          10 :    159.432777450850     
          11 :   -145.822900256359     
          12 :    121.157372829921     
          13 :   -88.4974257778342     
          14 :    54.8645212235883     
          15 :   -27.2400808710177     
          16 :    9.30886119112029     
          17 :  -0.213452394427691     
          18 :   -4.45114694687982     
          19 :    10.1377825408518     
          20 :   -20.6615162220053     
          21 :    36.5611127861549     
          22 :   -55.1481329977707     
          23 :    72.0464820399470     
          24 :   -83.3784643835252     
          25 :    87.5252113740050     
          26 :   -85.6940415881082     
          27 :    81.1296086285471     
          28 :   -77.4420315954958     
          29 :    76.8942572489079     
          30 :   -79.4577593012547     
          31 :   -85.6945195579148     
          32 :   -65.7769644464464     

     Writing output data file ./pwscf.save/
 
     init_run     :    330.66s CPU    335.00s WALL (       1 calls)
     electrons    :  12992.19s CPU  13112.36s WALL (       1 calls)
     forces       :     98.80s CPU     99.95s WALL (       1 calls)

     Called by init_run:
     wfcinit      :    282.73s CPU    286.15s WALL (       1 calls)
     potinit      :     45.12s CPU     45.45s WALL (       1 calls)
     hinit0       :      1.10s CPU      1.13s WALL (       1 calls)

     Called by electrons:
     c_bands      :  10842.26s CPU  10936.16s WALL (      20 calls)
     sum_band     :   1499.32s CPU   1510.99s WALL (      20 calls)
     v_of_rho     :    126.58s CPU    130.62s WALL (      20 calls)
     newd         :     28.37s CPU     39.08s WALL (      20 calls)
     PAW_pot      :    133.05s CPU    133.06s WALL (      20 calls)
     mix_rho      :    408.39s CPU    409.02s WALL (      20 calls)
     vdW_kernel   :     33.46s CPU     33.47s WALL (       1 calls)

     Called by c_bands:
     init_us_2    :     72.75s CPU     73.01s WALL (     546 calls)
     cegterg      :  10056.28s CPU  10149.86s WALL (     260 calls)

     Called by *egterg:
     cdiaghg      :     95.97s CPU     96.00s WALL (    1299 calls)
     h_psi        :   6508.81s CPU   6541.77s WALL (    1325 calls)
     s_psi        :   1056.01s CPU   1056.10s WALL (    1325 calls)
     g_psi        :     16.27s CPU     16.28s WALL (    1052 calls)

     Called by h_psi:
     h_psi:calbec :    998.98s CPU    999.16s WALL (    1325 calls)
     vloc_psi     :   4428.54s CPU   4430.17s WALL (    1325 calls)
     add_vuspsi   :   1056.20s CPU   1056.35s WALL (    1325 calls)

     General routines
     calbec       :   1465.08s CPU   1465.32s WALL (    1637 calls)
     fft          :     47.61s CPU     47.62s WALL (    3220 calls)
     ffts         :    133.50s CPU    133.53s WALL (    9564 calls)
     fftw         :   4528.64s CPU   4529.65s WALL (  340420 calls)
 
     Parallel routines
 
     PWSCF        :      3h46m CPU      3h48m WALL

 
   This run was terminated on:  14:14:23   4Jan2023            

=------------------------------------------------------------------------------=
   JOB DONE.
=------------------------------------------------------------------------------=
