
     Program PWSCF v.6.7MaX starts on  9Jan2023 at 13:14:17 

     This program is part of the open-source Quantum ESPRESSO suite
     for quantum simulation of materials; please cite
         "P. Giannozzi et al., J. Phys.:Condens. Matter 21 395502 (2009);
         "P. Giannozzi et al., J. Phys.:Condens. Matter 29 465901 (2017);
          URL http://www.quantum-espresso.org", 
     in publications or presentations arising from this work. More details at
     http://www.quantum-espresso.org/quote

     Parallel version (MPI), running on     1 processors

     MPI processes distributed on     1 nodes
     Reading input from cchch2-bi-ensemble.in
Warning: card &CELL ignored
Warning: card / ignored

     Current dimensions of program PWSCF are:
     Max number of different atomic species (ntypx) = 10
     Max number of k-points (npk) =  40000
     Max angular momentum in pseudopotentials (lmaxx) =  3
     file Pt.pbe-n-kjpaw_psl.1.0.0.UPF: wavefunction(s)  6S 5D renormalized
     file C.pbe-n-kjpaw_psl.1.0.0.UPF: wavefunction(s)  2S 2P renormalized
     file H.pbe-kjpaw_psl.1.0.0.UPF: wavefunction(s)  1S renormalized

     **************************************************************************
     Initializing libbeef V0.1.2 with the BEEF-vdW functional.
     Citation: Wellendorff et al., PRB 85, 235149 (2012).
     **************************************************************************


     IMPORTANT: XC functional enforced from input :
     Exchange-correlation= BEEF-VDW
                           (   1   4  43  14   2   0   0)
     Any further DFT definition will be discarded
     Please, verify this is what you really want


     Subspace diagonalization in iterative solution of the eigenvalue problem:
     a serial algorithm will be used

 
     G-vector sticks info
     --------------------
     sticks:   dense  smooth     PW     G-vecs:    dense   smooth      PW
     Sum        4267    4267   1159               706035   706035   99591
 


     bravais-lattice index     =            0
     lattice parameter (alat)  =      16.0349  a.u.
     unit-cell volume          =   11238.7527 (a.u.)^3
     number of atoms/cell      =           42
     number of atomic types    =            3
     number of electrons       =       375.00
     number of Kohn-Sham states=          226
     kinetic-energy cutoff     =      60.0000  Ry
     charge density cutoff     =     240.0000  Ry
     scf convergence threshold =      1.0E-06
     mixing beta               =       0.7000
     number of iterations used =            8  local-TF  mixing
     Exchange-correlation= BEEF-VDW
                           (   1   4  43  14   2   0   0)

     celldm(1)=  16.034858  celldm(2)=   0.000000  celldm(3)=   0.000000
     celldm(4)=   0.000000  celldm(5)=   0.000000  celldm(6)=   0.000000

     crystal axes: (cart. coord. in units of alat)
               a(1) = (   1.000000   0.000000   0.000000 )  
               a(2) = (   0.500000   0.866025   0.000000 )  
               a(3) = (   0.000000   0.000000   3.147691 )  

     reciprocal axes: (cart. coord. in units 2 pi/alat)
               b(1) = (  1.000000 -0.577350  0.000000 )  
               b(2) = (  0.000000  1.154701  0.000000 )  
               b(3) = (  0.000000  0.000000  0.317693 )  


     PseudoPot. # 1 for Pt read from file:
     /users/bkreitz1/quantum-espresso/potentials/Pt.pbe-n-kjpaw_psl.1.0.0.UPF
     MD5 check sum: 04dc8a03c51ece93fc7b5889c2958091
     Pseudo is Projector augmented-wave + core cor, Zval = 10.0
     Generated using 'atomic' code by A. Dal Corso  v.6.7MaX
     Shape of augmentation charge: PSQ
     Using radial grid of 1277 points,  6 beta functions with: 
                l(1) =   0
                l(2) =   0
                l(3) =   1
                l(4) =   1
                l(5) =   2
                l(6) =   2
     Q(r) pseudized with 0 coefficients 


     PseudoPot. # 2 for C  read from file:
     /users/bkreitz1/quantum-espresso/potentials/C.pbe-n-kjpaw_psl.1.0.0.UPF
     MD5 check sum: a169b0ebad56f5ec0d79c4633f80bf22
     Pseudo is Projector augmented-wave + core cor, Zval =  4.0
     Generated using 'atomic' code by A. Dal Corso  v.6.7MaX
     Shape of augmentation charge: PSQ
     Using radial grid of 1073 points,  4 beta functions with: 
                l(1) =   0
                l(2) =   0
                l(3) =   1
                l(4) =   1
     Q(r) pseudized with 0 coefficients 


     PseudoPot. # 3 for H  read from file:
     /users/bkreitz1/quantum-espresso/potentials/H.pbe-kjpaw_psl.1.0.0.UPF
     MD5 check sum: ae98473e6dc62675f0d0baffdab24f65
     Pseudo is Projector augmented-wave, Zval =  1.0
     Generated using 'atomic' code by A. Dal Corso  v.6.7MaX
     Shape of augmentation charge: PSQ
     Using radial grid of  929 points,  2 beta functions with: 
                l(1) =   0
                l(2) =   0
     Q(r) pseudized with 0 coefficients 


     atomic species   valence    mass     pseudopotential
        Pt            10.00   195.08400     Pt( 1.00)
        C              4.00    12.01100     C ( 1.00)
        H              1.00     1.00800     H ( 1.00)

     No symmetry found



   Cartesian axes

     site n.     atom                  positions (alat units)
         1           Pt  tau(   1) = (   0.0000000   0.0000000   1.0017346  )
         2           Pt  tau(   2) = (   0.3333333   0.0000000   1.0017346  )
         3           Pt  tau(   3) = (   0.6666667   0.0000000   1.0017346  )
         4           Pt  tau(   4) = (   0.1666667   0.2886751   1.0017346  )
         5           Pt  tau(   5) = (   0.5000000   0.2886751   1.0017346  )
         6           Pt  tau(   6) = (   0.8333333   0.2886751   1.0017346  )
         7           Pt  tau(   7) = (   0.3333333   0.5773503   1.0017346  )
         8           Pt  tau(   8) = (   0.6666667   0.5773503   1.0017346  )
         9           Pt  tau(   9) = (   1.0000000   0.5773503   1.0017346  )
        10           Pt  tau(  10) = (   0.1666667   0.0962250   1.2739001  )
        11           Pt  tau(  11) = (   0.5000000   0.0962250   1.2739001  )
        12           Pt  tau(  12) = (   0.8333333   0.0962250   1.2739001  )
        13           Pt  tau(  13) = (   0.3333333   0.3849002   1.2739001  )
        14           Pt  tau(  14) = (   0.6666667   0.3849002   1.2739001  )
        15           Pt  tau(  15) = (   1.0000000   0.3849002   1.2739001  )
        16           Pt  tau(  16) = (   0.5000000   0.6735753   1.2739001  )
        17           Pt  tau(  17) = (   0.8333333   0.6735753   1.2739001  )
        18           Pt  tau(  18) = (   1.1666667   0.6735753   1.2739001  )
        19           Pt  tau(  19) = (   0.0014393   0.1934280   1.5461352  )
        20           Pt  tau(  20) = (   0.3337565   0.1926199   1.5439946  )
        21           Pt  tau(  21) = (   0.6675180   0.1911911   1.5414101  )
        22           Pt  tau(  22) = (   0.1659434   0.4834187   1.5451984  )
        23           Pt  tau(  23) = (   0.4995111   0.4822334   1.5471625  )
        24           Pt  tau(  24) = (   0.8321490   0.4817088   1.5420806  )
        25           Pt  tau(  25) = (   0.3337171   0.7653871   1.5468442  )
        26           Pt  tau(  26) = (   0.6691690   0.7723182   1.5482495  )
        27           Pt  tau(  27) = (   0.9973036   0.7720311   1.5465587  )
        28           Pt  tau(  28) = (  -0.0048346  -0.0050702   1.8192504  )
        29           Pt  tau(  29) = (   0.3305364   0.0003938   1.8502968  )
        30           Pt  tau(  30) = (   0.6699420  -0.0044811   1.8175097  )
        31           Pt  tau(  31) = (   0.1555923   0.2931188   1.8209069  )
        32           Pt  tau(  32) = (   0.5100352   0.2878127   1.8183395  )
        33           Pt  tau(  33) = (   0.8310283   0.2880091   1.8162376  )
        34           Pt  tau(  34) = (   0.3295571   0.5733953   1.8458745  )
        35           Pt  tau(  35) = (   0.6669329   0.5803725   1.8187563  )
        36           Pt  tau(  36) = (   0.9935670   0.5823331   1.8163655  )
        37           C   tau(  37) = (   0.3439899   0.2076170   1.9607619  )
        38           C   tau(  38) = (   0.2581956   0.3120368   2.0613775  )
        39           C   tau(  39) = (   0.3129933   0.4782932   2.0779300  )
        40           H   tau(  40) = (   0.1715346   0.2660174   2.1439961  )
        41           H   tau(  41) = (   0.2313867   0.5501975   2.1460046  )
        42           H   tau(  42) = (   0.4337946   0.4888451   2.1206448  )

     number of k points=    13  Marzari-Vanderbilt smearing, width (Ry)=  0.0200
                       cart. coord. in units 2pi/alat
        k(    1) = (   0.0000000   0.0000000   0.0000000), wk =   0.0800000
        k(    2) = (   0.0000000   0.2309401   0.0000000), wk =   0.1600000
        k(    3) = (   0.0000000   0.4618802   0.0000000), wk =   0.1600000
        k(    4) = (   0.2000000  -0.1154701   0.0000000), wk =   0.1600000
        k(    5) = (   0.2000000   0.1154701   0.0000000), wk =   0.1600000
        k(    6) = (   0.2000000   0.3464102   0.0000000), wk =   0.1600000
        k(    7) = (   0.2000000  -0.5773503   0.0000000), wk =   0.1600000
        k(    8) = (   0.2000000  -0.3464102   0.0000000), wk =   0.1600000
        k(    9) = (   0.4000000  -0.2309401   0.0000000), wk =   0.1600000
        k(   10) = (   0.4000000  -0.0000000   0.0000000), wk =   0.1600000
        k(   11) = (   0.4000000   0.2309401   0.0000000), wk =   0.1600000
        k(   12) = (   0.4000000  -0.6928203   0.0000000), wk =   0.1600000
        k(   13) = (   0.4000000  -0.4618802   0.0000000), wk =   0.1600000

     Dense  grid:   706035 G-vectors     FFT dimensions: (  80,  80, 250)

     Estimated max dynamical RAM per process >       8.57 GB

     Check: negative core charge=   -0.000002

     Initial potential from superposition of free atoms

     starting charge  374.99374, renormalised to  375.00000

     negative rho (up, down):  1.134E-02 0.000E+00


     %%%%%%%%%%%%%%%%%%%%%%%%%%%%%%%%%%%%%%%%%%%%%%%%%%%%%%%%%%%%%%%%%%%%%%%%
     %                                                                      %
     % You are using vdW-DF, which was implemented by the Thonhauser group. %
     % Please cite the following two papers that made this development      %
     % possible and the two reviews that describe the various versions:     %
     %                                                                      %
     %   T. Thonhauser et al., PRL 115, 136402 (2015).                      %
     %   T. Thonhauser et al., PRB 76, 125112 (2007).                       %
     %   K. Berland et al., Rep. Prog. Phys. 78, 066501 (2015).             %
     %   D.C. Langreth et al., J. Phys.: Condens. Matter 21, 084203 (2009). %
     %                                                                      %
     %                                                                      %
     % If you are calculating the stress with vdW-DF, please also cite:     %
     %                                                                      %
     %   R. Sabatini et al., J. Phys.: Condens. Matter 24, 424209 (2012).   %
     %                                                                      %
     %%%%%%%%%%%%%%%%%%%%%%%%%%%%%%%%%%%%%%%%%%%%%%%%%%%%%%%%%%%%%%%%%%%%%%%%


     Starting wfcs are  339 randomized atomic wfcs
     Checking if some PAW data can be deallocated... 

     total cpu time spent up to now is      364.4 secs

     Self-consistent Calculation

     iteration #  1     ecut=    60.00 Ry     beta= 0.70
     Davidson diagonalization with overlap
     ethr =  1.00E-02,  avg # of iterations =  2.1

     Threshold (ethr) on eigenvalues was too large:
     Diagonalizing with lowered threshold

     Davidson diagonalization with overlap
     ethr =  8.65E-04,  avg # of iterations =  2.2

     negative rho (up, down):  1.224E-02 0.000E+00

     total cpu time spent up to now is     1732.3 secs

     total energy              =  -27814.51323274 Ry
     estimated scf accuracy    <       3.54337442 Ry

     iteration #  2     ecut=    60.00 Ry     beta= 0.70
     Davidson diagonalization with overlap
     ethr =  9.45E-04,  avg # of iterations =  2.0

     negative rho (up, down):  1.010E-02 0.000E+00

     total cpu time spent up to now is     2360.6 secs

     total energy              =  -27814.74662774 Ry
     estimated scf accuracy    <       1.52004618 Ry

     iteration #  3     ecut=    60.00 Ry     beta= 0.70
     Davidson diagonalization with overlap
     ethr =  4.05E-04,  avg # of iterations =  4.5

     negative rho (up, down):  7.477E-03 0.000E+00

     total cpu time spent up to now is     3006.7 secs

     total energy              =  -27814.81152167 Ry
     estimated scf accuracy    <       0.64728381 Ry

     iteration #  4     ecut=    60.00 Ry     beta= 0.70
     Davidson diagonalization with overlap
     ethr =  1.73E-04,  avg # of iterations =  7.2

     negative rho (up, down):  5.568E-03 0.000E+00

     total cpu time spent up to now is     3713.7 secs

     total energy              =  -27814.85715211 Ry
     estimated scf accuracy    <       0.18320722 Ry

     iteration #  5     ecut=    60.00 Ry     beta= 0.70
     Davidson diagonalization with overlap
     c_bands:  1 eigenvalues not converged
     ethr =  4.89E-05,  avg # of iterations =  9.8

     negative rho (up, down):  4.090E-03 0.000E+00

     total cpu time spent up to now is     4580.6 secs

     total energy              =  -27814.88104363 Ry
     estimated scf accuracy    <       0.06596467 Ry

     iteration #  6     ecut=    60.00 Ry     beta= 0.70
     Davidson diagonalization with overlap
     ethr =  1.76E-05,  avg # of iterations =  8.3

     negative rho (up, down):  3.291E-03 0.000E+00

     total cpu time spent up to now is     5331.5 secs

     total energy              =  -27814.88594138 Ry
     estimated scf accuracy    <       0.00847460 Ry

     iteration #  7     ecut=    60.00 Ry     beta= 0.70
     Davidson diagonalization with overlap
     c_bands:  1 eigenvalues not converged
     c_bands:  1 eigenvalues not converged
     c_bands:  3 eigenvalues not converged
     c_bands:  1 eigenvalues not converged
     c_bands:  1 eigenvalues not converged
     ethr =  2.26E-06,  avg # of iterations = 14.5

     negative rho (up, down):  3.116E-03 0.000E+00

     total cpu time spent up to now is     6446.7 secs

     total energy              =  -27814.88926910 Ry
     estimated scf accuracy    <       0.00362704 Ry

     iteration #  8     ecut=    60.00 Ry     beta= 0.70
     Davidson diagonalization with overlap
     c_bands:  2 eigenvalues not converged
     ethr =  9.67E-07,  avg # of iterations =  5.8

     negative rho (up, down):  3.159E-03 0.000E+00

     total cpu time spent up to now is     7145.4 secs

     total energy              =  -27814.88968270 Ry
     estimated scf accuracy    <       0.00208135 Ry

     iteration #  9     ecut=    60.00 Ry     beta= 0.70
     Davidson diagonalization with overlap
     ethr =  5.55E-07,  avg # of iterations =  4.5

     negative rho (up, down):  3.593E-03 0.000E+00

     total cpu time spent up to now is     7794.1 secs

     total energy              =  -27814.88985757 Ry
     estimated scf accuracy    <       0.00129463 Ry

     iteration # 10     ecut=    60.00 Ry     beta= 0.70
     Davidson diagonalization with overlap
     ethr =  3.45E-07,  avg # of iterations =  8.2

     negative rho (up, down):  4.222E-03 0.000E+00

     total cpu time spent up to now is     8481.8 secs

     total energy              =  -27814.88992668 Ry
     estimated scf accuracy    <       0.00123029 Ry

     iteration # 11     ecut=    60.00 Ry     beta= 0.70
     Davidson diagonalization with overlap
     ethr =  3.28E-07,  avg # of iterations =  4.5

     negative rho (up, down):  7.266E-03 0.000E+00

     total cpu time spent up to now is     9127.0 secs

     total energy              =  -27814.88990194 Ry
     estimated scf accuracy    <       0.00099270 Ry

     iteration # 12     ecut=    60.00 Ry     beta= 0.70
     Davidson diagonalization with overlap
     ethr =  2.65E-07,  avg # of iterations =  4.2

     negative rho (up, down):  1.033E-02 0.000E+00

     total cpu time spent up to now is     9760.4 secs

     total energy              =  -27814.88990034 Ry
     estimated scf accuracy    <       0.00042771 Ry

     iteration # 13     ecut=    60.00 Ry     beta= 0.70
     Davidson diagonalization with overlap
     ethr =  1.14E-07,  avg # of iterations =  1.2

     negative rho (up, down):  1.164E-02 0.000E+00

     total cpu time spent up to now is    10337.0 secs

     total energy              =  -27814.88993057 Ry
     estimated scf accuracy    <       0.00009408 Ry

     iteration # 14     ecut=    60.00 Ry     beta= 0.70
     Davidson diagonalization with overlap
     ethr =  2.51E-08,  avg # of iterations =  4.0

     negative rho (up, down):  1.128E-02 0.000E+00

     total cpu time spent up to now is    11093.6 secs

     total energy              =  -27814.88995491 Ry
     estimated scf accuracy    <       0.00004731 Ry

     iteration # 15     ecut=    60.00 Ry     beta= 0.70
     Davidson diagonalization with overlap
     ethr =  1.26E-08,  avg # of iterations =  2.0

     negative rho (up, down):  1.188E-02 0.000E+00

     total cpu time spent up to now is    11728.9 secs

     total energy              =  -27814.88996032 Ry
     estimated scf accuracy    <       0.00002575 Ry

     iteration # 16     ecut=    60.00 Ry     beta= 0.70
     Davidson diagonalization with overlap
     ethr =  6.87E-09,  avg # of iterations =  2.0

     negative rho (up, down):  1.217E-02 0.000E+00

     total cpu time spent up to now is    12393.0 secs

     total energy              =  -27814.88996249 Ry
     estimated scf accuracy    <       0.00000241 Ry

     iteration # 17     ecut=    60.00 Ry     beta= 0.70
     Davidson diagonalization with overlap
     ethr =  6.44E-10,  avg # of iterations =  6.1

     negative rho (up, down):  1.230E-02 0.000E+00

     total cpu time spent up to now is    13763.7 secs

     total energy              =  -27814.88996435 Ry
     estimated scf accuracy    <       0.00000454 Ry

     iteration # 18     ecut=    60.00 Ry     beta= 0.70
     Davidson diagonalization with overlap
     ethr =  6.44E-10,  avg # of iterations =  1.0

     negative rho (up, down):  1.232E-02 0.000E+00

     total cpu time spent up to now is    14340.3 secs

     total energy              =  -27814.88996429 Ry
     estimated scf accuracy    <       0.00000164 Ry

     iteration # 19     ecut=    60.00 Ry     beta= 0.70
     Davidson diagonalization with overlap
     ethr =  4.37E-10,  avg # of iterations =  1.0

     negative rho (up, down):  1.251E-02 0.000E+00

     total cpu time spent up to now is    14931.2 secs

     total energy              =  -27814.88996384 Ry
     estimated scf accuracy    <       0.00000105 Ry

     iteration # 20     ecut=    60.00 Ry     beta= 0.70
     Davidson diagonalization with overlap
     ethr =  2.80E-10,  avg # of iterations =  1.0

     negative rho (up, down):  1.261E-02 0.000E+00

     total cpu time spent up to now is    15485.6 secs

     End of self-consistent calculation

          k = 0.0000 0.0000 0.0000 ( 88241 PWs)   bands (ev):

   -13.8990 -10.6183  -7.7705  -6.5947  -5.6349  -5.3156  -4.6930  -4.5955
    -4.2629  -4.2329  -4.2231  -4.2103  -4.1910  -4.1695  -4.0685  -4.0676
    -3.7558  -3.6800  -3.6631  -3.6582  -3.6280  -3.5720  -3.4060  -3.3177
    -3.2341  -3.2169  -3.1967  -3.1054  -3.0397  -3.0287  -2.9921  -2.9847
    -2.9787  -2.9182  -2.8852  -2.8535  -2.8379  -2.8026  -2.7997  -2.7777
    -2.7304  -2.7263  -2.7043  -2.6809  -2.6726  -2.5870  -2.3335  -2.2997
    -2.2196  -2.1975  -2.1553  -2.1411  -2.1193  -2.1007  -2.0822  -2.0540
    -1.9520  -1.9094  -1.8895  -1.8735  -1.7932  -1.7137  -1.6403  -1.4425
    -1.4073  -1.3938  -1.3697  -1.3524  -1.3023  -1.2766  -1.2402  -1.2237
    -1.1652  -1.1442  -1.1335  -1.1245  -1.1134  -1.1069  -1.1014  -1.0843
    -1.0587  -1.0560  -1.0232  -1.0185  -1.0129  -0.9863  -0.9710  -0.9386
    -0.9099  -0.8863  -0.8503  -0.7919  -0.7650  -0.7350  -0.7057  -0.6905
    -0.6676  -0.6438  -0.6366  -0.6268  -0.6071  -0.5938  -0.5333  -0.5108
    -0.5007  -0.4634  -0.4581  -0.4570  -0.4444  -0.3469  -0.3255  -0.3152
    -0.2754  -0.2143  -0.1974  -0.0630  -0.0119   0.0418   0.0939   0.1260
     0.1683   0.1827   0.2246   0.2634   0.3108   0.3390   0.3572   0.3797
     0.3842   0.4053   0.4376   0.4454   0.4642   0.4667   0.5399   0.5771
     0.6436   0.6839   0.6948   0.7139   0.7645   0.8141   0.8747   0.9109
     0.9206   0.9321   0.9639   0.9818   0.9966   1.0545   1.0718   1.1094
     1.1638   1.1802   1.1998   1.2302   1.2617   1.2794   1.3215   1.3416
     1.3518   1.3555   1.3765   1.3819   1.3975   1.3998   1.4130   1.4308
     1.4361   1.4516   1.4662   1.4961   1.5366   1.5687   1.5797   1.5927
     1.6172   1.6196   1.6255   1.6664   1.6954   1.7202   1.7228   1.7387
     1.7401   1.7532   1.7858   1.8064   1.8238   1.8505   1.8617   1.9077
     1.9104   2.0208   2.0468   2.0942   2.1192   2.1467   2.1790   2.1882
     2.2038   2.2628   2.5316   2.6233   2.7359   2.9675   3.0562   3.0618
     3.5657   3.9381   4.2705   4.8268   5.2859   5.3292   5.5202   5.7767
     6.0012   6.1983   6.2545   6.8222   6.8857   6.9889   7.0075   7.0270
     7.0652   7.1157

          k = 0.0000 0.2309 0.0000 ( 88194 PWs)   bands (ev):

   -13.8986 -10.6187  -7.7585  -6.4556  -5.6212  -5.1928  -4.7674  -4.6152
    -4.5788  -4.3156  -4.2255  -4.1114  -4.0426  -3.9851  -3.9625  -3.9128
    -3.8299  -3.7508  -3.6120  -3.5951  -3.5750  -3.5168  -3.3963  -3.2767
    -3.2396  -3.1778  -3.1562  -3.1347  -3.0890  -3.0600  -3.0280  -2.9839
    -2.9721  -2.9440  -2.9156  -2.8801  -2.8604  -2.8200  -2.8028  -2.7738
    -2.7067  -2.6602  -2.6220  -2.5736  -2.5399  -2.4724  -2.3691  -2.3342
    -2.2618  -2.2431  -2.2168  -2.2011  -2.1526  -2.1117  -2.0660  -2.0041
    -1.9687  -1.9282  -1.8985  -1.8655  -1.8007  -1.7584  -1.6659  -1.5785
    -1.5186  -1.4866  -1.4743  -1.4510  -1.4260  -1.3925  -1.3718  -1.3409
    -1.3164  -1.2841  -1.2465  -1.2169  -1.1960  -1.1530  -1.1342  -1.1107
    -1.0640  -1.0415  -1.0147  -0.9991  -0.9858  -0.9526  -0.9160  -0.9027
    -0.8826  -0.8730  -0.8521  -0.8015  -0.7887  -0.7545  -0.7335  -0.7195
    -0.7053  -0.6495  -0.6379  -0.6312  -0.6080  -0.5732  -0.5653  -0.5424
    -0.5302  -0.5186  -0.4819  -0.4580  -0.4143  -0.3981  -0.3357  -0.3078
    -0.2874  -0.2591  -0.2406  -0.2282  -0.2149  -0.2088  -0.1582  -0.0836
     0.0156   0.0495   0.1056   0.1435   0.1921   0.2043   0.2244   0.2829
     0.3091   0.3583   0.3977   0.4342   0.4807   0.5253   0.5390   0.5658
     0.5985   0.6259   0.6390   0.6696   0.7182   0.7442   0.7799   0.8058
     0.8219   0.8381   0.8778   0.9578   0.9756   0.9926   1.0109   1.0292
     1.0652   1.1141   1.1670   1.1785   1.1943   1.2050   1.2578   1.2775
     1.3307   1.3482   1.3967   1.4100   1.4275   1.4410   1.4696   1.5233
     1.5419   1.5667   1.6018   1.6499   1.6629   1.6955   1.7153   1.7255
     1.7611   1.7839   1.7968   1.8324   1.8402   1.8839   1.8939   1.9076
     1.9564   1.9870   2.0183   2.0612   2.0741   2.0987   2.1083   2.1298
     2.1451   2.1525   2.1912   2.2355   2.2857   2.3120   2.3258   2.4224
     2.4514   2.4902   2.5713   2.6998   3.0204   3.2397   3.3419   3.6058
     3.7723   4.0073   4.1848   4.8955   5.1401   5.2814   5.6979   5.8066
     5.9381   6.0462   6.1186   6.2886   6.5445   6.7796   6.8344   6.9381
     7.0384   7.1680

          k = 0.0000 0.4619 0.0000 ( 88196 PWs)   bands (ev):

   -13.8981 -10.6194  -7.7399  -6.0530  -5.6089  -5.4053  -4.8764  -4.6107
    -4.5453  -4.3570  -4.2447  -4.1652  -3.9761  -3.8343  -3.7439  -3.7109
    -3.6315  -3.6102  -3.5208  -3.4760  -3.4338  -3.4027  -3.3894  -3.3567
    -3.2805  -3.2471  -3.2371  -3.1993  -3.1771  -3.1582  -3.1293  -3.0668
    -3.0466  -3.0081  -2.8484  -2.8361  -2.7990  -2.7740  -2.7508  -2.6804
    -2.6246  -2.5942  -2.5468  -2.5394  -2.4734  -2.4265  -2.3651  -2.3263
    -2.2856  -2.2526  -2.2116  -2.2038  -2.1506  -2.1272  -2.0854  -2.0539
    -2.0466  -2.0234  -1.9493  -1.9079  -1.8577  -1.8248  -1.8014  -1.7213
    -1.7090  -1.6740  -1.6455  -1.5782  -1.5456  -1.5028  -1.4768  -1.4632
    -1.3898  -1.3800  -1.3736  -1.3257  -1.2704  -1.2545  -1.1980  -1.1736
    -1.1636  -1.1148  -1.0914  -1.0756  -1.0379  -1.0067  -0.9914  -0.9737
    -0.9615  -0.9191  -0.9114  -0.8937  -0.8491  -0.8373  -0.8263  -0.7866
    -0.7608  -0.7497  -0.7179  -0.6996  -0.6706  -0.6111  -0.5896  -0.5591
    -0.5396  -0.5171  -0.4966  -0.4266  -0.4038  -0.3734  -0.3515  -0.3401
    -0.3024  -0.2767  -0.2513  -0.2242  -0.2072  -0.1585  -0.1058  -0.0277
    -0.0170   0.0156   0.0366   0.1056   0.1234   0.1546   0.1872   0.1961
     0.2254   0.2393   0.2696   0.2878   0.3050   0.3246   0.3541   0.3820
     0.4499   0.4843   0.5041   0.5346   0.5865   0.6416   0.6822   0.7456
     0.7626   0.8052   0.8768   0.8898   0.9492   0.9687   0.9970   1.0193
     1.0578   1.0600   1.1177   1.1491   1.1594   1.1850   1.2240   1.2556
     1.2983   1.3192   1.3526   1.3863   1.4011   1.4757   1.5086   1.5497
     1.5752   1.6290   1.6580   1.6949   1.7342   1.7562   1.7652   1.8227
     1.8449   1.8797   1.8988   1.9429   1.9536   2.0197   2.0341   2.0431
     2.0592   2.0739   2.1043   2.1690   2.2555   2.2809   2.3193   2.3274
     2.3450   2.4116   2.4399   2.5791   2.5882   2.6977   2.9179   3.1522
     3.3213   3.3722   3.5022   3.5788   3.6847   3.7692   3.9728   4.1915
     4.4083   4.5588   4.6286   4.7259   4.7883   4.8420   5.1342   5.2605
     5.3472   5.4878   5.7105   6.0123   6.1689   6.4041   6.5369   6.6913
     6.9731   7.0792

          k = 0.2000-0.1155 0.0000 ( 88194 PWs)   bands (ev):

   -13.8986 -10.6181  -7.7623  -6.4550  -5.6219  -5.2049  -4.7848  -4.6472
    -4.4737  -4.3190  -4.2794  -4.1100  -4.0344  -3.9894  -3.9632  -3.9160
    -3.7664  -3.7061  -3.6452  -3.5979  -3.5880  -3.5752  -3.3237  -3.2857
    -3.2555  -3.1839  -3.1412  -3.1166  -3.0827  -3.0650  -3.0377  -2.9950
    -2.9808  -2.9293  -2.8929  -2.8774  -2.8590  -2.8289  -2.8068  -2.7776
    -2.7428  -2.6386  -2.6195  -2.5778  -2.5315  -2.5009  -2.3479  -2.3249
    -2.2918  -2.2697  -2.2294  -2.2155  -2.1544  -2.1375  -2.0449  -2.0246
    -1.9747  -1.9111  -1.8878  -1.8470  -1.7986  -1.7469  -1.6776  -1.5835
    -1.5394  -1.4972  -1.4708  -1.4529  -1.4291  -1.4120  -1.3608  -1.3349
    -1.3162  -1.2845  -1.2307  -1.2036  -1.1896  -1.1757  -1.1459  -1.0921
    -1.0518  -1.0343  -1.0146  -0.9869  -0.9648  -0.9558  -0.9283  -0.9088
    -0.8887  -0.8621  -0.8306  -0.8047  -0.7739  -0.7612  -0.7431  -0.7221
    -0.6913  -0.6720  -0.6154  -0.6094  -0.5828  -0.5683  -0.5644  -0.5479
    -0.5346  -0.5158  -0.5063  -0.4843  -0.4483  -0.4121  -0.3446  -0.3330
    -0.2885  -0.2605  -0.2354  -0.2202  -0.2144  -0.2029  -0.1532  -0.0730
     0.0003   0.0625   0.1083   0.1628   0.1971   0.2184   0.2384   0.2640
     0.3238   0.3574   0.3834   0.4211   0.4694   0.5029   0.5702   0.5807
     0.6057   0.6177   0.6415   0.6660   0.7146   0.7547   0.7849   0.8198
     0.8302   0.8402   0.9146   0.9395   0.9539   0.9753   0.9924   1.0386
     1.0658   1.0979   1.1597   1.1696   1.2021   1.2233   1.2552   1.2900
     1.3126   1.3565   1.3896   1.4021   1.4230   1.4445   1.4742   1.5129
     1.5339   1.5777   1.6004   1.6553   1.6819   1.6933   1.7099   1.7249
     1.7682   1.7719   1.8046   1.8180   1.8604   1.8748   1.8951   1.9017
     1.9498   1.9878   2.0345   2.0455   2.0647   2.0827   2.1181   2.1296
     2.1446   2.1635   2.1810   2.2419   2.2685   2.3076   2.3231   2.4307
     2.4511   2.4995   2.6255   2.7360   2.9033   3.1503   3.4552   3.6176
     3.7882   4.0330   4.2970   4.7999   4.9357   5.4915   5.6425   5.8554
     5.8873   6.0689   6.1734   6.3221   6.4136   6.8139   6.8351   6.9380
     7.1339   7.1989

          k = 0.2000 0.1155 0.0000 ( 88194 PWs)   bands (ev):

   -13.8986 -10.6180  -7.7599  -6.4549  -5.6237  -5.1991  -4.7727  -4.6540
    -4.5128  -4.3132  -4.2464  -4.1108  -4.0330  -3.9983  -3.9636  -3.9192
    -3.7924  -3.7377  -3.6635  -3.5958  -3.5678  -3.5031  -3.3557  -3.3094
    -3.2512  -3.1864  -3.1623  -3.1193  -3.0864  -3.0471  -3.0207  -2.9857
    -2.9654  -2.9465  -2.9177  -2.8790  -2.8554  -2.8415  -2.8132  -2.7763
    -2.6791  -2.6531  -2.6338  -2.5705  -2.5454  -2.4832  -2.3954  -2.3105
    -2.2674  -2.2424  -2.2360  -2.2121  -2.1583  -2.1201  -2.0429  -2.0219
    -1.9491  -1.9022  -1.8917  -1.8631  -1.8271  -1.7423  -1.6811  -1.5724
    -1.5232  -1.5006  -1.4863  -1.4620  -1.4375  -1.3966  -1.3423  -1.3212
    -1.3160  -1.2847  -1.2477  -1.2029  -1.1917  -1.1614  -1.1463  -1.1081
    -1.0496  -1.0332  -1.0262  -0.9855  -0.9770  -0.9520  -0.9257  -0.9065
    -0.8771  -0.8637  -0.8399  -0.8120  -0.7686  -0.7604  -0.7407  -0.7270
    -0.6869  -0.6655  -0.6419  -0.6169  -0.5910  -0.5672  -0.5619  -0.5540
    -0.5405  -0.5160  -0.5016  -0.4640  -0.4335  -0.3894  -0.3561  -0.3248
    -0.2887  -0.2606  -0.2442  -0.2233  -0.2124  -0.2108  -0.1596  -0.1019
     0.0319   0.0802   0.0988   0.1604   0.1915   0.2098   0.2353   0.2599
     0.3271   0.3604   0.3977   0.4409   0.4765   0.4894   0.5400   0.5826
     0.6034   0.6158   0.6362   0.6586   0.7067   0.7428   0.7909   0.8112
     0.8331   0.8461   0.8820   0.9419   0.9699   0.9864   1.0076   1.0444
     1.0902   1.1024   1.1649   1.1786   1.2124   1.2229   1.2563   1.3006
     1.3287   1.3582   1.3898   1.4022   1.4160   1.4296   1.4836   1.5098
     1.5295   1.5631   1.5943   1.6327   1.6807   1.7054   1.7108   1.7266
     1.7597   1.7758   1.8160   1.8197   1.8505   1.8763   1.8926   1.9043
     1.9626   1.9956   2.0321   2.0454   2.0816   2.1024   2.1155   2.1293
     2.1460   2.1515   2.1820   2.2161   2.2684   2.3070   2.3387   2.3922
     2.4453   2.4937   2.5812   2.7360   2.9994   3.1771   3.3595   3.6526
     3.8318   3.9576   4.2350   4.8882   4.9723   5.4422   5.6243   5.8063
     5.8677   6.0616   6.1403   6.3099   6.4973   6.8028   6.9017   6.9332
     7.0630   7.1959

          k = 0.2000 0.3464 0.0000 ( 88208 PWs)   bands (ev):

   -13.8982 -10.6185  -7.7439  -6.1834  -5.6074  -5.0445  -4.9664  -4.9249
    -4.5859  -4.4459  -3.9464  -3.9095  -3.8887  -3.8647  -3.8377  -3.8313
    -3.7801  -3.7348  -3.7017  -3.6619  -3.3911  -3.3338  -3.3213  -3.3015
    -3.2634  -3.2199  -3.2149  -3.1964  -3.1160  -3.0807  -3.0533  -3.0050
    -2.9871  -2.9684  -2.9340  -2.9078  -2.8617  -2.8485  -2.8152  -2.7651
    -2.7119  -2.6937  -2.5480  -2.4896  -2.4180  -2.3774  -2.3523  -2.3236
    -2.2703  -2.2615  -2.2398  -2.1815  -2.1349  -2.1154  -2.0695  -2.0308
    -1.9944  -1.9585  -1.8871  -1.8615  -1.8396  -1.8305  -1.7870  -1.7422
    -1.6783  -1.6150  -1.5858  -1.5427  -1.5154  -1.4892  -1.4733  -1.4518
    -1.4051  -1.3415  -1.3302  -1.3102  -1.2503  -1.2366  -1.2122  -1.1820
    -1.1563  -1.1241  -1.0735  -1.0534  -1.0192  -0.9946  -0.9734  -0.9429
    -0.9154  -0.8923  -0.8649  -0.8387  -0.8371  -0.8145  -0.7991  -0.7758
    -0.7575  -0.6933  -0.6780  -0.6540  -0.6175  -0.6057  -0.5799  -0.5724
    -0.5444  -0.5234  -0.5074  -0.4719  -0.4606  -0.4371  -0.4252  -0.4098
    -0.3718  -0.3455  -0.3004  -0.2665  -0.2298  -0.1886  -0.1489  -0.1189
    -0.0178   0.0064   0.0623   0.0934   0.1233   0.1474   0.1945   0.2121
     0.2420   0.2806   0.3107   0.3373   0.3475   0.3833   0.4168   0.4667
     0.5169   0.5681   0.5890   0.5964   0.6288   0.6662   0.6995   0.7670
     0.8035   0.8156   0.8325   0.8576   0.9121   0.9489   0.9852   1.0113
     1.0593   1.0771   1.1106   1.1204   1.1507   1.1797   1.2091   1.2192
     1.2626   1.2820   1.3434   1.3702   1.4186   1.4660   1.5282   1.6322
     1.6571   1.6974   1.7024   1.7299   1.7727   1.8154   1.8405   1.8589
     1.8979   1.9125   1.9320   1.9485   1.9623   1.9845   2.0035   2.0451
     2.0638   2.0992   2.1057   2.1414   2.1847   2.2100   2.2461   2.3189
     2.3407   2.3641   2.3903   2.4634   2.5211   2.5672   2.6497   2.7228
     3.0541   3.1311   3.3582   3.4562   3.5931   3.6630   3.7174   3.9905
     4.1278   4.4371   4.5260   4.6345   4.7443   5.0588   5.4355   5.6428
     5.6777   5.8793   6.0692   6.2018   6.3283   6.4941   6.5402   6.6063
     6.7539   6.9268

          k = 0.2000-0.5774 0.0000 ( 88198 PWs)   bands (ev):

   -13.8979 -10.6189  -7.7369  -5.7183  -5.6693  -5.5224  -5.0733  -4.7391
    -4.5145  -4.3983  -4.2514  -3.8839  -3.8654  -3.7483  -3.7129  -3.6248
    -3.5870  -3.5387  -3.4992  -3.4554  -3.4079  -3.3851  -3.3734  -3.3536
    -3.3326  -3.3009  -3.2482  -3.2386  -3.1714  -3.1555  -3.1413  -3.1088
    -3.0510  -3.0200  -2.9164  -2.8984  -2.8652  -2.7935  -2.7444  -2.7318
    -2.7159  -2.6279  -2.5479  -2.5201  -2.4375  -2.3951  -2.3542  -2.3121
    -2.2865  -2.2624  -2.2155  -2.1586  -2.1339  -2.0633  -2.0221  -1.9901
    -1.9670  -1.9563  -1.8920  -1.8549  -1.8217  -1.7959  -1.7824  -1.7581
    -1.7169  -1.7006  -1.6722  -1.6476  -1.6144  -1.5899  -1.5383  -1.5152
    -1.4853  -1.4449  -1.4067  -1.3887  -1.3204  -1.2681  -1.2624  -1.2401
    -1.2248  -1.2055  -1.1705  -1.1250  -1.1010  -1.0778  -1.0474  -1.0254
    -0.9882  -0.9397  -0.9135  -0.8840  -0.8636  -0.8462  -0.8294  -0.7565
    -0.7381  -0.7015  -0.6684  -0.6424  -0.6242  -0.6013  -0.5818  -0.5654
    -0.5555  -0.5231  -0.5011  -0.4684  -0.4541  -0.4267  -0.4202  -0.4165
    -0.3892  -0.3693  -0.3586  -0.3110  -0.2600  -0.1750  -0.0961  -0.0687
    -0.0514   0.0158   0.0438   0.0645   0.0907   0.1209   0.1374   0.1537
     0.1907   0.2203   0.2694   0.2894   0.3219   0.3654   0.3977   0.4314
     0.4559   0.4686   0.5164   0.5845   0.6310   0.6752   0.6897   0.7493
     0.7922   0.8028   0.8209   0.8692   0.8908   0.9035   0.9231   0.9540
     1.0061   1.0105   1.0278   1.0663   1.0951   1.1288   1.1863   1.2047
     1.2394   1.3442   1.3801   1.4156   1.5125   1.5397   1.5632   1.5815
     1.6437   1.7036   1.7168   1.7656   1.8143   1.8379   1.8613   1.8962
     1.9075   1.9269   1.9450   1.9932   2.0139   2.0310   2.0528   2.0833
     2.1104   2.1156   2.1973   2.2218   2.2476   2.3314   2.3460   2.3547
     2.3650   2.4113   2.4391   2.5781   2.7094   3.0080   3.1893   3.3340
     3.4934   3.5574   3.7166   3.7627   3.8290   3.9511   4.2539   4.3924
     4.5041   4.5957   4.7631   4.8772   4.9839   5.0614   5.1919   5.2610
     5.3468   5.4142   5.6644   5.7735   5.8888   6.1421   6.2113   6.5408
     6.5947   6.6736

          k = 0.2000-0.3464 0.0000 ( 88208 PWs)   bands (ev):

   -13.8982 -10.6187  -7.7478  -6.1841  -5.6046  -5.0489  -4.9781  -4.9163
    -4.5925  -4.4247  -3.9551  -3.9118  -3.8860  -3.8434  -3.8362  -3.8101
    -3.7651  -3.7436  -3.6940  -3.6705  -3.4079  -3.3503  -3.3239  -3.3012
    -3.2921  -3.2277  -3.2189  -3.1340  -3.0941  -3.0745  -3.0485  -2.9948
    -2.9795  -2.9712  -2.9253  -2.8976  -2.8713  -2.8389  -2.8225  -2.7710
    -2.7380  -2.6692  -2.6052  -2.4718  -2.3974  -2.3890  -2.3509  -2.3319
    -2.2890  -2.2597  -2.2293  -2.2123  -2.1430  -2.1360  -2.0734  -2.0506
    -2.0089  -1.9569  -1.9024  -1.8569  -1.8471  -1.8115  -1.7822  -1.7298
    -1.6755  -1.6158  -1.5956  -1.5293  -1.5183  -1.4885  -1.4640  -1.4504
    -1.4152  -1.3725  -1.3291  -1.2955  -1.2438  -1.2306  -1.2262  -1.1875
    -1.1585  -1.1132  -1.0739  -1.0483  -1.0058  -0.9984  -0.9572  -0.9339
    -0.9240  -0.8929  -0.8643  -0.8546  -0.8324  -0.8033  -0.7935  -0.7748
    -0.7531  -0.7073  -0.6849  -0.6564  -0.6333  -0.6142  -0.5760  -0.5644
    -0.5358  -0.5276  -0.5053  -0.4755  -0.4604  -0.4459  -0.4265  -0.4146
    -0.3712  -0.3287  -0.3009  -0.2538  -0.2074  -0.1849  -0.1367  -0.0971
    -0.0222   0.0168   0.0527   0.0994   0.1272   0.1582   0.1795   0.2000
     0.2426   0.2673   0.3062   0.3386   0.3443   0.3859   0.4288   0.4778
     0.5063   0.5618   0.5834   0.6117   0.6320   0.6587   0.7299   0.7584
     0.7784   0.8255   0.8307   0.8694   0.9037   0.9311   0.9941   1.0092
     1.0266   1.0680   1.0974   1.1220   1.1495   1.1787   1.1962   1.2175
     1.2343   1.2793   1.3355   1.3850   1.4246   1.4841   1.5565   1.6178
     1.6470   1.6844   1.7172   1.7446   1.7785   1.8130   1.8295   1.8606
     1.8973   1.9051   1.9261   1.9451   1.9549   1.9759   2.0042   2.0372
     2.0717   2.0872   2.1166   2.1385   2.1474   2.2131   2.2680   2.3130
     2.3500   2.3741   2.3933   2.4563   2.5294   2.5754   2.6344   2.8896
     3.0039   3.1168   3.2805   3.4541   3.5995   3.6266   3.7146   4.0659
     4.1931   4.4361   4.5035   4.6272   4.7788   5.0808   5.4055   5.4974
     5.8303   5.9371   6.0839   6.2322   6.3887   6.4783   6.4959   6.5946
     6.6876   6.7700

          k = 0.4000-0.2309 0.0000 ( 88196 PWs)   bands (ev):

   -13.8980 -10.6178  -7.7495  -6.0541  -5.6175  -5.4112  -4.8845  -4.6426
    -4.4640  -4.3538  -4.3129  -4.1069  -3.9176  -3.8342  -3.7313  -3.7024
    -3.6411  -3.6128  -3.5471  -3.5033  -3.4228  -3.3936  -3.3885  -3.3287
    -3.2729  -3.2406  -3.2160  -3.1910  -3.1755  -3.1496  -3.1128  -3.0584
    -3.0371  -2.9694  -2.9045  -2.8247  -2.8041  -2.7874  -2.7764  -2.6936
    -2.6200  -2.6076  -2.5760  -2.5472  -2.5231  -2.4348  -2.3751  -2.3520
    -2.2951  -2.2663  -2.2162  -2.1894  -2.1460  -2.1239  -2.0992  -2.0705
    -2.0518  -2.0030  -1.9677  -1.8944  -1.8719  -1.8416  -1.7819  -1.7344
    -1.6900  -1.6585  -1.6388  -1.6126  -1.5786  -1.5055  -1.4741  -1.4381
    -1.4124  -1.3609  -1.3402  -1.3078  -1.2787  -1.2531  -1.2240  -1.1807
    -1.1278  -1.1148  -1.0990  -1.0733  -1.0412  -1.0180  -0.9838  -0.9531
    -0.9466  -0.9173  -0.9037  -0.8791  -0.8641  -0.8449  -0.8177  -0.7818
    -0.7626  -0.7454  -0.7143  -0.7039  -0.6613  -0.6270  -0.5870  -0.5690
    -0.5285  -0.5066  -0.4914  -0.4640  -0.4385  -0.4085  -0.3439  -0.3075
    -0.2807  -0.2521  -0.2371  -0.2231  -0.1571  -0.1348  -0.1010  -0.0640
    -0.0102   0.0331   0.0628   0.0790   0.0996   0.1367   0.1610   0.1855
     0.2177   0.2291   0.2491   0.2922   0.3268   0.3344   0.3589   0.3979
     0.4447   0.4702   0.4956   0.5179   0.5947   0.6601   0.7055   0.7359
     0.7443   0.8235   0.8460   0.9232   0.9448   0.9541   0.9794   1.0288
     1.0501   1.0825   1.1105   1.1245   1.1770   1.1972   1.2509   1.2691
     1.2897   1.3266   1.3326   1.3751   1.4203   1.4556   1.4884   1.5268
     1.5773   1.6043   1.6642   1.7039   1.7346   1.7516   1.7724   1.8082
     1.8470   1.8683   1.9128   1.9329   1.9799   2.0161   2.0313   2.0501
     2.0687   2.0927   2.1254   2.1672   2.2196   2.2715   2.3262   2.3333
     2.3402   2.3884   2.4339   2.5784   2.6213   2.7790   2.8809   3.0135
     3.3162   3.3606   3.5272   3.6128   3.7138   3.9749   4.0476   4.1210
     4.3716   4.4961   4.6290   4.6701   4.7984   4.9565   5.0009   5.2022
     5.3296   5.6215   5.7941   5.8935   6.2798   6.3842   6.5516   6.6988
     6.9165   7.0542

          k = 0.4000-0.0000 0.0000 ( 88208 PWs)   bands (ev):

   -13.8982 -10.6175  -7.7501  -6.1819  -5.6128  -5.0699  -4.9667  -4.9134
    -4.5911  -4.4160  -3.9271  -3.9081  -3.8781  -3.8721  -3.8375  -3.8109
    -3.7682  -3.7446  -3.6962  -3.6620  -3.4216  -3.3395  -3.3123  -3.2997
    -3.2739  -3.2213  -3.2065  -3.1446  -3.1021  -3.0873  -3.0462  -3.0020
    -2.9870  -2.9629  -2.9184  -2.9036  -2.8746  -2.8288  -2.8112  -2.7682
    -2.7303  -2.6912  -2.6169  -2.4820  -2.4339  -2.3701  -2.3559  -2.3441
    -2.2964  -2.2661  -2.2522  -2.2134  -2.1677  -2.1095  -2.0813  -2.0343
    -1.9976  -1.9612  -1.8848  -1.8500  -1.8376  -1.8102  -1.7877  -1.7159
    -1.6538  -1.6132  -1.5917  -1.5520  -1.5158  -1.4860  -1.4689  -1.4329
    -1.4207  -1.3922  -1.3381  -1.2947  -1.2472  -1.2201  -1.2149  -1.1978
    -1.1545  -1.1362  -1.0477  -1.0398  -1.0235  -0.9988  -0.9501  -0.9317
    -0.9108  -0.8904  -0.8530  -0.8480  -0.8364  -0.8134  -0.7991  -0.7857
    -0.7432  -0.7184  -0.6708  -0.6560  -0.6375  -0.6013  -0.5785  -0.5592
    -0.5446  -0.5172  -0.4951  -0.4822  -0.4642  -0.4387  -0.4242  -0.4188
    -0.3732  -0.3271  -0.3023  -0.2595  -0.2495  -0.1898  -0.1238  -0.0882
    -0.0494   0.0266   0.0551   0.0756   0.1068   0.1874   0.2148   0.2238
     0.2331   0.2566   0.2980   0.3226   0.3500   0.3776   0.4204   0.4639
     0.5143   0.5473   0.5672   0.6128   0.6464   0.6857   0.7440   0.7628
     0.7999   0.8397   0.8463   0.8911   0.8964   0.9126   0.9670   1.0148
     1.0473   1.0655   1.0919   1.1275   1.1531   1.1806   1.1912   1.2213
     1.2329   1.2766   1.3514   1.3660   1.4092   1.4658   1.5670   1.6051
     1.6502   1.6729   1.7314   1.7590   1.7847   1.8134   1.8278   1.8526
     1.8909   1.9246   1.9387   1.9545   1.9624   1.9792   1.9940   2.0351
     2.0575   2.0790   2.1145   2.1320   2.1798   2.2041   2.2725   2.3093
     2.3462   2.3598   2.4109   2.4648   2.4971   2.5650   2.5862   2.8489
     3.0401   3.1384   3.3248   3.3934   3.5920   3.6802   3.7666   3.9992
     4.2869   4.4430   4.5083   4.5872   4.8006   4.9583   5.3340   5.5935
     5.8205   5.9407   6.0492   6.1684   6.3246   6.4641   6.5497   6.5943
     6.7513   6.9068

          k = 0.4000 0.2309 0.0000 ( 88196 PWs)   bands (ev):

   -13.8981 -10.6175  -7.7432  -6.0529  -5.6194  -5.4093  -4.8759  -4.6387
    -4.5127  -4.3379  -4.2782  -4.1321  -3.9669  -3.8393  -3.7378  -3.6987
    -3.6473  -3.6080  -3.5472  -3.4517  -3.4216  -3.3944  -3.3853  -3.3382
    -3.2865  -3.2465  -3.2254  -3.2089  -3.1950  -3.1619  -3.1268  -3.0870
    -3.0580  -2.9942  -2.8437  -2.8213  -2.7964  -2.7894  -2.7483  -2.6905
    -2.6384  -2.6149  -2.5605  -2.5313  -2.4735  -2.4280  -2.3794  -2.3155
    -2.2923  -2.2444  -2.2214  -2.1895  -2.1602  -2.1390  -2.0960  -2.0629
    -2.0394  -2.0021  -1.9364  -1.9087  -1.8679  -1.8360  -1.7901  -1.7214
    -1.6988  -1.6452  -1.6311  -1.6064  -1.5497  -1.5172  -1.4853  -1.4524
    -1.4061  -1.3608  -1.3378  -1.3103  -1.2782  -1.2681  -1.2214  -1.1894
    -1.1442  -1.1239  -1.0995  -1.0617  -1.0384  -1.0120  -0.9819  -0.9721
    -0.9528  -0.9271  -0.9092  -0.8902  -0.8631  -0.8446  -0.8160  -0.7919
    -0.7520  -0.7378  -0.7130  -0.7037  -0.6887  -0.6216  -0.5885  -0.5512
    -0.5448  -0.5178  -0.4748  -0.4490  -0.4190  -0.3847  -0.3611  -0.3183
    -0.2944  -0.2548  -0.2402  -0.2165  -0.1898  -0.1421  -0.0589  -0.0446
    -0.0014   0.0170   0.0495   0.0924   0.1325   0.1403   0.1619   0.1864
     0.1933   0.2226   0.2522   0.2756   0.3093   0.3311   0.3514   0.4043
     0.4545   0.4574   0.4958   0.5217   0.5594   0.6531   0.6930   0.7247
     0.7517   0.8282   0.8631   0.8881   0.9581   0.9868   0.9925   1.0393
     1.0647   1.0865   1.1137   1.1484   1.1859   1.2057   1.2463   1.2696
     1.3080   1.3265   1.3460   1.3603   1.4271   1.4758   1.4871   1.5216
     1.5700   1.6048   1.6485   1.7092   1.7364   1.7472   1.7753   1.8073
     1.8416   1.8757   1.9069   1.9388   1.9800   2.0198   2.0352   2.0498
     2.0653   2.0963   2.1164   2.1612   2.2086   2.2917   2.3191   2.3313
     2.3378   2.3855   2.4521   2.5702   2.5803   2.7441   2.9605   3.0702
     3.2165   3.3865   3.4445   3.6060   3.7586   3.8625   4.0255   4.1932
     4.3715   4.5611   4.6173   4.6851   4.7919   4.9498   4.9715   5.1537
     5.3299   5.6124   5.7399   5.9334   6.1472   6.3802   6.5731   6.6953
     6.9457   7.0803

          k = 0.4000-0.6928 0.0000 ( 88198 PWs)   bands (ev):

   -13.8979 -10.6177  -7.7389  -5.7306  -5.6461  -5.5466  -5.0681  -4.6825
    -4.6199  -4.3682  -4.2125  -3.8811  -3.8679  -3.7505  -3.7103  -3.6138
    -3.5792  -3.5237  -3.4931  -3.4805  -3.4395  -3.3850  -3.3686  -3.3569
    -3.3413  -3.3066  -3.2452  -3.1963  -3.1706  -3.1634  -3.1305  -3.1238
    -3.0497  -2.9894  -2.9240  -2.9011  -2.8899  -2.7843  -2.7674  -2.7279
    -2.7197  -2.6256  -2.5523  -2.5080  -2.4612  -2.4086  -2.3584  -2.3274
    -2.2711  -2.2540  -2.2244  -2.1756  -2.1260  -2.0607  -2.0180  -1.9864
    -1.9718  -1.9343  -1.8803  -1.8682  -1.8423  -1.7976  -1.7751  -1.7387
    -1.7099  -1.6940  -1.6655  -1.6491  -1.6149  -1.5885  -1.5653  -1.5069
    -1.4707  -1.4383  -1.4056  -1.3543  -1.3169  -1.3092  -1.2696  -1.2547
    -1.2340  -1.2059  -1.1666  -1.1455  -1.1019  -1.0733  -1.0519  -1.0255
    -0.9667  -0.9608  -0.8886  -0.8797  -0.8562  -0.8388  -0.8203  -0.7923
    -0.7147  -0.7072  -0.6668  -0.6329  -0.6138  -0.5972  -0.5757  -0.5643
    -0.5410  -0.5329  -0.5164  -0.4792  -0.4547  -0.4252  -0.4135  -0.4067
    -0.3959  -0.3734  -0.3545  -0.3136  -0.2555  -0.1807  -0.1115  -0.0894
    -0.0251   0.0102   0.0460   0.0581   0.0789   0.1084   0.1491   0.1693
     0.2187   0.2283   0.2554   0.2965   0.3062   0.3535   0.3894   0.4170
     0.4523   0.5068   0.5239   0.5771   0.6277   0.6541   0.6987   0.7557
     0.7798   0.8168   0.8386   0.8466   0.8625   0.8844   0.9304   0.9562
     1.0027   1.0237   1.0419   1.0669   1.1152   1.1375   1.1598   1.2237
     1.2828   1.3069   1.3834   1.4342   1.4638   1.5268   1.5717   1.6001
     1.6736   1.6809   1.7350   1.7609   1.8104   1.8380   1.8548   1.8868
     1.9050   1.9255   1.9627   2.0085   2.0321   2.0416   2.0567   2.0837
     2.1061   2.1274   2.1725   2.2252   2.2486   2.3198   2.3372   2.3443
     2.3663   2.4059   2.4427   2.5826   2.7052   3.0387   3.1192   3.2556
     3.4980   3.5609   3.7547   3.8294   3.9079   4.0528   4.1621   4.3230
     4.4642   4.6378   4.6585   4.8665   5.0029   5.1004   5.1930   5.2640
     5.4093   5.4550   5.6070   5.7680   5.8470   5.9537   6.3870   6.5366
     6.5963   6.6423

          k = 0.4000-0.4619 0.0000 ( 88198 PWs)   bands (ev):

   -13.8979 -10.6179  -7.7428  -5.7346  -5.6520  -5.5353  -5.0587  -4.6999
    -4.6521  -4.3130  -4.1836  -3.9170  -3.8405  -3.7534  -3.7262  -3.6208
    -3.6047  -3.5299  -3.4906  -3.4574  -3.4046  -3.3852  -3.3670  -3.3539
    -3.3234  -3.3123  -3.2603  -3.2047  -3.1699  -3.1399  -3.1236  -3.0996
    -3.0511  -2.9636  -2.9295  -2.9022  -2.8785  -2.7874  -2.7798  -2.7283
    -2.7184  -2.6943  -2.5720  -2.5350  -2.4371  -2.3824  -2.3658  -2.3501
    -2.2948  -2.2636  -2.2223  -2.1631  -2.1200  -2.0685  -2.0237  -1.9751
    -1.9638  -1.9181  -1.8976  -1.8578  -1.8419  -1.8048  -1.7900  -1.7521
    -1.7233  -1.7013  -1.6672  -1.6525  -1.6329  -1.5896  -1.5477  -1.4943
    -1.4641  -1.4443  -1.3966  -1.3685  -1.3155  -1.3032  -1.2829  -1.2599
    -1.2343  -1.2084  -1.1728  -1.1385  -1.0844  -1.0640  -1.0366  -1.0192
    -0.9924  -0.9448  -0.8937  -0.8747  -0.8542  -0.8402  -0.8268  -0.7644
    -0.7191  -0.6924  -0.6686  -0.6406  -0.6162  -0.5965  -0.5816  -0.5708
    -0.5537  -0.5310  -0.5024  -0.4894  -0.4493  -0.4336  -0.4172  -0.4042
    -0.3899  -0.3674  -0.3362  -0.3090  -0.2439  -0.1674  -0.1147  -0.0870
    -0.0439   0.0072   0.0343   0.0579   0.0768   0.1173   0.1434   0.1765
     0.2013   0.2390   0.2623   0.2924   0.3142   0.3501   0.3763   0.4207
     0.4485   0.5190   0.5416   0.5652   0.6027   0.6616   0.7074   0.7453
     0.7761   0.8035   0.8298   0.8537   0.8711   0.9047   0.9282   0.9572
     1.0018   1.0192   1.0445   1.0666   1.1113   1.1320   1.1562   1.2312
     1.2580   1.3106   1.3600   1.4418   1.5122   1.5282   1.5696   1.5959
     1.6405   1.6735   1.7349   1.7794   1.7987   1.8194   1.8617   1.8719
     1.8975   1.9251   1.9566   2.0192   2.0369   2.0393   2.0542   2.0848
     2.1039   2.1241   2.1870   2.2231   2.2707   2.3156   2.3312   2.3482
     2.3856   2.3966   2.4263   2.5822   2.6460   3.0716   3.2074   3.3050
     3.5102   3.5721   3.7334   3.7665   3.9344   3.9575   4.1610   4.3456
     4.4930   4.6382   4.6881   4.9179   5.0399   5.0903   5.2244   5.2270
     5.3776   5.4279   5.5908   5.7984   5.8610   6.0193   6.4002   6.5240
     6.5845   6.6482

     the Fermi energy is     2.1362 ev

!    total energy              =  -27814.88996326 Ry

     total all-electron energy =  -1326874.947663 Ry
     estimated scf accuracy    <       0.00000054 Ry
     smearing contrib. (-TS)   =       0.00228419 Ry
     internal energy E=F+TS    =  -27814.89224745 Ry

     The total energy is F=E-TS. E is the sum of the following terms:
     one-electron contribution =  -26618.60391148 Ry
     hartree contribution      =   13616.06414860 Ry
     xc contribution           =    -906.68706090 Ry
     ewald contribution        =   11587.97949065 Ry
     one-center paw contrib.   =  -25493.64491433 Ry

     convergence has been achieved in  20 iterations

     negative rho (up, down):  1.261E-02 0.000E+00

     Forces acting on atoms (cartesian axes, Ry/au):

     atom    1 type  1   force =     0.00065712    0.00024299   -0.00308964
     atom    2 type  1   force =     0.00080724   -0.00030331   -0.00412414
     atom    3 type  1   force =    -0.00134989   -0.00014594   -0.00571882
     atom    4 type  1   force =    -0.00033303    0.00017500   -0.00439004
     atom    5 type  1   force =     0.00051154   -0.00012694   -0.00398295
     atom    6 type  1   force =     0.00038749    0.00106613   -0.00597145
     atom    7 type  1   force =     0.00010139   -0.00134930   -0.00457074
     atom    8 type  1   force =    -0.00015491    0.00000235   -0.00363332
     atom    9 type  1   force =    -0.00002344   -0.00032631   -0.00433825
     atom   10 type  1   force =    -0.00199184   -0.00151078    0.00855726
     atom   11 type  1   force =     0.00182479   -0.00236427    0.00380854
     atom   12 type  1   force =     0.00376908   -0.00199852   -0.00176429
     atom   13 type  1   force =     0.00028391    0.00311017    0.00758307
     atom   14 type  1   force =    -0.00024517   -0.00071278    0.00156896
     atom   15 type  1   force =    -0.00008698   -0.00208910    0.00208174
     atom   16 type  1   force =    -0.00096582    0.00192470    0.00747415
     atom   17 type  1   force =    -0.00056985    0.00268947    0.00835436
     atom   18 type  1   force =     0.00193354    0.00267046    0.00399408
     atom   19 type  1   force =     0.00023688    0.00006543    0.00031343
     atom   20 type  1   force =    -0.00015815    0.00015704    0.00005562
     atom   21 type  1   force =    -0.00003650   -0.00006784   -0.00015280
     atom   22 type  1   force =     0.00005971   -0.00018089    0.00000380
     atom   23 type  1   force =    -0.00014370   -0.00008776   -0.00018953
     atom   24 type  1   force =     0.00000471   -0.00014038    0.00005124
     atom   25 type  1   force =     0.00010351   -0.00029557    0.00045390
     atom   26 type  1   force =     0.00009199   -0.00008352    0.00021197
     atom   27 type  1   force =    -0.00003000    0.00009614    0.00014636
     atom   28 type  1   force =    -0.00002794    0.00007414   -0.00024807
     atom   29 type  1   force =    -0.00013886    0.00050661    0.00043577
     atom   30 type  1   force =    -0.00005602   -0.00007809   -0.00026538
     atom   31 type  1   force =    -0.00042428    0.00023208   -0.00009873
     atom   32 type  1   force =    -0.00058447   -0.00007169    0.00061058
     atom   33 type  1   force =     0.00042330   -0.00018676   -0.00001534
     atom   34 type  1   force =    -0.00013061   -0.00022770   -0.00044944
     atom   35 type  1   force =    -0.00015995    0.00008026   -0.00001143
     atom   36 type  1   force =     0.00017744    0.00014498   -0.00004601
     atom   37 type  2   force =    -0.00066128   -0.00045770   -0.00142084
     atom   38 type  2   force =    -0.00278791    0.00021618   -0.00055586
     atom   39 type  2   force =    -0.00040445   -0.00092882   -0.00146284
     atom   40 type  3   force =     0.00026925   -0.00004700    0.00033719
     atom   41 type  3   force =     0.00017574    0.00032771    0.00029854
     atom   42 type  3   force =    -0.00035359   -0.00000090    0.00015935

     Total force =     0.004175     Total SCF correction =     0.002324
     SCF correction compared to forces is large: reduce conv_thr to get better values

     negative rho (up, down):  1.261E-02 0.000E+00

     negative rho (up, down):  1.261E-02 0.000E+00

     negative rho (up, down):  1.261E-02 0.000E+00

     negative rho (up, down):  1.261E-02 0.000E+00

     negative rho (up, down):  1.261E-02 0.000E+00

     negative rho (up, down):  1.261E-02 0.000E+00

     negative rho (up, down):  1.261E-02 0.000E+00

     negative rho (up, down):  1.261E-02 0.000E+00

     negative rho (up, down):  1.261E-02 0.000E+00

     negative rho (up, down):  1.261E-02 0.000E+00

     negative rho (up, down):  1.261E-02 0.000E+00

     negative rho (up, down):  1.261E-02 0.000E+00

     negative rho (up, down):  1.261E-02 0.000E+00

     negative rho (up, down):  1.261E-02 0.000E+00

     negative rho (up, down):  1.261E-02 0.000E+00

     negative rho (up, down):  1.261E-02 0.000E+00

     negative rho (up, down):  1.261E-02 0.000E+00

     negative rho (up, down):  1.261E-02 0.000E+00

     negative rho (up, down):  1.261E-02 0.000E+00

     negative rho (up, down):  1.261E-02 0.000E+00

     negative rho (up, down):  1.261E-02 0.000E+00

     negative rho (up, down):  1.261E-02 0.000E+00

     negative rho (up, down):  1.261E-02 0.000E+00

     negative rho (up, down):  1.261E-02 0.000E+00

     negative rho (up, down):  1.261E-02 0.000E+00

     negative rho (up, down):  1.261E-02 0.000E+00

     negative rho (up, down):  1.261E-02 0.000E+00

     negative rho (up, down):  1.261E-02 0.000E+00

     negative rho (up, down):  1.261E-02 0.000E+00

     negative rho (up, down):  1.261E-02 0.000E+00

     negative rho (up, down):  1.261E-02 0.000E+00

     negative rho (up, down):  1.261E-02 0.000E+00

     negative rho (up, down):  1.261E-02 0.000E+00

     negative rho (up, down):  1.261E-02 0.000E+00
 BEEFens 2000 ensemble energies
             -0.606840863173093E+02
             -0.362202484350505E+01
             -0.158447533024407E+02
              0.429512768699269E+02
             -0.221095751532561E+02
             -0.205328812368521E+02
             -0.352211712322717E+02
             -0.865157838100336E+02
             -0.465090587176238E+02
             -0.472781754257527E+02
             -0.369413886066047E+02
              0.225934468838336E+01
              0.407978333245484E+01
              0.762126062281786E+01
              0.266149155631007E+01
              0.474980637378128E+02
             -0.208866467320065E+02
             -0.230355678853158E+02
              0.193174262088073E+02
             -0.112385347972165E+03
              0.536402057527502E+02
             -0.289851929803676E+02
             -0.335288830147084E+01
             -0.114021602623046E+02
             -0.884633680300192E+01
             -0.464738247049132E+01
              0.882795343610333E+02
             -0.187010855300289E+02
             -0.901077275801379E+01
             -0.518567041275101E+02
              0.815717735121691E+02
             -0.187384117123460E+02
             -0.375162929754465E+02
              0.249316155269374E+02
             -0.284125989286747E+01
              0.164198490680083E+02
             -0.484756112696880E+01
              0.108026395909894E+02
              0.288369324616148E+02
             -0.103290050126550E+03
              0.558359493145973E+02
              0.142342402710730E+02
             -0.170809462398449E+01
             -0.361620572132317E+02
              0.123192600767381E+02
             -0.146656241429356E+02
              0.398602484047442E+02
              0.364824775874575E+02
             -0.308094018294956E+02
             -0.275274532835315E+02
             -0.328586837553174E+02
             -0.352064666593102E+02
              0.136201536510605E+02
             -0.491037421710264E+02
              0.115551416445653E+02
              0.623042943096947E+02
              0.635415603455394E+02
              0.355753484554572E+02
              0.154092150471188E+02
              0.270455398341562E+02
              0.891361003457185E+02
              0.212776078725943E+02
             -0.548625342271020E+02
             -0.157027371648561E+02
             -0.235972514329983E+02
              0.630054816851389E+02
             -0.773458342695330E+02
             -0.671795896738535E+02
             -0.259379045261481E+02
             -0.644610995807295E+01
             -0.471015850736831E+02
              0.270651444726722E+02
              0.801188619716652E+01
              0.868013208935059E+01
             -0.397125908400005E+02
             -0.346961200491478E+02
             -0.541921137763602E+02
              0.390532567822607E+02
             -0.296011276696405E+02
              0.265090486769361E+02
             -0.714110557219521E+01
             -0.318106103939520E+02
             -0.576403161425545E+02
             -0.176804724625466E+02
             -0.907316340777186E+01
             -0.124835204731782E+02
              0.412096446940799E+02
              0.682717049185762E+02
             -0.385595980986099E+02
             -0.794807633725358E+02
             -0.219574136201612E+02
              0.111520137447280E+03
             -0.592369190369428E+02
              0.356223303151962E+02
             -0.958133679135403E+01
             -0.663220220671736E+02
              0.254364296049305E+02
              0.397974789680885E+02
             -0.198915533095655E+02
              0.400255326874587E+02
             -0.296069399031762E+02
             -0.478238903511605E+02
              0.866040209268426E+02
              0.454152271500961E+02
              0.336405273791778E+02
              0.146562891578596E+02
              0.205652389849169E+02
              0.856573342790211E+02
             -0.256552110292697E+02
              0.787085769924823E+01
             -0.142414416707649E+03
              0.181150305164858E+02
             -0.716347517851904E+02
              0.150902107041466E+02
              0.204595872066542E+02
             -0.332896617389208E+02
             -0.557251172792165E+02
              0.655133453718668E+01
             -0.304199354756344E+02
              0.308087330014500E+02
             -0.529862067168945E+02
              0.171177529329134E+01
             -0.356985070233635E+02
             -0.424678189093174E+01
             -0.103733480898509E+01
              0.181182754555803E+02
              0.143384399447223E+01
             -0.651229123852158E+01
              0.590342734223500E+02
              0.908305352887184E+02
              0.484226889672565E+02
              0.830371520225228E+02
             -0.114997702799513E+02
              0.143333240145989E+02
              0.541026604909314E+02
             -0.110836031774834E+02
             -0.735673550256888E+02
             -0.384097590616306E+02
             -0.521721105042035E+02
             -0.276677873285019E+02
              0.327215669302709E+02
             -0.116797887827924E+03
             -0.187200528142014E+02
              0.414216096146750E+02
             -0.386270844484123E+02
             -0.365516659059228E+02
              0.544096560169339E+02
              0.400706544535856E+02
             -0.353873396742496E+02
              0.137602255308143E+02
             -0.273180402815250E+02
              0.343215740865277E+02
              0.446054230374739E+01
              0.211110391009684E+02
             -0.884682746072898E+02
             -0.480117806964912E+02
             -0.993991448209943E+01
              0.323826752552373E+01
             -0.366695072562610E+02
              0.106030344376593E+03
             -0.230836624181730E+02
             -0.398572891283110E+02
              0.388957151083155E+02
             -0.494287579099954E+02
             -0.363390507620261E+02
              0.324845638143219E+02
              0.124553357040017E+02
              0.164410300559221E+02
              0.116561212302813E+02
             -0.132881322865780E+02
              0.225057973059726E+02
              0.590065854176368E+02
             -0.311661467000181E+02
              0.162494319743778E+02
              0.934358200987816E+02
              0.340776960979472E+02
             -0.728214291816937E+01
             -0.188742918236382E+02
              0.153352367112376E+03
             -0.164179697936617E+02
              0.363262811752891E+02
              0.194477663912730E+02
              0.361629326244438E+02
              0.892138998949657E+02
              0.543072563667153E+02
             -0.241065224495500E+01
              0.227833881733743E+02
              0.485099396079522E+02
              0.363656896449594E+02
             -0.525478528759313E+02
              0.935964563006075E+02
             -0.825488159222100E+02
             -0.198181874977081E+02
              0.582869612572359E+02
              0.676286055124410E+01
              0.791151751923451E+01
              0.340857381440744E+02
              0.299129584245993E+02
              0.353626236097764E+02
             -0.637718631685602E+02
              0.287422859161029E+01
             -0.297547548443258E+02
             -0.871635353238676E+01
             -0.146689980786118E+01
             -0.723562185265729E+01
             -0.414879453267304E+01
              0.859220048458113E+02
             -0.101026462908232E+02
             -0.276417354995001E+02
             -0.496125791264473E+01
              0.140018650132012E+02
             -0.564170800175598E+02
             -0.407237004449894E+02
             -0.382059621476237E+02
             -0.630450291599765E+02
             -0.169902655255205E+02
             -0.447530524501935E+02
              0.163357635310016E+02
             -0.239714304791930E+01
             -0.104346683578767E+02
             -0.934374881939186E+01
              0.807289291507323E+01
             -0.242721398867625E+02
              0.689278818057169E+02
             -0.807126357492110E+02
             -0.141090811646018E+02
             -0.174009455353503E+02
              0.181810537269691E+02
              0.214549201499895E+02
             -0.463963658502271E+02
             -0.202061087941563E+02
              0.440850784041138E+02
             -0.276083736323030E+02
              0.187037965530457E+02
              0.382727266053293E+02
             -0.323143474744131E+01
              0.114165929516449E+03
             -0.230182474603320E+02
             -0.341057746746112E+02
              0.578338976671034E+01
             -0.228243848270196E+02
              0.527756664650626E+02
             -0.337207888866949E+02
              0.106528564709508E+02
              0.640650813165660E+02
             -0.126148975319383E+02
              0.120246556528912E+03
              0.125875341303801E+03
             -0.649851505918459E+02
              0.590627283203046E+02
              0.166564859731938E+02
             -0.517748248059599E+02
              0.216189405666762E+02
              0.353889430698160E+02
              0.362733357023292E+02
              0.135103757212948E+01
              0.159646758505314E+02
              0.695619449360609E+02
             -0.246982391292108E+02
              0.181184819713954E+02
              0.738889243068892E+02
             -0.372502918374856E+02
             -0.129701295900514E+02
              0.508603271870785E+02
              0.297464918889493E+02
              0.780500321939694E+02
              0.222611741509413E+02
              0.624747306016985E+01
              0.280415240979297E+02
              0.383251457691732E+02
             -0.471690385225808E+02
              0.331759995673059E+01
              0.129735960798286E+02
              0.113896519242973E+02
              0.220500907614262E+02
             -0.574769288599591E+02
              0.366218134634305E+02
             -0.443993083419922E+02
             -0.347414101888068E+02
              0.177968242579380E+02
             -0.181311090039507E+02
              0.555256189743763E+02
             -0.256158679576058E+02
              0.266822847781006E+02
              0.368363671367526E+02
              0.829285588873032E+02
              0.574603855583661E+02
              0.461599789924828E+02
             -0.105560847192607E+02
             -0.392309113507332E+01
             -0.331910338850400E+02
              0.750670891831189E+02
              0.797275012815854E+02
              0.361989761324728E+02
             -0.191989533300446E+02
              0.511932772461059E+02
             -0.162739730750353E+02
              0.214717851667452E+02
              0.614467849527599E+02
              0.215433318672729E+01
             -0.104315899670815E+02
             -0.283017013452517E+02
             -0.511626118898747E+02
              0.945483533241429E+02
              0.439715592612814E+02
             -0.559252361249488E+02
             -0.964556512950870E+01
              0.249823764122720E+02
             -0.995285471386481E+01
              0.592235730731378E+02
              0.152293898781128E+02
              0.799404147080065E+02
              0.279446291820663E+02
             -0.264139299892933E+02
              0.249141763971129E+02
             -0.502232320696601E+01
             -0.323750489836715E+02
              0.133222137665373E+02
              0.205789275416960E+02
              0.932840128628772E+02
              0.797401282244026E+02
              0.551003536702912E+02
              0.730846682020215E+02
              0.799206047971060E+01
             -0.273724824715969E+02
              0.163247060911121E+02
             -0.367983585920041E+02
             -0.476323227907893E+02
             -0.563654135947686E+02
             -0.266535521440360E+02
             -0.109697141414257E+03
             -0.291479314858064E+02
             -0.837311002199589E+02
              0.210134578887303E+02
             -0.476946976850491E+02
              0.396872333925514E+02
             -0.941405531571076E+02
             -0.330202911271769E+02
              0.548568966308732E+02
              0.207802780002430E+02
             -0.830806601594433E+02
              0.631165733833451E+02
             -0.256822290601697E+02
              0.512423597414629E+02
             -0.242631434690681E+02
             -0.751425464148335E+02
              0.111929839170452E+02
             -0.611372622891632E+02
             -0.168066087177539E+02
             -0.147883484291232E+01
              0.418251807761370E+02
              0.127023505510403E+03
             -0.461770825607539E+02
             -0.362825010830505E+02
             -0.971738966393218E+00
             -0.130120869417797E+02
             -0.822764874654161E+02
             -0.596756552333342E+02
              0.517319066631062E+02
             -0.288931562726083E+02
              0.169472133431144E+02
             -0.489447496135213E+02
             -0.131901641374280E+02
             -0.437303085715210E+02
              0.565673096389688E+02
              0.151216606774841E+02
             -0.231727525653189E+02
             -0.126940239576710E+02
              0.667061383685569E+01
             -0.617863597649233E+01
              0.441632473939350E+02
             -0.251992197078978E+02
              0.275690882597723E+01
              0.339312322244471E+02
              0.171325158209658E+02
             -0.159740950907371E+02
              0.156292663369229E+03
              0.537949805247014E+02
              0.118315574618859E+01
              0.161755478477295E+02
             -0.614669402042148E+02
              0.315100301458604E+02
             -0.721963280902746E+02
             -0.252270076476370E+02
             -0.522743249081915E+02
             -0.220113284044129E+02
              0.569349955466920E+02
             -0.537016014126388E+02
              0.160931254443743E+02
             -0.408890474131920E+01
              0.387892779849074E+01
             -0.433881844850039E+02
             -0.478438307252727E+02
             -0.400386348042525E+01
             -0.424947154624186E+02
             -0.217324205202996E+02
             -0.438548080373293E+02
             -0.119278061529681E+02
             -0.358963282727914E+02
             -0.516561419223062E+02
              0.212615398956903E+02
             -0.209249203205933E+02
              0.187808925141496E+02
              0.974005042791262E+01
             -0.738097992714479E+02
             -0.548129018809955E+02
             -0.398257578791865E+02
              0.354139273863466E+02
              0.269637868105838E+01
             -0.626640027587195E+02
              0.585706855443690E+02
             -0.401230270956113E+02
              0.545051573916259E+02
             -0.289527921175652E+02
             -0.445961240252723E+02
              0.298647162572760E+02
             -0.657885706281977E+02
             -0.379831928767022E+02
              0.672544362931211E+02
              0.204021806807258E+02
             -0.360061349681906E+02
              0.489283835715770E+02
             -0.173936428442689E+02
             -0.322766242731813E+02
             -0.301726319132297E+02
             -0.500743716204671E+02
              0.249387691285215E+02
             -0.933078646667243E+02
             -0.840198039818750E+02
             -0.734224680732314E+01
             -0.306918072965827E+02
             -0.575598446045591E+02
              0.722037076900457E+02
              0.131552603846994E+03
             -0.360884328987615E+02
             -0.256448521545508E+01
             -0.636969599467905E+02
              0.650822853795974E+02
              0.170675066619319E+02
             -0.181468501507206E+02
             -0.410082261628390E+02
              0.148705237835753E+02
             -0.586234382372038E+02
             -0.197670775951542E+02
             -0.904734156599533E+02
              0.336964536314164E+02
              0.168908322548126E+02
              0.183568085470370E+01
             -0.706429498801992E+01
             -0.329569104419804E+02
             -0.758574240500968E+01
              0.125531678717898E+03
             -0.199155712524023E+02
             -0.437365548236010E+02
             -0.684057325083248E+02
              0.109210853453170E+02
             -0.342200128921057E+02
              0.590497841958253E+01
              0.261536617684533E+02
              0.102098819427361E+02
              0.277929049123796E+02
              0.119898330649615E+02
              0.629777442545089E+02
              0.316860793780788E+02
             -0.326652102701997E+02
              0.355810487741819E+02
              0.379542175561995E+02
              0.120906073183315E+02
              0.486828701055144E+02
             -0.224917527311698E+02
              0.765819176588108E+02
              0.172437320737338E+02
             -0.272250859859689E+02
             -0.721707571325186E+01
             -0.186400004684473E+02
              0.261892255237443E+02
             -0.234640477545837E+02
             -0.129752854485957E+00
             -0.848000668033762E+01
              0.810059405661573E+02
              0.500059206980102E+02
             -0.687136684570952E+02
             -0.475468541767106E+01
             -0.555415521223496E+02
             -0.159599343144399E+02
             -0.268133752876478E+02
              0.375740108894183E+01
              0.584648586244557E+00
             -0.257506741276542E+02
              0.814225139296809E+01
             -0.603095057767487E+01
             -0.128419861117912E+02
              0.859245942012876E+02
              0.181903903379247E+02
             -0.807182246022168E+02
             -0.458358631547011E+02
              0.945121212443196E+02
              0.277801555453005E+02
             -0.106864278004639E+02
              0.104569651307437E+03
             -0.194961210688372E+02
             -0.123087531827977E+02
             -0.538976533288053E+01
              0.107310408124474E+02
              0.272515838255972E+02
              0.780052811113541E+01
              0.305405460995361E+02
             -0.188084935082146E+02
             -0.303830759772056E+02
             -0.417910575946935E+02
             -0.476820585535884E+02
              0.464028451622085E+02
              0.126869492994768E+02
              0.387578471206034E+02
              0.133448296906361E+02
              0.855739334970427E+02
              0.156558132775815E+02
             -0.846262871513412E+02
             -0.334407850547087E+02
              0.133743332417851E+02
             -0.302824695035784E+02
              0.626641664776293E+02
             -0.886211393431699E+01
              0.148862669610003E+02
              0.497345125163110E+02
             -0.707578907641780E+02
              0.149753003121623E+03
              0.208630345021903E+02
              0.271462316487308E+02
              0.347649853772900E+02
              0.103523436992443E+02
             -0.157991356445285E+01
              0.358440796553566E+02
             -0.357018742399802E+02
              0.773460425784610E+02
              0.684928140809332E+02
             -0.405979968829584E+02
              0.149308455190611E+02
              0.670327992963838E+02
             -0.224009593393352E+02
              0.154483601581800E+02
              0.435094708883573E+02
              0.422330221152866E+02
             -0.784792061540867E+02
             -0.152630249451195E+02
             -0.356141336876627E+02
             -0.147725190324411E+01
             -0.763876289950556E+01
             -0.544375141241574E+01
             -0.180725919355977E+02
             -0.293697113352048E+02
              0.633511466278510E+01
              0.111770935667692E+02
              0.535654293219879E+02
             -0.390351544840914E+02
              0.374488354881788E+02
              0.438503945042581E+02
             -0.186630309075119E+02
              0.872360900531717E+02
             -0.698075548064251E+02
             -0.103205924177154E+03
             -0.660836537306246E+01
             -0.267972591010073E+01
              0.385573105915739E+01
              0.789644501133242E+02
             -0.107045816270118E+02
              0.416746257625978E+02
              0.443672067231569E+02
              0.385499575694096E+02
             -0.995337325162654E+01
              0.627696520059978E+02
             -0.133679171617041E+02
             -0.307479635160672E+02
             -0.479197385318680E+02
              0.588210169819241E+01
              0.369481348809232E+02
             -0.603444446972853E+01
              0.393102145507796E+02
             -0.177942632998867E+01
              0.655376816791956E+02
              0.187471300729537E+02
              0.999502881498269E+01
             -0.121620003577390E+02
              0.332178770438893E+02
              0.362880609644570E+02
              0.232784142719689E+02
             -0.516529495709079E+00
             -0.550622180381336E+02
              0.260892193684709E+02
              0.175292086544482E+02
              0.402615537841220E+02
              0.272318132589789E+02
              0.372676689560740E+02
             -0.605610026791177E+01
              0.251078914903403E+02
             -0.298739404382143E+02
             -0.196547789959391E+01
             -0.569305123480952E+02
             -0.308241650116018E+02
              0.378859784605628E+02
             -0.935731838892220E+02
              0.294437373994518E+02
              0.183971795023525E+02
              0.840406168875831E+02
             -0.300467741244839E+02
              0.329436737141365E+02
             -0.137860335757156E+02
             -0.464178658049606E+02
             -0.761845058134801E+02
             -0.526437571951320E+01
             -0.860013486825024E+02
              0.199761735675302E+02
             -0.247524382615072E+02
              0.305954306844099E+02
              0.237038445580127E+02
             -0.241098954133278E+02
             -0.265286238264209E+02
              0.391070680976306E+02
             -0.588254743664822E+02
             -0.116695743113319E+02
             -0.196132861454422E+02
              0.212640825427250E+02
             -0.890609823066148E+01
              0.363824576686673E+01
             -0.200600875992919E+02
              0.558987087906186E+02
             -0.439592416899035E+02
              0.786517011819308E+01
              0.585437864062791E+02
             -0.323447675322360E+02
              0.360712006871859E+01
             -0.881556776977720E+01
             -0.669499734548828E+02
             -0.482668874784966E+02
             -0.860999416812681E+01
              0.240881399607325E+02
              0.302519720514310E+02
              0.857936827013725E+01
             -0.417013575916201E+01
              0.151897855584362E+02
             -0.439928225657297E+02
              0.333560692545149E+01
             -0.531134554277790E+02
             -0.324929558379120E+02
              0.474928718327380E+02
             -0.295285350609676E+02
              0.622580216726499E+02
             -0.214578563630109E+02
              0.353781377722456E+02
              0.241718244693898E+02
             -0.644162565950344E+02
             -0.280488759143681E+02
              0.934266154204451E+01
             -0.371949074622360E+02
             -0.339686283999561E+02
             -0.830371194962397E+02
             -0.539386425804328E+02
             -0.510560661489258E+02
             -0.415736292176238E+02
             -0.987976256754393E+00
              0.997313041241227E+01
              0.104055098628189E+01
              0.153347988738207E+02
             -0.549507991362663E+02
              0.141792150686246E+02
              0.256683547571838E+02
             -0.666904306495559E+02
             -0.702106337697727E+02
             -0.431388704914687E+02
             -0.172092955461736E+02
              0.178494124514794E+02
              0.455297120302441E+01
             -0.426146584593779E+02
              0.366347872001337E+02
             -0.216227789380475E+02
              0.517581974854684E+02
             -0.887563089188469E+02
              0.597933615673105E+02
             -0.213631537748151E+01
             -0.368389890738746E+02
             -0.216587680141566E+02
              0.472257403323530E+01
              0.374884971317210E+02
             -0.756358234824317E+02
             -0.120918909620029E+02
             -0.216630136756461E+02
              0.511131705452197E+02
              0.864987052016024E+02
             -0.965461843488347E+02
              0.944270413489398E+02
              0.467860032128708E+02
             -0.725667386185011E+02
             -0.366665034112821E+02
              0.752045602347748E+02
              0.632115337820925E+02
             -0.180921673438039E+02
             -0.463636429831462E+01
              0.732591947904299E+01
              0.649252156682005E+02
             -0.508583715570336E+02
              0.158423281919706E+02
             -0.473307858259955E+01
              0.347793472080609E+02
             -0.747145236171427E+02
             -0.648285074474373E+01
             -0.351050626889691E+02
              0.460814961763361E+02
              0.468907876662984E+02
             -0.862171962524408E+02
             -0.487232746487134E+02
             -0.256278496674910E+02
             -0.339527556013049E+02
             -0.109358321820517E+02
             -0.242783475016865E+02
              0.427389594026513E+02
              0.401266452674606E+02
             -0.564281620950561E+01
             -0.416444424047202E+02
             -0.850687888164393E+02
              0.443329300582474E+02
             -0.523334509505161E+02
             -0.313178513821875E+02
              0.547382556379874E+01
             -0.322699533697211E+02
             -0.398164408753479E+02
             -0.240153273642952E+02
             -0.385448042308282E+02
             -0.270982369260981E+02
             -0.482619088708220E+02
              0.563999686610058E+02
              0.638168150813485E+02
[...]
              0.283495395188836E+02
              0.141830824225993E+03
              0.242219211612594E+02
              0.122567780446947E+02
             -0.464521012553967E+02
             -0.637855996157213E+02
             -0.188874346160037E+02
              0.329438185764775E+02
             -0.426660224175487E+01
              0.189893117728774E+02
              0.336254373452498E+02
             -0.586732395739301E+02
              0.222343997038515E+02
              0.582093044004902E+02
              0.553022618172396E+02
             -0.421030059439232E+01
             -0.137008687958019E+01
             -0.992652606349549E+01
             -0.482239162946266E+02
             -0.675069430642361E+02
              0.785509515657356E+02
             -0.524194588923697E+01
             -0.587874580123612E+02
              0.172651551754868E+01
             -0.205297993949615E+02
              0.938380491872799E+02
             -0.216613756257356E+02
             -0.353701772333120E+02
              0.335192392787224E+02
             -0.145745241619101E+02
              0.389612952208368E+02
             -0.237408275797128E+01
              0.101088039124885E+03
              0.489812820797014E+02
             -0.508339473034319E+01
             -0.322066077075382E+02
              0.232252001173022E+02
             -0.528560980337782E+02
             -0.127956370466900E+02
              0.585749840799392E+02
             -0.287692333755466E+02
             -0.438406023604805E+02
             -0.223290661278587E+02
              0.518807508039333E+02
              0.124848615843985E+02
             -0.848762878902996E+02
              0.303739855910356E+02
              0.151914371425500E+02
              0.576331280341708E+01
             -0.513459803631924E+02
             -0.377260795021812E+01
              0.323191923179710E+02
              0.512680835811817E+02
              0.632642434267064E+02
              0.229028546711050E+02
              0.783789366129554E+00
             -0.498007011593088E+02
             -0.509912551457270E+02
             -0.747815354757570E+02
             -0.615412906915128E+01
              0.308923221925394E+02
             -0.375892191371361E+01
              0.546971654938890E+02
             -0.317970138708604E+02
              0.166700853109614E+02
             -0.102620598966212E+02
             -0.289418202480464E+02
              0.585516797579068E+02
              0.791950343067975E+01
              0.604241191099832E+02
              0.507587465261133E+01
              0.264996807002867E+02
             -0.192776038045858E+02
              0.586165378678659E+02
             -0.111312180406104E+02
             -0.134146551251057E+00
             -0.790155761351171E+02
             -0.128287601714899E+02
              0.718997292042710E+02
              0.673127701885892E+02
              0.251954819398630E+02
             -0.130487237263979E+02
              0.344001525166053E+01
             -0.173590282609958E+02
             -0.206805698345167E+01
              0.907763654447318E+02
              0.125560534227429E+01
             -0.190502629385743E+02
             -0.110754104593360E+03
             -0.552567397698405E+02
             -0.374941968451714E+02
             -0.658595571094448E+02
             -0.555447623956240E+02
             -0.682527606679608E+02
             -0.447061423681801E+02
             -0.410874922389477E+02
             -0.451930989635952E+02
              0.483375810825060E+02
             -0.294172672580605E+02
             -0.995320887092927E+02
              0.418747677479427E+02
             -0.259979510316330E+02
             -0.790944453695327E+02
              0.943842799300112E+02
             -0.219686402143297E+02
              0.228083514582123E+02
              0.454980744126303E+02
             -0.135204319281297E+01
              0.254424674472935E+02
              0.469271543800755E+01
              0.422291386326314E+00
             -0.150466375505540E+02
             -0.715536621652440E+02
              0.133058610435198E+02
             -0.129371768843441E+03
              0.624067638888673E+02
             -0.440566875832292E+02
             -0.163110301197908E+02
             -0.158383072093947E+02
              0.714413166993844E+01
             -0.227676575550637E+02
              0.297136822073961E+02
             -0.520678549529127E+02
              0.367094204708387E+02
              0.370656673475897E+02
              0.168458035588365E+02
              0.100344371328038E+02
              0.197806530693954E+02
              0.622410373622409E+01
              0.310361068626739E+02
             -0.796881616143119E+01
             -0.592257108960780E+02
              0.756743956551594E+01
             -0.152679981409154E+02
             -0.192161910789008E+01
              0.506129878390241E+02
             -0.826704907486426E+02
             -0.150730518888065E+01
              0.580909403284977E+00
              0.995486286756511E+01
              0.318489751235989E+02
             -0.123559789710949E+02
              0.835823725159678E+02
              0.487509211121547E+02
             -0.183220403961272E+02
             -0.956823642503423E+01
              0.105987466821523E+01
              0.769553829662992E+02
             -0.586283074581493E+02
             -0.105753597592130E+03
              0.309043296882815E+02
             -0.163085526130064E+02
             -0.139255142913965E+02
              0.130669239286738E+02
              0.768427915382746E+02
              0.464053120771131E+02
             -0.153466033060034E+02
             -0.503019114971802E+02
             -0.550074933021041E+01
              0.306389784243293E+02
             -0.111550670847988E+02
             -0.755785207098218E+02
             -0.271613870877547E+01
             -0.889932522860907E+02
             -0.475687045904970E+02
              0.768547565098691E+02
             -0.483456458236453E+02
             -0.636468633862551E+02
             -0.514172021468137E+02
             -0.349800382635023E+02
              0.340648939573342E+02
              0.821478440208155E+02
             -0.356837281554215E+01
              0.276612811522116E+02
             -0.183725020603621E+02
             -0.693989311283722E+02
              0.464946171949344E+02
             -0.444950022752562E+02
              0.321670007658393E+02
              0.376202377671613E+02
             -0.655601334421328E+01
              0.390416803580387E+02
              0.438263218083965E+02
              0.100661315912017E+03
             -0.155957354924212E+02
             -0.456177479803419E+02
             -0.612854130525440E+02
             -0.124088258861954E+02
             -0.232919311955411E+02
              0.102998159227750E+03
             -0.448818453256377E+02
              0.105238533677458E+02
              0.971871310319335E+01
             -0.264609793196924E+02
             -0.798675006913053E+02
             -0.698212037291381E+01
              0.979746802257260E+02
              0.938540826250266E+01
              0.808304238668734E+01
             -0.527018188945179E+02
             -0.605547892097495E+02
             -0.564177995186135E+01
              0.500505969296750E+02
             -0.221796072843137E+02
              0.107963563218524E+03
             -0.435317425939102E+02
              0.146345254193753E+02
             -0.224220505190551E+02
             -0.718429249906246E+02
              0.168725790828802E+01
             -0.501692147898780E+02
             -0.760616621967424E+02
              0.615701062560026E+01
              0.237820118286862E+01
              0.514042990557350E+02
              0.187288018053518E+02
             -0.323520068371131E+02
              0.229912699935765E+02
             -0.810823432174251E+02
             -0.521782444361839E+02
              0.901653620946284E+02
              0.142402905872969E+02
             -0.187939516571536E+02
             -0.352293535198564E+02
             -0.268938267712861E+01
             -0.587882491222433E+01
              0.829844111913084E+02
              0.417522739183341E+02
             -0.166057570705709E+02
             -0.121799210584206E+02
             -0.427495710161792E+02
             -0.200578169875033E+02
             -0.669990555031865E+02
              0.459517546806079E+02
              0.545530371784457E+01
              0.144847024997607E+02
              0.156143577475958E+02
             -0.573124893680113E+00
             -0.168399219616171E+02
             -0.307213614506458E+01
             -0.100426290187060E+03
             -0.229752266860687E+02
             -0.764182174300709E+01
             -0.948184460103062E+01
              0.546522983846905E+02
              0.623707411671375E+02
              0.164867840669741E+02
             -0.970442952136406E+02
              0.647599707500146E+02
             -0.215005422000787E+02
             -0.377025442516527E+02
             -0.864134679498871E+02
             -0.386761965633024E+02
              0.564444509548918E+02
              0.244006838430153E+02
              0.512319093275988E+01
              0.292224041578474E+02
             -0.564791880549799E+02
             -0.422288823950469E+02
              0.515220004613108E+02
              0.387222657833033E+02
              0.518879800530627E+02
             -0.121371707566874E+01
              0.684859753133259E+01
              0.569388571537190E+02
              0.962584941456157E+02
             -0.300202441012497E+02
              0.322759712518484E+02
             -0.118516408408914E+02
             -0.411981055282830E+02
             -0.314192775121084E+02
             -0.300080763831137E+02
             -0.131411282383020E+02
             -0.523474557117312E+02
             -0.217160389985974E+02
             -0.141136534947764E+03
              0.368667418459965E+02
              0.206899742838057E+02
             -0.393845383482859E+01
             -0.379986077954549E+02
             -0.204197890123742E+02
             -0.526854755983331E+02
              0.150971301129069E+02
              0.819880737189907E+02
             -0.252110067194302E+02
             -0.163013036232342E+02
              0.238174299505184E+02
             -0.489170330173272E+02
              0.880280881311600E+02
              0.154351514164560E+02
              0.226204181171718E+02
              0.490311830075551E+02
              0.320818775783152E+01
              0.542129192752975E+02
              0.143050866085657E+02
             -0.106460855649501E+02
              0.733645622896654E+01
              0.803870476824159E+00
              0.727126377620498E+02
              0.100932203208998E+02
              0.120495244874573E+02
             -0.129918533391991E+02
              0.132137703134180E+02
             -0.911067907367737E+02
             -0.325699162699506E+02
             -0.457361948746460E+02
              0.485230623615105E+02
             -0.291099102919993E+02
             -0.658278246737430E+02
              0.538424828472813E+02
             -0.121960086833779E+02
              0.440014219035973E+02
             -0.898500568884946E+02
              0.231910250785824E+02
              0.857908227945629E+01
              0.584412908162597E+01
             -0.833080421096201E+01
             -0.903815164512366E+01
              0.479172263169119E+02
              0.199331777310186E+01
             -0.475152971290778E+02
             -0.176052387065132E+02
              0.276582810455706E+02
             -0.117896844256329E+03
             -0.929597726506015E+02
              0.396227451512289E+01
              0.117685815846917E+02
             -0.413121011457994E+02
             -0.387358183890859E+01
              0.112092619175672E+03
              0.306563148137174E+02
             -0.571484085156955E+02
              0.925335252678786E+01
             -0.965196738883779E+01
              0.105481601506984E+02
             -0.337602471359401E+02
              0.195350943749406E+02
              0.284568984949833E+02
             -0.301310988958335E+01
              0.108166294070847E+03
             -0.140095822183582E+02
             -0.315824134115951E+02
              0.143027855827854E+02
              0.466438803204078E+02
             -0.355633417557254E+02
             -0.318403691957263E+01
              0.964559678943101E+02
             -0.463850101713410E+01
              0.621546054271825E+02
              0.135390854588697E+02
             -0.902986200191253E+01
             -0.305320372349731E+02
              0.566532029352555E+02
             -0.514200399803488E+02
             -0.219755898171087E+01
             -0.170025393245409E+02
             -0.405079710963073E+02
              0.184815996659988E+02
              0.239124766312382E+02
              0.115969835587082E+02
              0.723941252900318E+00
             -0.384633486519654E+02
              0.215505947036352E+02
             -0.673823965561149E+01
             -0.246569400847506E+02
             -0.210580521804327E+02
              0.203301484691672E+02
             -0.594868661051612E+01
             -0.349135073438532E+02
             -0.106598439081929E+03
              0.102956949805765E+02
              0.248560675084686E+02
             -0.387211635999388E+02
             -0.210961182726986E+02
              0.806876007663479E+02
              0.651319004669648E+01
              0.310890851613774E+02
              0.391975438108918E+01
              0.321904062717943E+02
              0.644635696225680E+01
             -0.372963080791834E+02
             -0.231877453626473E+01
              0.876575861468342E+01
              0.273800885605949E+02
              0.781786747524231E+02
              0.507391420214895E+02
              0.177123930061157E+00
              0.168917499422192E+02
              0.613080100094670E+02
              0.235939564612594E+02
             -0.752740673124986E+02
             -0.273590642835525E+02
              0.150864237590451E+02
              0.562602513645487E+01
              0.255150938788483E+02
             -0.547668323641500E+02
              0.899441061946018E+01
              0.385803034012764E+02
              0.497995401438054E+02
             -0.434964673574195E+02
             -0.690267765111997E+01
             -0.208409791848862E+01
             -0.133829488838228E+02
             -0.365645904378543E+02
             -0.215239682585336E+02
             -0.202856176274427E+01
              0.792520685456611E+01
              0.421273996565508E+02
             -0.308468597926008E+02
              0.826020694912399E+02
              0.327557438125219E+02
              0.219659285910424E+02
              0.332855939999731E+02
              0.323077185959877E+02
              0.346036840562457E+02
              0.537151181711108E+02
             -0.433782213581801E+02
              0.619470355761088E+02
             -0.112238361152762E+03
              0.307339225515950E+02
             -0.106512814317782E+03
              0.854648999875261E+02
              0.690542872239758E+02
             -0.109905439816475E+02
             -0.493125287753506E+02
             -0.429406521900962E+02
             -0.623403950371621E+02
             -0.628683540741209E+02
              0.551654701503443E+02
              0.405516850949667E+02
              0.236889117035647E+02
              0.373745523808921E+02
              0.403239052933627E+02
             -0.382098171364996E+02
             -0.197838462764020E+02
              0.586339796388775E+02
             -0.115941453502087E+02
              0.551601377132898E+02
              0.699427718201487E+02
             -0.554128589292595E+01
             -0.706225610044911E+02
             -0.907592175702575E+00
             -0.246092761845406E+01
             -0.882939311512132E+01
             -0.178807776433945E+01
             -0.652837035760643E+02
             -0.210765986763651E+02
              0.538897054981860E+01
              0.898062208395280E+01
              0.468905410696497E+02
             -0.397825038312291E+02
              0.657224710001625E+02
             -0.425287316485241E+02
              0.210331129522829E+02
              0.350354960368466E+02
 
 BEEF-vdW xc energy contributions
           1 :   -782.920508897514     
           2 :    719.413805894942     
           3 :   -609.306070326700     
           4 :    479.463312809887     
           5 :   -357.357185949079     
           6 :    262.909127631961     
           7 :   -203.892405078543     
           8 :    175.842436353307     
           9 :   -166.068493354826     
          10 :    159.851046798162     
          11 :   -146.281716015931     
          12 :    121.534208583182     
          13 :   -88.7132283490781     
          14 :    54.9133174528713     
          15 :   -27.1873595520834     
          16 :    9.26032382647634     
          17 :  -0.264341817881018     
          18 :   -4.26247757107183     
          19 :    9.84731860393424     
          20 :   -20.3614767767606     
          21 :    36.3569007505142     
          22 :   -55.1100555935727     
          23 :    72.1782154372345     
          24 :   -83.6179808006689     
          25 :    87.7771572608737     
          26 :   -85.8750311017099     
          27 :    81.2038330100427     
          28 :   -77.4328205627394     
          29 :    76.8682107277890     
          30 :   -79.4863833860175     
          31 :   -85.8950669614311     
          32 :   -65.8770403380207     

     Writing output data file ./pwscf.save/
 
     init_run     :    359.77s CPU    364.16s WALL (       1 calls)
     electrons    :  14987.48s CPU  15121.22s WALL (       1 calls)
     forces       :    107.61s CPU    108.86s WALL (       1 calls)

     Called by init_run:
     wfcinit      :    309.74s CPU    313.18s WALL (       1 calls)
     potinit      :     46.90s CPU     47.23s WALL (       1 calls)
     hinit0       :      1.17s CPU      1.20s WALL (       1 calls)

     Called by electrons:
     c_bands      :  12578.92s CPU  12683.50s WALL (      21 calls)
     sum_band     :   1738.63s CPU   1751.64s WALL (      21 calls)
     v_of_rho     :    114.16s CPU    118.56s WALL (      21 calls)
     newd         :     32.93s CPU     44.68s WALL (      21 calls)
     PAW_pot      :    149.47s CPU    149.48s WALL (      21 calls)
     mix_rho      :    421.11s CPU    421.89s WALL (      21 calls)
     vdW_kernel   :     35.63s CPU     35.64s WALL (       1 calls)

     Called by c_bands:
     init_us_2    :     84.23s CPU     84.55s WALL (     572 calls)
     cegterg      :  11747.76s CPU  11851.95s WALL (     273 calls)

     Called by *egterg:
     cdiaghg      :    120.47s CPU    120.55s WALL (    1508 calls)
     h_psi        :   7579.76s CPU   7616.45s WALL (    1534 calls)
     s_psi        :   1238.15s CPU   1238.29s WALL (    1534 calls)
     g_psi        :     19.00s CPU     19.02s WALL (    1248 calls)

     Called by h_psi:
     h_psi:calbec :   1171.52s CPU   1171.82s WALL (    1534 calls)
     vloc_psi     :   5136.38s CPU   5138.69s WALL (    1534 calls)
     add_vuspsi   :   1242.34s CPU   1242.59s WALL (    1534 calls)

     General routines
     calbec       :   1705.52s CPU   1705.88s WALL (    1859 calls)
     fft          :     51.66s CPU     51.68s WALL (    3281 calls)
     ffts         :    132.45s CPU    132.49s WALL (    8868 calls)
     fftw         :   5166.71s CPU   5168.13s WALL (  361764 calls)
 
     Parallel routines
 
     PWSCF        :      4h19m CPU      4h21m WALL

 
   This run was terminated on:  17:36:13   9Jan2023            

=------------------------------------------------------------------------------=
   JOB DONE.
=------------------------------------------------------------------------------=
