
     Program PWSCF v.6.7MaX starts on  3Jan2023 at 22:29:43 

     This program is part of the open-source Quantum ESPRESSO suite
     for quantum simulation of materials; please cite
         "P. Giannozzi et al., J. Phys.:Condens. Matter 21 395502 (2009);
         "P. Giannozzi et al., J. Phys.:Condens. Matter 29 465901 (2017);
          URL http://www.quantum-espresso.org", 
     in publications or presentations arising from this work. More details at
     http://www.quantum-espresso.org/quote

     Parallel version (MPI), running on     1 processors

     MPI processes distributed on     1 nodes
     Reading input from cchch3-bi-ensemble.in
Warning: card &CELL ignored
Warning: card / ignored

     Current dimensions of program PWSCF are:
     Max number of different atomic species (ntypx) = 10
     Max number of k-points (npk) =  40000
     Max angular momentum in pseudopotentials (lmaxx) =  3
     file Pt.pbe-n-kjpaw_psl.1.0.0.UPF: wavefunction(s)  6S 5D renormalized
     file C.pbe-n-kjpaw_psl.1.0.0.UPF: wavefunction(s)  2S 2P renormalized
     file H.pbe-kjpaw_psl.1.0.0.UPF: wavefunction(s)  1S renormalized

     **************************************************************************
     Initializing libbeef V0.1.2 with the BEEF-vdW functional.
     Citation: Wellendorff et al., PRB 85, 235149 (2012).
     **************************************************************************


     IMPORTANT: XC functional enforced from input :
     Exchange-correlation= BEEF-VDW
                           (   1   4  43  14   2   0   0)
     Any further DFT definition will be discarded
     Please, verify this is what you really want


     Subspace diagonalization in iterative solution of the eigenvalue problem:
     a serial algorithm will be used

 
     G-vector sticks info
     --------------------
     sticks:   dense  smooth     PW     G-vecs:    dense   smooth      PW
     Sum        4267    4267   1159               739767   739767  104253
 


     bravais-lattice index     =            0
     lattice parameter (alat)  =      16.0349  a.u.
     unit-cell volume          =   11778.0026 (a.u.)^3
     number of atoms/cell      =           43
     number of atomic types    =            3
     number of electrons       =       376.00
     number of Kohn-Sham states=          226
     kinetic-energy cutoff     =      60.0000  Ry
     charge density cutoff     =     240.0000  Ry
     scf convergence threshold =      1.0E-06
     mixing beta               =       0.7000
     number of iterations used =            8  local-TF  mixing
     Exchange-correlation= BEEF-VDW
                           (   1   4  43  14   2   0   0)

     celldm(1)=  16.034858  celldm(2)=   0.000000  celldm(3)=   0.000000
     celldm(4)=   0.000000  celldm(5)=   0.000000  celldm(6)=   0.000000

     crystal axes: (cart. coord. in units of alat)
               a(1) = (   1.000000   0.000000   0.000000 )  
               a(2) = (   0.500000   0.866025   0.000000 )  
               a(3) = (   0.000000   0.000000   3.298722 )  

     reciprocal axes: (cart. coord. in units 2 pi/alat)
               b(1) = (  1.000000 -0.577350  0.000000 )  
               b(2) = (  0.000000  1.154701  0.000000 )  
               b(3) = (  0.000000  0.000000  0.303148 )  


     PseudoPot. # 1 for Pt read from file:
     /users/bkreitz1/quantum-espresso/potentials/Pt.pbe-n-kjpaw_psl.1.0.0.UPF
     MD5 check sum: 04dc8a03c51ece93fc7b5889c2958091
     Pseudo is Projector augmented-wave + core cor, Zval = 10.0
     Generated using 'atomic' code by A. Dal Corso  v.6.7MaX
     Shape of augmentation charge: PSQ
     Using radial grid of 1277 points,  6 beta functions with: 
                l(1) =   0
                l(2) =   0
                l(3) =   1
                l(4) =   1
                l(5) =   2
                l(6) =   2
     Q(r) pseudized with 0 coefficients 


     PseudoPot. # 2 for C  read from file:
     /users/bkreitz1/quantum-espresso/potentials/C.pbe-n-kjpaw_psl.1.0.0.UPF
     MD5 check sum: a169b0ebad56f5ec0d79c4633f80bf22
     Pseudo is Projector augmented-wave + core cor, Zval =  4.0
     Generated using 'atomic' code by A. Dal Corso  v.6.7MaX
     Shape of augmentation charge: PSQ
     Using radial grid of 1073 points,  4 beta functions with: 
                l(1) =   0
                l(2) =   0
                l(3) =   1
                l(4) =   1
     Q(r) pseudized with 0 coefficients 


     PseudoPot. # 3 for H  read from file:
     /users/bkreitz1/quantum-espresso/potentials/H.pbe-kjpaw_psl.1.0.0.UPF
     MD5 check sum: ae98473e6dc62675f0d0baffdab24f65
     Pseudo is Projector augmented-wave, Zval =  1.0
     Generated using 'atomic' code by A. Dal Corso  v.6.7MaX
     Shape of augmentation charge: PSQ
     Using radial grid of  929 points,  2 beta functions with: 
                l(1) =   0
                l(2) =   0
     Q(r) pseudized with 0 coefficients 


     atomic species   valence    mass     pseudopotential
        Pt            10.00   195.08400     Pt( 1.00)
        C              4.00    12.01100     C ( 1.00)
        H              1.00     1.00800     H ( 1.00)

     No symmetry found



   Cartesian axes

     site n.     atom                  positions (alat units)
         1           Pt  tau(   1) = (   0.0000000   0.0000000   1.0017346  )
         2           Pt  tau(   2) = (   0.3333333   0.0000000   1.0017346  )
         3           Pt  tau(   3) = (   0.6666667   0.0000000   1.0017346  )
         4           Pt  tau(   4) = (   0.1666667   0.2886751   1.0017346  )
         5           Pt  tau(   5) = (   0.5000000   0.2886751   1.0017346  )
         6           Pt  tau(   6) = (   0.8333333   0.2886751   1.0017346  )
         7           Pt  tau(   7) = (   0.3333333   0.5773503   1.0017346  )
         8           Pt  tau(   8) = (   0.6666667   0.5773503   1.0017346  )
         9           Pt  tau(   9) = (   1.0000000   0.5773503   1.0017346  )
        10           Pt  tau(  10) = (   0.1666667   0.0962250   1.2739001  )
        11           Pt  tau(  11) = (   0.5000000   0.0962250   1.2739001  )
        12           Pt  tau(  12) = (   0.8333333   0.0962250   1.2739001  )
        13           Pt  tau(  13) = (   0.3333333   0.3849002   1.2739001  )
        14           Pt  tau(  14) = (   0.6666667   0.3849002   1.2739001  )
        15           Pt  tau(  15) = (   1.0000000   0.3849002   1.2739001  )
        16           Pt  tau(  16) = (   0.5000000   0.6735753   1.2739001  )
        17           Pt  tau(  17) = (   0.8333333   0.6735753   1.2739001  )
        18           Pt  tau(  18) = (   1.1666667   0.6735753   1.2739001  )
        19           Pt  tau(  19) = (   0.0000536   0.1957088   1.5447913  )
        20           Pt  tau(  20) = (   0.3360905   0.1958052   1.5454744  )
        21           Pt  tau(  21) = (   0.6677080   0.1950665   1.5451396  )
        22           Pt  tau(  22) = (   0.1675877   0.4831401   1.5414961  )
        23           Pt  tau(  23) = (   0.5019187   0.4822775   1.5463590  )
        24           Pt  tau(  24) = (   0.8336028   0.4822681   1.5460643  )
        25           Pt  tau(  25) = (   0.3347379   0.7722627   1.5423560  )
        26           Pt  tau(  26) = (   0.6678390   0.7681489   1.5500648  )
        27           Pt  tau(  27) = (   1.0006006   0.7722008   1.5424865  )
        28           Pt  tau(  28) = (   0.0009352   0.0087692   1.8186866  )
        29           Pt  tau(  29) = (   0.3370420   0.0089698   1.8193266  )
        30           Pt  tau(  30) = (   0.6688470   0.0006678   1.8169852  )
        31           Pt  tau(  31) = (   0.1690483   0.2946603   1.8181670  )
        32           Pt  tau(  32) = (   0.4968976   0.2896471   1.8324202  )
        33           Pt  tau(  33) = (   0.8413487   0.2889977   1.8299094  )
        34           Pt  tau(  34) = (   0.3329215   0.5837037   1.8142560  )
        35           Pt  tau(  35) = (   0.6692661   0.5990254   1.8337137  )
        36           Pt  tau(  36) = (   1.0046553   0.5837439   1.8148430  )
        37           C   tau(  37) = (   0.6702527   0.3842311   1.9585769  )
        38           C   tau(  38) = (   0.6763191   0.4961631   2.0813058  )
        39           C   tau(  39) = (   0.5424070   0.5337935   2.1913033  )
        40           H   tau(  40) = (   0.7932052   0.5230244   2.1269704  )
        41           H   tau(  41) = (   0.4283809   0.5053936   2.1395057  )
        42           H   tau(  42) = (   0.5570340   0.4645308   2.2994644  )
        43           H   tau(  43) = (   0.5442239   0.6582834   2.2250341  )

     number of k points=    13  Marzari-Vanderbilt smearing, width (Ry)=  0.0200
                       cart. coord. in units 2pi/alat
        k(    1) = (   0.0000000   0.0000000   0.0000000), wk =   0.0800000
        k(    2) = (   0.0000000   0.2309401   0.0000000), wk =   0.1600000
        k(    3) = (   0.0000000   0.4618802   0.0000000), wk =   0.1600000
        k(    4) = (   0.2000000  -0.1154701   0.0000000), wk =   0.1600000
        k(    5) = (   0.2000000   0.1154701   0.0000000), wk =   0.1600000
        k(    6) = (   0.2000000   0.3464102   0.0000000), wk =   0.1600000
        k(    7) = (   0.2000000  -0.5773503   0.0000000), wk =   0.1600000
        k(    8) = (   0.2000000  -0.3464102   0.0000000), wk =   0.1600000
        k(    9) = (   0.4000000  -0.2309401   0.0000000), wk =   0.1600000
        k(   10) = (   0.4000000  -0.0000000   0.0000000), wk =   0.1600000
        k(   11) = (   0.4000000   0.2309401   0.0000000), wk =   0.1600000
        k(   12) = (   0.4000000  -0.6928203   0.0000000), wk =   0.1600000
        k(   13) = (   0.4000000  -0.4618802   0.0000000), wk =   0.1600000

     Dense  grid:   739767 G-vectors     FFT dimensions: (  80,  80, 270)

     Estimated max dynamical RAM per process >       8.98 GB

     Check: negative core charge=   -0.000002

     Initial potential from superposition of free atoms

     starting charge  375.99373, renormalised to  376.00000

     negative rho (up, down):  1.176E-02 0.000E+00


     %%%%%%%%%%%%%%%%%%%%%%%%%%%%%%%%%%%%%%%%%%%%%%%%%%%%%%%%%%%%%%%%%%%%%%%%
     %                                                                      %
     % You are using vdW-DF, which was implemented by the Thonhauser group. %
     % Please cite the following two papers that made this development      %
     % possible and the two reviews that describe the various versions:     %
     %                                                                      %
     %   T. Thonhauser et al., PRL 115, 136402 (2015).                      %
     %   T. Thonhauser et al., PRB 76, 125112 (2007).                       %
     %   K. Berland et al., Rep. Prog. Phys. 78, 066501 (2015).             %
     %   D.C. Langreth et al., J. Phys.: Condens. Matter 21, 084203 (2009). %
     %                                                                      %
     %                                                                      %
     % If you are calculating the stress with vdW-DF, please also cite:     %
     %                                                                      %
     %   R. Sabatini et al., J. Phys.: Condens. Matter 24, 424209 (2012).   %
     %                                                                      %
     %%%%%%%%%%%%%%%%%%%%%%%%%%%%%%%%%%%%%%%%%%%%%%%%%%%%%%%%%%%%%%%%%%%%%%%%


     Starting wfcs are  340 randomized atomic wfcs
     Checking if some PAW data can be deallocated... 

     total cpu time spent up to now is      366.6 secs

     Self-consistent Calculation

     iteration #  1     ecut=    60.00 Ry     beta= 0.70
     Davidson diagonalization with overlap
     ethr =  1.00E-02,  avg # of iterations =  2.2

     Threshold (ethr) on eigenvalues was too large:
     Diagonalizing with lowered threshold

     Davidson diagonalization with overlap
     ethr =  8.31E-04,  avg # of iterations =  2.8

     negative rho (up, down):  1.172E-02 0.000E+00

     total cpu time spent up to now is     1723.1 secs

     total energy              =  -27815.85480313 Ry
     estimated scf accuracy    <       3.39886325 Ry

     iteration #  2     ecut=    60.00 Ry     beta= 0.70
     Davidson diagonalization with overlap
     ethr =  9.04E-04,  avg # of iterations =  2.0

     negative rho (up, down):  9.824E-03 0.000E+00

     total cpu time spent up to now is     2345.5 secs

     total energy              =  -27816.03921069 Ry
     estimated scf accuracy    <       1.39800496 Ry

     iteration #  3     ecut=    60.00 Ry     beta= 0.70
     Davidson diagonalization with overlap
     ethr =  3.72E-04,  avg # of iterations =  5.1

     negative rho (up, down):  7.109E-03 0.000E+00

     total cpu time spent up to now is     2996.7 secs

     total energy              =  -27816.09174926 Ry
     estimated scf accuracy    <       0.59373734 Ry

     iteration #  4     ecut=    60.00 Ry     beta= 0.70
     Davidson diagonalization with overlap
     ethr =  1.58E-04,  avg # of iterations =  7.5

     negative rho (up, down):  5.294E-03 0.000E+00

     total cpu time spent up to now is     3723.2 secs

     total energy              =  -27816.13794307 Ry
     estimated scf accuracy    <       0.24633759 Ry

     iteration #  5     ecut=    60.00 Ry     beta= 0.70
     Davidson diagonalization with overlap
     c_bands:  1 eigenvalues not converged
     ethr =  6.55E-05,  avg # of iterations =  6.7

     negative rho (up, down):  3.603E-03 0.000E+00

     total cpu time spent up to now is     4434.6 secs

     total energy              =  -27816.15246171 Ry
     estimated scf accuracy    <       0.05718537 Ry

     iteration #  6     ecut=    60.00 Ry     beta= 0.70
     Davidson diagonalization with overlap
     c_bands:  2 eigenvalues not converged
     c_bands:  2 eigenvalues not converged
     c_bands:  2 eigenvalues not converged
     c_bands:  1 eigenvalues not converged
     c_bands:  1 eigenvalues not converged
     c_bands:  1 eigenvalues not converged
     c_bands:  1 eigenvalues not converged
     ethr =  1.52E-05,  avg # of iterations = 16.6

     negative rho (up, down):  2.991E-03 0.000E+00

     total cpu time spent up to now is     5450.2 secs

     total energy              =  -27816.16363974 Ry
     estimated scf accuracy    <       0.01207756 Ry

     iteration #  7     ecut=    60.00 Ry     beta= 0.70
     Davidson diagonalization with overlap
     c_bands:  1 eigenvalues not converged
     c_bands:  1 eigenvalues not converged
     c_bands:  1 eigenvalues not converged
     c_bands:  1 eigenvalues not converged
     ethr =  3.21E-06,  avg # of iterations = 13.5

     negative rho (up, down):  2.820E-03 0.000E+00

     total cpu time spent up to now is     6371.1 secs

     total energy              =  -27816.16562425 Ry
     estimated scf accuracy    <       0.00893809 Ry

     iteration #  8     ecut=    60.00 Ry     beta= 0.70
     Davidson diagonalization with overlap
     c_bands:  1 eigenvalues not converged
     ethr =  2.38E-06,  avg # of iterations = 11.7

     negative rho (up, down):  3.021E-03 0.000E+00

     total cpu time spent up to now is     7101.5 secs

     total energy              =  -27816.16607338 Ry
     estimated scf accuracy    <       0.00438289 Ry

     iteration #  9     ecut=    60.00 Ry     beta= 0.70
     Davidson diagonalization with overlap
     c_bands:  1 eigenvalues not converged
     ethr =  1.17E-06,  avg # of iterations = 10.8

     negative rho (up, down):  3.934E-03 0.000E+00

     total cpu time spent up to now is     7799.6 secs

     total energy              =  -27816.16640208 Ry
     estimated scf accuracy    <       0.00120727 Ry

     iteration # 10     ecut=    60.00 Ry     beta= 0.70
     Davidson diagonalization with overlap
     c_bands:  1 eigenvalues not converged
     ethr =  3.21E-07,  avg # of iterations = 11.6

     negative rho (up, down):  4.612E-03 0.000E+00

     total cpu time spent up to now is     8580.6 secs

     total energy              =  -27816.16655851 Ry
     estimated scf accuracy    <       0.00093239 Ry

     iteration # 11     ecut=    60.00 Ry     beta= 0.70
     Davidson diagonalization with overlap
     c_bands:  1 eigenvalues not converged
     ethr =  2.48E-07,  avg # of iterations =  2.6

     negative rho (up, down):  6.437E-03 0.000E+00

     total cpu time spent up to now is     9163.8 secs

     total energy              =  -27816.16663667 Ry
     estimated scf accuracy    <       0.00067450 Ry

     iteration # 12     ecut=    60.00 Ry     beta= 0.70
     Davidson diagonalization with overlap
     ethr =  1.79E-07,  avg # of iterations =  5.4

     negative rho (up, down):  7.584E-03 0.000E+00

     total cpu time spent up to now is     9797.6 secs

     total energy              =  -27816.16666421 Ry
     estimated scf accuracy    <       0.00047205 Ry

     iteration # 13     ecut=    60.00 Ry     beta= 0.70
     Davidson diagonalization with overlap
     ethr =  1.26E-07,  avg # of iterations =  1.5

     negative rho (up, down):  9.651E-03 0.000E+00

     total cpu time spent up to now is    10383.7 secs

     total energy              =  -27816.16664622 Ry
     estimated scf accuracy    <       0.00028047 Ry

     iteration # 14     ecut=    60.00 Ry     beta= 0.70
     Davidson diagonalization with overlap
     ethr =  7.46E-08,  avg # of iterations =  2.0

     negative rho (up, down):  1.142E-02 0.000E+00

     total cpu time spent up to now is    11003.3 secs

     total energy              =  -27816.16662344 Ry
     estimated scf accuracy    <       0.00014508 Ry

     iteration # 15     ecut=    60.00 Ry     beta= 0.70
     Davidson diagonalization with overlap
     ethr =  3.86E-08,  avg # of iterations =  2.0

     negative rho (up, down):  1.236E-02 0.000E+00

     total cpu time spent up to now is    11631.2 secs

     total energy              =  -27816.16661723 Ry
     estimated scf accuracy    <       0.00008082 Ry

     iteration # 16     ecut=    60.00 Ry     beta= 0.70
     Davidson diagonalization with overlap
     ethr =  2.15E-08,  avg # of iterations =  2.0

     negative rho (up, down):  1.189E-02 0.000E+00

     total cpu time spent up to now is    12263.1 secs

     total energy              =  -27816.16663575 Ry
     estimated scf accuracy    <       0.00003443 Ry

     iteration # 17     ecut=    60.00 Ry     beta= 0.70
     Davidson diagonalization with overlap
     ethr =  9.16E-09,  avg # of iterations =  2.0

     negative rho (up, down):  1.327E-02 0.000E+00

     total cpu time spent up to now is    12928.6 secs

     total energy              =  -27816.16663491 Ry
     estimated scf accuracy    <       0.00003498 Ry

     iteration # 18     ecut=    60.00 Ry     beta= 0.70
     Davidson diagonalization with overlap
     ethr =  9.16E-09,  avg # of iterations =  1.3

     negative rho (up, down):  1.349E-02 0.000E+00

     total cpu time spent up to now is    13508.5 secs

     total energy              =  -27816.16663725 Ry
     estimated scf accuracy    <       0.00000948 Ry

     iteration # 19     ecut=    60.00 Ry     beta= 0.70
     Davidson diagonalization with overlap
     ethr =  2.52E-09,  avg # of iterations =  4.0

     negative rho (up, down):  1.345E-02 0.000E+00

     total cpu time spent up to now is    14210.3 secs

     total energy              =  -27816.16663880 Ry
     estimated scf accuracy    <       0.00000223 Ry

     iteration # 20     ecut=    60.00 Ry     beta= 0.70
     Davidson diagonalization with overlap
     ethr =  5.92E-10,  avg # of iterations =  4.3

     negative rho (up, down):  1.336E-02 0.000E+00

     total cpu time spent up to now is    15134.8 secs

     End of self-consistent calculation

          k = 0.0000 0.0000 0.0000 ( 92567 PWs)   bands (ev):

   -13.9664 -11.1374  -7.9402  -6.9384  -5.8146  -5.5402  -4.8641  -4.7504
    -4.5873  -4.5693  -4.5576  -4.5543  -4.5127  -4.4992  -4.4436  -4.2875
    -4.0423  -4.0151  -4.0080  -3.9977  -3.9529  -3.9209  -3.7651  -3.6236
    -3.5759  -3.5511  -3.5400  -3.4363  -3.3650  -3.3478  -3.3458  -3.3278
    -3.3156  -3.2380  -3.2274  -3.2019  -3.1601  -3.1417  -3.1045  -3.0856
    -3.0704  -3.0553  -3.0463  -3.0221  -3.0129  -2.9804  -2.8111  -2.5726
    -2.5682  -2.5206  -2.4901  -2.4759  -2.4613  -2.4374  -2.4225  -2.4013
    -2.3654  -2.2431  -2.2370  -2.1906  -2.1785  -2.0434  -1.9572  -1.8024
    -1.7396  -1.7068  -1.6914  -1.6758  -1.6486  -1.6248  -1.5540  -1.5229
    -1.5065  -1.4811  -1.4728  -1.4677  -1.4627  -1.4350  -1.4311  -1.4224
    -1.3899  -1.3787  -1.3628  -1.3538  -1.3508  -1.3427  -1.2939  -1.2916
    -1.2726  -1.2571  -1.2463  -1.0889  -1.0795  -1.0577  -1.0300  -1.0231
    -1.0183  -1.0002  -0.9901  -0.9691  -0.9442  -0.9412  -0.8398  -0.8329
    -0.8056  -0.7891  -0.7851  -0.7785  -0.7374  -0.6910  -0.6859  -0.6724
    -0.6467  -0.6292  -0.5871  -0.5083  -0.2857  -0.2407  -0.2301  -0.1746
    -0.1444  -0.1312  -0.1283  -0.1180  -0.0830  -0.0235   0.0103   0.0147
     0.0654   0.0784   0.0985   0.1021   0.1222   0.1448   0.2194   0.2519
     0.3146   0.3411   0.3517   0.3825   0.3923   0.4799   0.5332   0.5900
     0.6074   0.6157   0.6529   0.6664   0.6782   0.7296   0.7406   0.7767
     0.7905   0.8420   0.8675   0.8742   0.9120   0.9671   0.9808   1.0407
     1.0459   1.0506   1.0590   1.0604   1.0661   1.0726   1.0887   1.0919
     1.1498   1.1564   1.1657   1.1723   1.1783   1.2463   1.2543   1.2717
     1.2782   1.2827   1.3261   1.3305   1.3623   1.4115   1.4138   1.4208
     1.4283   1.4361   1.4434   1.4540   1.5017   1.5023   1.5163   1.5386
     1.5639   1.5775   1.6701   1.6956   1.8093   1.8150   1.8207   1.8636
     1.8666   1.8811   1.9662   2.3626   2.4074   2.6406   2.7242   2.7322
     2.7546   3.2350   3.7471   4.5764   5.0098   5.0131   5.0471   5.3732
     5.4188   5.6731   5.8082   6.4627   6.6318   6.6418   6.6761   6.6948
     6.7963   6.8055

          k = 0.0000 0.2309 0.0000 ( 92406 PWs)   bands (ev):

   -13.9661 -11.1366  -7.9316  -6.7983  -5.7698  -5.4590  -5.0683  -4.8211
    -4.7256  -4.5996  -4.5648  -4.4387  -4.3505  -4.3227  -4.3055  -4.2092
    -4.1114  -4.0550  -3.9474  -3.9386  -3.9282  -3.8730  -3.7045  -3.6225
    -3.5604  -3.5199  -3.4832  -3.4629  -3.4112  -3.3966  -3.3804  -3.3165
    -3.3089  -3.2585  -3.2460  -3.2216  -3.1859  -3.1629  -3.1176  -3.1162
    -3.0483  -2.9981  -2.9465  -2.9288  -2.8747  -2.8593  -2.7920  -2.6551
    -2.6260  -2.5911  -2.5727  -2.5613  -2.5453  -2.4695  -2.4084  -2.3520
    -2.3075  -2.2763  -2.2411  -2.1824  -2.1537  -2.0774  -1.9701  -1.9393
    -1.8569  -1.8361  -1.8235  -1.8073  -1.7994  -1.7360  -1.6860  -1.6802
    -1.6756  -1.6242  -1.5825  -1.5426  -1.5332  -1.4957  -1.4711  -1.4525
    -1.4123  -1.3847  -1.3544  -1.3099  -1.3077  -1.2710  -1.2665  -1.2379
    -1.2272  -1.2209  -1.1382  -1.1354  -1.0969  -1.0822  -1.0533  -1.0472
    -1.0319  -1.0033  -0.9818  -0.9696  -0.9434  -0.9114  -0.8890  -0.8686
    -0.8566  -0.8430  -0.8105  -0.7770  -0.7647  -0.7220  -0.7136  -0.6504
    -0.6374  -0.6111  -0.6013  -0.5815  -0.5409  -0.5389  -0.4982  -0.4609
    -0.3559  -0.2584  -0.1888  -0.1809  -0.1449  -0.1326  -0.1027  -0.0818
    -0.0200  -0.0035   0.0613   0.1168   0.1567   0.1910   0.2050   0.2370
     0.2482   0.2935   0.2968   0.3217   0.3329   0.4608   0.4646   0.4874
     0.4962   0.5232   0.5434   0.6231   0.6497   0.6752   0.7002   0.7148
     0.7334   0.7785   0.8359   0.8532   0.8620   0.8849   0.8944   0.9497
     0.9831   1.0039   1.0420   1.0622   1.0706   1.1011   1.1483   1.1964
     1.2247   1.2336   1.2788   1.2889   1.3357   1.3678   1.3877   1.4130
     1.4151   1.4327   1.4884   1.4946   1.5049   1.5311   1.5376   1.5640
     1.5854   1.6457   1.6575   1.7247   1.7438   1.7724   1.7782   1.7983
     1.8277   1.8318   1.8646   1.8729   1.9437   1.9504   1.9937   2.0510
     2.1209   2.1455   2.1718   2.4076   2.4110   2.5502   3.1181   3.2625
     3.3533   3.4799   3.8494   4.3583   4.6614   4.9567   5.2489   5.5107
     5.5918   5.7185   5.7703   5.8457   5.9661   6.4862   6.5539   6.5828
     6.7472   6.8517

          k = 0.0000 0.4619 0.0000 ( 92424 PWs)   bands (ev):

   -13.9656 -11.1353  -7.9184  -6.3943  -5.8335  -5.6345  -5.1357  -4.8393
    -4.7359  -4.6339  -4.5302  -4.3830  -4.2953  -4.1648  -4.0582  -4.0140
    -3.9803  -3.9449  -3.8520  -3.8047  -3.7637  -3.7436  -3.7348  -3.6383
    -3.6085  -3.5848  -3.5554  -3.5338  -3.5061  -3.4931  -3.4464  -3.4121
    -3.3833  -3.2735  -3.2071  -3.1569  -3.1498  -3.1303  -3.1206  -3.0553
    -2.9785  -2.9439  -2.8976  -2.8911  -2.8697  -2.8263  -2.7088  -2.6952
    -2.6673  -2.5956  -2.5898  -2.5420  -2.5077  -2.4525  -2.4250  -2.4189
    -2.3842  -2.3825  -2.3021  -2.2501  -2.2136  -2.2056  -2.1140  -2.0583
    -2.0459  -2.0256  -1.9928  -1.9717  -1.9308  -1.8569  -1.8129  -1.7752
    -1.7470  -1.7303  -1.6654  -1.6531  -1.6402  -1.5483  -1.5129  -1.4977
    -1.4863  -1.4373  -1.4232  -1.4188  -1.3619  -1.3473  -1.3267  -1.2993
    -1.2861  -1.2551  -1.2413  -1.2284  -1.2164  -1.1936  -1.1427  -1.1237
    -1.0839  -1.0606  -1.0570  -1.0364  -0.9951  -0.9431  -0.9287  -0.9008
    -0.8673  -0.8337  -0.8145  -0.7893  -0.7688  -0.7562  -0.7264  -0.6599
    -0.6039  -0.6000  -0.5621  -0.5348  -0.4842  -0.4256  -0.4135  -0.3538
    -0.3209  -0.2971  -0.2823  -0.2348  -0.2219  -0.2104  -0.1583  -0.1388
    -0.1028  -0.0891  -0.0680  -0.0667  -0.0288  -0.0107   0.0064   0.0712
     0.0877   0.1568   0.1656   0.1843   0.2283   0.2509   0.3908   0.3964
     0.4539   0.4644   0.5089   0.5704   0.5963   0.6260   0.6778   0.7239
     0.7391   0.7439   0.7758   0.7942   0.8201   0.8225   0.9007   0.9206
     0.9694   0.9893   1.0285   1.0308   1.0741   1.1019   1.1809   1.2233
     1.2455   1.2609   1.2860   1.3912   1.4115   1.4174   1.4458   1.4686
     1.4937   1.5381   1.5549   1.5773   1.6189   1.6767   1.6892   1.7253
     1.7382   1.7449   1.7654   1.7901   1.8258   1.9234   1.9327   1.9897
     1.9985   2.0065   2.1069   2.1229   2.2488   2.4279   2.4397   2.6348
     2.9303   3.0164   3.0460   3.2890   3.3018   3.6483   3.6716   3.7245
     4.0197   4.1680   4.2901   4.3436   4.4514   4.5349   4.6596   4.7953
     4.9867   5.1742   5.4176   5.4769   5.9002   6.1175   6.1959   6.2723
     6.6164   6.6680

          k = 0.2000-0.1155 0.0000 ( 92406 PWs)   bands (ev):

   -13.9661 -11.1367  -7.9284  -6.7995  -5.7636  -5.4504  -5.0792  -4.8597
    -4.6846  -4.6120  -4.5625  -4.4407  -4.3717  -4.3129  -4.2834  -4.2525
    -4.1048  -4.0605  -3.9498  -3.9419  -3.8915  -3.8828  -3.7392  -3.6112
    -3.5613  -3.5161  -3.4923  -3.4618  -3.4171  -3.3949  -3.3660  -3.3315
    -3.3090  -3.2722  -3.2271  -3.2156  -3.1770  -3.1594  -3.1281  -3.1123
    -3.0603  -3.0078  -2.9560  -2.9054  -2.8837  -2.8499  -2.7729  -2.6391
    -2.6334  -2.5916  -2.5667  -2.5525  -2.5134  -2.4894  -2.3917  -2.3532
    -2.3188  -2.2615  -2.2341  -2.1992  -2.1673  -2.0534  -1.9949  -1.9176
    -1.8727  -1.8456  -1.8159  -1.7910  -1.7741  -1.7317  -1.7206  -1.6805
    -1.6662  -1.6238  -1.5976  -1.5404  -1.5174  -1.4963  -1.4880  -1.4482
    -1.4130  -1.3852  -1.3634  -1.3109  -1.2892  -1.2805  -1.2481  -1.2362
    -1.2147  -1.1911  -1.1446  -1.1231  -1.1126  -1.0800  -1.0559  -1.0470
    -1.0335  -1.0120  -0.9827  -0.9574  -0.9338  -0.9147  -0.9006  -0.8775
    -0.8519  -0.8324  -0.8092  -0.8058  -0.7724  -0.7490  -0.6999  -0.6636
    -0.6403  -0.6119  -0.6031  -0.5814  -0.5422  -0.5371  -0.5207  -0.4335
    -0.3695  -0.2563  -0.2037  -0.1596  -0.1432  -0.1270  -0.1148  -0.0869
    -0.0632   0.0361   0.0805   0.1232   0.1542   0.1982   0.2128   0.2257
     0.2498   0.2963   0.3064   0.3184   0.3377   0.3955   0.4660   0.4859
     0.4950   0.5127   0.5769   0.5987   0.6416   0.6645   0.6798   0.7007
     0.7599   0.7842   0.8515   0.8567   0.8696   0.8794   0.9141   0.9414
     0.9847   1.0098   1.0499   1.0640   1.0759   1.1001   1.1472   1.1800
     1.2235   1.2364   1.2847   1.2969   1.3542   1.3636   1.3846   1.3957
     1.4175   1.4251   1.4815   1.4964   1.5035   1.5305   1.5425   1.5690
     1.5849   1.6286   1.6741   1.7205   1.7354   1.7709   1.7797   1.8016
     1.8262   1.8370   1.8620   1.8847   1.9293   1.9732   1.9963   2.0483
     2.1279   2.1522   2.1776   2.2354   2.5287   2.7091   2.9584   3.2743
     3.4135   3.4973   3.6881   4.4280   4.7330   4.9451   5.2942   5.4542
     5.5399   5.7096   5.7445   5.8956   5.9442   6.4559   6.5673   6.5922
     6.7085   6.8589

          k = 0.2000 0.1155 0.0000 ( 92406 PWs)   bands (ev):

   -13.9661 -11.1367  -7.9287  -6.7987  -5.7591  -5.4600  -5.1049  -4.8038
    -4.7336  -4.5978  -4.5514  -4.4396  -4.3606  -4.3248  -4.2860  -4.2226
    -4.1102  -4.0666  -3.9698  -3.9415  -3.9116  -3.8548  -3.7019  -3.6342
    -3.5715  -3.5224  -3.4893  -3.4834  -3.4130  -3.3999  -3.3518  -3.3314
    -3.3136  -3.2757  -3.2459  -3.2071  -3.1803  -3.1658  -3.1280  -3.1094
    -3.0319  -3.0246  -2.9568  -2.9038  -2.8878  -2.8399  -2.7629  -2.6405
    -2.6259  -2.5973  -2.5652  -2.5555  -2.5169  -2.4861  -2.3783  -2.3520
    -2.3286  -2.2618  -2.2351  -2.1947  -2.1654  -2.0563  -1.9998  -1.9080
    -1.8718  -1.8408  -1.8139  -1.7871  -1.7707  -1.7373  -1.7219  -1.6880
    -1.6705  -1.6195  -1.5916  -1.5370  -1.5101  -1.4964  -1.4860  -1.4528
    -1.4284  -1.3914  -1.3669  -1.3109  -1.2875  -1.2772  -1.2522  -1.2300
    -1.2130  -1.1902  -1.1539  -1.1251  -1.1112  -1.0777  -1.0540  -1.0449
    -1.0319  -1.0034  -0.9849  -0.9556  -0.9392  -0.9177  -0.9007  -0.8810
    -0.8502  -0.8338  -0.8237  -0.8039  -0.7772  -0.7493  -0.7020  -0.6660
    -0.6445  -0.6101  -0.5988  -0.5797  -0.5417  -0.5370  -0.5240  -0.4235
    -0.3535  -0.2599  -0.2035  -0.1612  -0.1488  -0.1325  -0.1171  -0.0851
    -0.0611   0.0317   0.0797   0.1245   0.1502   0.1961   0.2088   0.2225
     0.2537   0.2916   0.3037   0.3196   0.3355   0.3875   0.4656   0.4845
     0.4963   0.5101   0.5815   0.6016   0.6384   0.6657   0.6759   0.7040
     0.7602   0.7810   0.8531   0.8572   0.8751   0.8838   0.9191   0.9399
     0.9876   1.0103   1.0511   1.0654   1.0763   1.1011   1.1459   1.1841
     1.2196   1.2359   1.2826   1.2914   1.3549   1.3659   1.3836   1.3940
     1.4176   1.4249   1.4820   1.4972   1.5046   1.5291   1.5445   1.5661
     1.5816   1.6289   1.6727   1.7181   1.7345   1.7726   1.7835   1.8056
     1.8328   1.8429   1.8661   1.8861   1.9305   1.9783   1.9974   2.0477
     2.1306   2.1513   2.1786   2.2352   2.5299   2.7214   2.9565   3.2866
     3.3925   3.4982   3.6877   4.4086   4.7129   4.9710   5.2869   5.4493
     5.5562   5.6953   5.8064   5.8614   5.9347   6.4625   6.5538   6.5757
     6.6791   6.8612

          k = 0.2000 0.3464 0.0000 ( 92440 PWs)   bands (ev):

   -13.9657 -11.1356  -7.9181  -6.5244  -5.7302  -5.3587  -5.3208  -5.1906
    -4.7329  -4.5327  -4.2521  -4.2382  -4.2314  -4.1910  -4.1736  -4.1510
    -4.1200  -4.0434  -4.0251  -3.9842  -3.7431  -3.6704  -3.6475  -3.6428
    -3.6139  -3.5600  -3.5423  -3.4675  -3.4458  -3.4399  -3.3848  -3.3398
    -3.3048  -3.2996  -3.2733  -3.2248  -3.1878  -3.1748  -3.1612  -3.1158
    -3.0547  -3.0451  -2.9778  -2.8281  -2.7846  -2.7180  -2.6995  -2.6625
    -2.6468  -2.6064  -2.5923  -2.5611  -2.5169  -2.4530  -2.4232  -2.3946
    -2.3232  -2.2854  -2.2549  -2.2082  -2.1863  -2.1579  -2.1253  -2.0595
    -2.0345  -1.9544  -1.9364  -1.9095  -1.8652  -1.8554  -1.7993  -1.7912
    -1.7593  -1.7354  -1.6947  -1.6040  -1.5771  -1.5643  -1.5468  -1.5205
    -1.4949  -1.4382  -1.4217  -1.3859  -1.3508  -1.3189  -1.2785  -1.2602
    -1.2389  -1.2248  -1.2150  -1.1838  -1.1619  -1.1355  -1.1173  -1.0978
    -1.0800  -1.0234  -1.0019  -0.9778  -0.9673  -0.9376  -0.9292  -0.8967
    -0.8716  -0.8555  -0.8295  -0.8189  -0.8065  -0.8026  -0.7792  -0.7448
    -0.6896  -0.6520  -0.6065  -0.5945  -0.5324  -0.5122  -0.4941  -0.4404
    -0.3989  -0.3524  -0.2780  -0.2553  -0.2042  -0.1799  -0.1394  -0.1107
    -0.0890  -0.0636  -0.0276   0.0004   0.0219   0.0484   0.1024   0.1264
     0.1512   0.2118   0.2397   0.2779   0.2896   0.3286   0.3812   0.4295
     0.4662   0.4816   0.5124   0.5534   0.5845   0.6071   0.6388   0.6900
     0.7116   0.7419   0.8020   0.8090   0.8222   0.8460   0.8660   0.8732
     0.8942   0.9197   0.9615   1.0272   1.0779   1.1251   1.1777   1.2503
     1.3210   1.3668   1.3804   1.4018   1.4269   1.4765   1.5174   1.5321
     1.5423   1.5765   1.5927   1.6087   1.6282   1.6394   1.6652   1.6783
     1.7251   1.7450   1.7708   1.7991   1.8243   1.8630   1.9240   1.9710
     2.0041   2.0324   2.0648   2.1042   2.1475   2.1755   2.2706   2.3198
     2.6660   2.7242   2.8417   3.0409   3.2067   3.2895   3.3742   3.7619
     3.8575   4.0743   4.1799   4.2520   4.3208   4.4898   4.9893   5.2263
     5.4645   5.5563   5.7463   5.7964   5.9960   6.1222   6.1531   6.2582
     6.3546   6.4614

          k = 0.2000-0.5774 0.0000 ( 92446 PWs)   bands (ev):

   -13.9655 -11.1350  -7.9115  -6.0406  -6.0019  -5.6535  -5.3981  -4.9303
    -4.7649  -4.5665  -4.4476  -4.2108  -4.1965  -4.0876  -4.0489  -3.9576
    -3.9410  -3.8481  -3.8377  -3.8003  -3.7285  -3.7167  -3.7048  -3.6940
    -3.6485  -3.6268  -3.5722  -3.5200  -3.5047  -3.4986  -3.4657  -3.4554
    -3.3686  -3.2749  -3.2516  -3.2336  -3.2029  -3.1525  -3.1087  -3.1014
    -3.0575  -3.0285  -2.9526  -2.8870  -2.8659  -2.7256  -2.6857  -2.6799
    -2.6660  -2.5839  -2.5610  -2.5235  -2.4454  -2.4030  -2.3763  -2.3238
    -2.2945  -2.2748  -2.2436  -2.2274  -2.1760  -2.1613  -2.1193  -2.1021
    -2.0838  -2.0398  -2.0361  -1.9984  -1.9780  -1.9370  -1.9208  -1.8977
    -1.8010  -1.7839  -1.7631  -1.6900  -1.6532  -1.6321  -1.5895  -1.5735
    -1.5592  -1.5182  -1.5023  -1.4621  -1.4357  -1.4042  -1.3716  -1.3574
    -1.3365  -1.2513  -1.2182  -1.2121  -1.2014  -1.1880  -1.1163  -1.0842
    -1.0618  -1.0135  -0.9730  -0.9680  -0.9411  -0.9210  -0.9172  -0.8904
    -0.8786  -0.8604  -0.8510  -0.8129  -0.8088  -0.7678  -0.7523  -0.7423
    -0.7405  -0.7126  -0.6905  -0.6671  -0.5321  -0.4920  -0.4436  -0.4132
    -0.3778  -0.3141  -0.2955  -0.2585  -0.2337  -0.2063  -0.1692  -0.1636
    -0.1431  -0.1170  -0.0779  -0.0633  -0.0419   0.0170   0.0705   0.1098
     0.1151   0.1232   0.1777   0.2571   0.2836   0.3184   0.3717   0.4085
     0.4540   0.4753   0.4789   0.5291   0.5521   0.5594   0.5716   0.6419
     0.6536   0.6678   0.7110   0.7490   0.7618   0.7945   0.8339   0.8598
     0.9320   0.9936   1.0522   1.0848   1.1615   1.1898   1.2309   1.2324
     1.2879   1.3187   1.3667   1.4230   1.4539   1.4956   1.5212   1.5493
     1.5813   1.6023   1.6299   1.6461   1.6897   1.7208   1.7319   1.7445
     1.7651   1.7961   1.8180   1.8670   1.9102   1.9353   1.9859   2.0109
     2.0248   2.0722   2.0830   2.1301   2.2491   2.3232   2.8586   3.0480
     3.1827   3.2438   3.4097   3.4589   3.4687   3.6411   3.6633   4.0056
     4.1614   4.2617   4.2976   4.5906   4.6798   4.7211   4.8435   4.8733
     5.0327   5.0844   5.2304   5.3933   5.5576   5.7482   5.9146   6.2276
     6.2972   6.3510

          k = 0.2000-0.3464 0.0000 ( 92440 PWs)   bands (ev):

   -13.9657 -11.1356  -7.9176  -6.5269  -5.7307  -5.3424  -5.3261  -5.1763
    -4.7361  -4.5670  -4.2555  -4.2376  -4.2314  -4.1916  -4.1720  -4.1604
    -4.1191  -4.0533  -4.0312  -3.9653  -3.7170  -3.6769  -3.6602  -3.6410
    -3.6363  -3.5712  -3.5525  -3.4471  -3.4416  -3.4109  -3.3579  -3.3375
    -3.3115  -3.3043  -3.2727  -3.2203  -3.1908  -3.1702  -3.1283  -3.1059
    -3.0824  -3.0255  -2.9654  -2.8969  -2.7875  -2.7204  -2.6903  -2.6691
    -2.6513  -2.6090  -2.5946  -2.5542  -2.5182  -2.4592  -2.4249  -2.3982
    -2.3242  -2.2839  -2.2635  -2.2094  -2.1849  -2.1508  -2.1278  -2.0636
    -2.0115  -1.9546  -1.9419  -1.9111  -1.8745  -1.8694  -1.7967  -1.7898
    -1.7622  -1.7354  -1.7003  -1.6049  -1.5791  -1.5609  -1.5459  -1.5167
    -1.4914  -1.4341  -1.4164  -1.3800  -1.3518  -1.3229  -1.2842  -1.2637
    -1.2353  -1.2204  -1.2128  -1.1823  -1.1637  -1.1319  -1.1209  -1.0941
    -1.0694  -1.0193  -0.9978  -0.9851  -0.9636  -0.9416  -0.9244  -0.8952
    -0.8696  -0.8537  -0.8257  -0.8170  -0.8103  -0.8022  -0.7795  -0.7452
    -0.6931  -0.6542  -0.6063  -0.5920  -0.5290  -0.5104  -0.4956  -0.4340
    -0.3837  -0.3564  -0.2779  -0.2552  -0.2077  -0.1811  -0.1353  -0.1089
    -0.0915  -0.0617  -0.0321  -0.0013   0.0222   0.0510   0.0897   0.1332
     0.1556   0.2157   0.2382   0.2795   0.2950   0.3303   0.3833   0.4317
     0.4643   0.4810   0.5093   0.5571   0.5863   0.6088   0.6395   0.6854
     0.7075   0.7396   0.8030   0.8076   0.8213   0.8427   0.8596   0.8722
     0.8894   0.9171   0.9609   1.0295   1.0756   1.1274   1.1823   1.2541
     1.3133   1.3694   1.3811   1.3995   1.4305   1.4781   1.5153   1.5332
     1.5412   1.5769   1.5913   1.6111   1.6294   1.6392   1.6665   1.6732
     1.7250   1.7469   1.7707   1.7991   1.8251   1.8631   1.9237   1.9648
     1.9991   2.0314   2.0594   2.0975   2.1491   2.1772   2.2721   2.3162
     2.6498   2.7306   2.8495   3.0423   3.1935   3.2911   3.3647   3.7483
     3.8651   4.0752   4.1947   4.2478   4.3172   4.5010   5.0126   5.2398
     5.4506   5.5565   5.7452   5.8266   5.9660   6.1193   6.1544   6.2596
     6.3320   6.4676

          k = 0.4000-0.2309 0.0000 ( 92424 PWs)   bands (ev):

   -13.9657 -11.1356  -7.9101  -6.3976  -5.8127  -5.6406  -5.1341  -4.8523
    -4.7314  -4.6428  -4.5538  -4.4218  -4.3049  -4.1691  -4.0560  -4.0121
    -3.9695  -3.9538  -3.8660  -3.8068  -3.7572  -3.7412  -3.7346  -3.6592
    -3.6322  -3.5842  -3.5728  -3.5306  -3.5222  -3.4949  -3.4528  -3.3998
    -3.3879  -3.2683  -3.1764  -3.1666  -3.1453  -3.1294  -3.0989  -3.0350
    -2.9724  -2.9360  -2.8987  -2.8960  -2.8684  -2.8009  -2.7104  -2.6889
    -2.6205  -2.5895  -2.5575  -2.5234  -2.4975  -2.4588  -2.4294  -2.4127
    -2.3989  -2.3711  -2.2876  -2.2446  -2.2114  -2.1884  -2.1312  -2.0755
    -2.0295  -2.0061  -1.9902  -1.9617  -1.9499  -1.8508  -1.8064  -1.7882
    -1.7717  -1.7210  -1.6717  -1.6628  -1.6378  -1.5902  -1.5313  -1.4992
    -1.4728  -1.4364  -1.4249  -1.3757  -1.3604  -1.3342  -1.3132  -1.2887
    -1.2803  -1.2540  -1.2437  -1.2280  -1.2118  -1.1992  -1.1343  -1.1204
    -1.0855  -1.0627  -1.0469  -1.0279  -0.9973  -0.9716  -0.9282  -0.8862
    -0.8579  -0.8450  -0.8221  -0.8122  -0.7715  -0.7312  -0.7157  -0.6716
    -0.6232  -0.6065  -0.5622  -0.5549  -0.5141  -0.4771  -0.4023  -0.3576
    -0.3350  -0.3064  -0.2595  -0.2349  -0.2129  -0.1795  -0.1654  -0.1481
    -0.0995  -0.0917  -0.0760  -0.0593  -0.0511  -0.0137   0.0191   0.0651
     0.1028   0.1494   0.1711   0.1942   0.2115   0.2945   0.3321   0.4058
     0.4194   0.4745   0.4893   0.5655   0.6004   0.6358   0.6761   0.7005
     0.7274   0.7526   0.7685   0.8024   0.8273   0.8472   0.9005   0.9320
     0.9624   1.0020   1.0150   1.0325   1.0567   1.1242   1.1774   1.2443
     1.2506   1.2666   1.3003   1.3799   1.4096   1.4183   1.4267   1.4554
     1.4937   1.5394   1.5567   1.5731   1.6063   1.6693   1.6990   1.7295
     1.7347   1.7519   1.7697   1.8085   1.8330   1.9102   1.9585   1.9864
     2.0035   2.0202   2.0915   2.1783   2.2504   2.3580   2.5006   2.6608
     2.8938   3.0085   3.0615   3.2135   3.2830   3.4681   3.6694   3.8386
     4.0062   4.2599   4.3028   4.3554   4.4550   4.5023   4.7037   4.7931
     4.9630   5.1291   5.4005   5.5684   5.8551   6.0569   6.1678   6.2868
     6.6149   6.6740

          k = 0.4000-0.0000 0.0000 ( 92440 PWs)   bands (ev):

   -13.9658 -11.1358  -7.9129  -6.5270  -5.7139  -5.3590  -5.3212  -5.1972
    -4.7382  -4.5709  -4.2512  -4.2415  -4.2309  -4.2048  -4.1734  -4.1535
    -4.1078  -4.0548  -4.0306  -3.9725  -3.7402  -3.6841  -3.6535  -3.6392
    -3.6219  -3.5610  -3.5487  -3.5015  -3.4426  -3.4203  -3.3873  -3.3351
    -3.3034  -3.2917  -3.2635  -3.2340  -3.1861  -3.1720  -3.1556  -3.1222
    -3.0740  -3.0459  -2.9832  -2.8090  -2.7480  -2.7152  -2.6773  -2.6526
    -2.6265  -2.6152  -2.5814  -2.5393  -2.4781  -2.4643  -2.4189  -2.3889
    -2.3266  -2.2919  -2.2440  -2.2113  -2.1957  -2.1823  -2.1140  -2.0731
    -2.0348  -1.9809  -1.9367  -1.8909  -1.8655  -1.8357  -1.7898  -1.7845
    -1.7392  -1.7210  -1.6895  -1.6256  -1.5804  -1.5638  -1.5493  -1.5353
    -1.5070  -1.4353  -1.4058  -1.3807  -1.3515  -1.3115  -1.2695  -1.2516
    -1.2429  -1.2156  -1.2051  -1.1915  -1.1571  -1.1453  -1.1201  -1.1032
    -1.0929  -1.0290  -1.0192  -0.9743  -0.9591  -0.9444  -0.9113  -0.9054
    -0.8856  -0.8607  -0.8450  -0.8205  -0.8086  -0.7926  -0.7726  -0.7392
    -0.6954  -0.6705  -0.6211  -0.6024  -0.5502  -0.5153  -0.4947  -0.4613
    -0.4177  -0.3360  -0.2872  -0.2448  -0.2005  -0.1654  -0.1448  -0.1278
    -0.0715  -0.0675  -0.0192  -0.0057   0.0193   0.0456   0.0858   0.1283
     0.1669   0.2201   0.2573   0.2765   0.2883   0.3267   0.3905   0.4344
     0.4649   0.4903   0.5219   0.5391   0.5877   0.6050   0.6234   0.6415
     0.7261   0.7621   0.7907   0.8212   0.8310   0.8476   0.8608   0.8723
     0.8975   0.9083   0.9870   1.0305   1.0619   1.1361   1.1749   1.2360
     1.3414   1.3686   1.3811   1.4049   1.4110   1.4761   1.5182   1.5417
     1.5485   1.5700   1.5837   1.6010   1.6266   1.6359   1.6668   1.6782
     1.7261   1.7493   1.7661   1.8004   1.8258   1.8633   1.8855   2.0052
     2.0354   2.0550   2.0688   2.1046   2.1467   2.2070   2.2651   2.3753
     2.4458   2.7878   2.8104   3.0806   3.2736   3.3347   3.4111   3.5674
     3.8163   4.0735   4.1900   4.2503   4.3298   4.5299   5.0926   5.3270
     5.4150   5.5124   5.6070   5.7970   6.0091   6.1093   6.1653   6.2056
     6.3571   6.5049

          k = 0.4000 0.2309 0.0000 ( 92424 PWs)   bands (ev):

   -13.9657 -11.1355  -7.9107  -6.3942  -5.8025  -5.6607  -5.1618  -4.8447
    -4.7421  -4.6291  -4.4971  -4.4189  -4.3143  -4.1681  -4.0581  -4.0124
    -3.9757  -3.9483  -3.8326  -3.8119  -3.7711  -3.7439  -3.7293  -3.6436
    -3.6320  -3.5874  -3.5729  -3.5513  -3.5228  -3.5003  -3.4516  -3.4297
    -3.3834  -3.3548  -3.1738  -3.1678  -3.1414  -3.1220  -3.0862  -3.0351
    -2.9432  -2.9210  -2.8997  -2.8846  -2.8576  -2.7943  -2.6977  -2.6901
    -2.6210  -2.5918  -2.5583  -2.5219  -2.4941  -2.4658  -2.4290  -2.4134
    -2.3992  -2.3710  -2.2924  -2.2465  -2.2132  -2.1835  -2.1290  -2.0774
    -2.0255  -2.0026  -1.9872  -1.9555  -1.9473  -1.8355  -1.8040  -1.7879
    -1.7754  -1.7250  -1.6766  -1.6562  -1.6402  -1.5963  -1.5394  -1.5127
    -1.4702  -1.4396  -1.4221  -1.3758  -1.3603  -1.3299  -1.3120  -1.2862
    -1.2785  -1.2522  -1.2449  -1.2284  -1.2175  -1.1982  -1.1350  -1.1192
    -1.0840  -1.0659  -1.0553  -1.0297  -0.9907  -0.9705  -0.9280  -0.8928
    -0.8613  -0.8484  -0.8275  -0.8165  -0.7749  -0.7308  -0.7121  -0.6774
    -0.6231  -0.6085  -0.5637  -0.5602  -0.5180  -0.4970  -0.3933  -0.3638
    -0.3371  -0.3075  -0.2590  -0.2303  -0.2189  -0.1754  -0.1565  -0.1392
    -0.0991  -0.0937  -0.0724  -0.0612  -0.0545  -0.0173   0.0168   0.0575
     0.1057   0.1437   0.1653   0.1934   0.2070   0.2929   0.3242   0.4040
     0.4203   0.4847   0.4947   0.5734   0.6051   0.6333   0.6734   0.7004
     0.7278   0.7532   0.7695   0.8048   0.8311   0.8497   0.9021   0.9342
     0.9624   1.0012   1.0143   1.0267   1.0555   1.1176   1.1773   1.2395
     1.2518   1.2709   1.3004   1.3779   1.4105   1.4182   1.4277   1.4580
     1.4941   1.5401   1.5601   1.5683   1.6007   1.6655   1.7034   1.7300
     1.7366   1.7555   1.7691   1.8158   1.8386   1.9182   1.9637   1.9927
     2.0050   2.0242   2.0945   2.1847   2.2509   2.3372   2.5170   2.6694
     2.9057   3.0111   3.0620   3.2195   3.2890   3.4589   3.6761   3.8305
     4.0104   4.2541   4.3080   4.3451   4.4488   4.4949   4.6883   4.7947
     4.9734   5.1609   5.3701   5.5606   5.7984   6.0467   6.2172   6.2605
     6.5791   6.6472

          k = 0.4000-0.6928 0.0000 ( 92446 PWs)   bands (ev):

   -13.9656 -11.1351  -7.9067  -6.0342  -5.9966  -5.6781  -5.3767  -4.9501
    -4.7722  -4.5624  -4.4651  -4.2282  -4.1751  -4.0909  -4.0463  -3.9497
    -3.9396  -3.8538  -3.8368  -3.7922  -3.7300  -3.7204  -3.7080  -3.6953
    -3.6585  -3.6325  -3.5969  -3.5249  -3.5075  -3.4995  -3.4729  -3.4634
    -3.3722  -3.3454  -3.2458  -3.2338  -3.1966  -3.1500  -3.0985  -3.0743
    -3.0422  -2.9782  -2.9349  -2.8803  -2.8743  -2.7000  -2.6960  -2.6675
    -2.6163  -2.5879  -2.5618  -2.4929  -2.4495  -2.4154  -2.3690  -2.3466
    -2.3291  -2.2802  -2.2235  -2.1888  -2.1674  -2.1488  -2.1197  -2.1063
    -2.0715  -2.0486  -2.0235  -2.0053  -1.9710  -1.9490  -1.9199  -1.8765
    -1.8139  -1.7798  -1.7572  -1.7168  -1.6396  -1.6236  -1.6067  -1.5745
    -1.5635  -1.5366  -1.5078  -1.4593  -1.4416  -1.4109  -1.3647  -1.3529
    -1.2941  -1.2512  -1.2205  -1.2065  -1.1957  -1.1829  -1.1388  -1.0779
    -1.0373  -1.0203  -1.0084  -0.9728  -0.9521  -0.9322  -0.9210  -0.9019
    -0.8873  -0.8585  -0.8504  -0.8296  -0.7871  -0.7689  -0.7561  -0.7397
    -0.7243  -0.7124  -0.6959  -0.6670  -0.5368  -0.5269  -0.4747  -0.4378
    -0.3690  -0.3271  -0.2853  -0.2490  -0.2305  -0.1960  -0.1748  -0.1536
    -0.1363  -0.1163  -0.0908  -0.0627  -0.0285  -0.0049   0.0729   0.1102
     0.1203   0.1484   0.1645   0.2314   0.2803   0.3268   0.3538   0.4274
     0.4491   0.4644   0.4951   0.5314   0.5466   0.5608   0.5713   0.6413
     0.6697   0.6768   0.7066   0.7549   0.7655   0.7965   0.8214   0.8599
     0.9257   0.9619   1.0498   1.0899   1.1197   1.2188   1.2356   1.2714
     1.2981   1.3463   1.3688   1.3985   1.4471   1.4941   1.5089   1.5535
     1.5739   1.5960   1.6372   1.6486   1.6893   1.7144   1.7284   1.7549
     1.7717   1.7966   1.8057   1.8642   1.8980   1.9296   1.9958   2.0219
     2.0380   2.0810   2.0980   2.1429   2.2505   2.4289   2.7782   2.9829
     3.1712   3.2123   3.3862   3.4533   3.4733   3.5969   3.7936   3.9990
     4.1515   4.2517   4.3176   4.5170   4.6634   4.7389   4.9069   4.9681
     5.0506   5.0844   5.1831   5.4381   5.4758   5.6379   5.9532   6.1783
     6.2770   6.3720

          k = 0.4000-0.4619 0.0000 ( 92446 PWs)   bands (ev):

   -13.9656 -11.1352  -7.9063  -6.0596  -5.9760  -5.6616  -5.3884  -4.9073
    -4.7537  -4.6783  -4.4101  -4.2204  -4.1991  -4.0874  -4.0579  -3.9493
    -3.9399  -3.8441  -3.8368  -3.8140  -3.7356  -3.7228  -3.6981  -3.6902
    -3.6574  -3.6305  -3.5998  -3.5229  -3.5091  -3.4964  -3.4688  -3.4602
    -3.3667  -3.3006  -3.2450  -3.2171  -3.1735  -3.1467  -3.0952  -3.0905
    -3.0513  -3.0238  -2.9408  -2.8866  -2.8739  -2.7149  -2.6903  -2.6686
    -2.6161  -2.5939  -2.5657  -2.4961  -2.4453  -2.4131  -2.3610  -2.3447
    -2.3136  -2.2826  -2.2222  -2.1984  -2.1751  -2.1491  -2.1210  -2.1041
    -2.0708  -2.0502  -2.0226  -2.0119  -1.9727  -1.9519  -1.9182  -1.8902
    -1.8114  -1.7847  -1.7534  -1.7031  -1.6398  -1.6285  -1.5996  -1.5729
    -1.5608  -1.5394  -1.5076  -1.4613  -1.4425  -1.4078  -1.3640  -1.3551
    -1.2991  -1.2492  -1.2160  -1.2082  -1.1986  -1.1851  -1.1303  -1.0800
    -1.0410  -1.0258  -1.0004  -0.9695  -0.9538  -0.9277  -0.9178  -0.8985
    -0.8811  -0.8523  -0.8459  -0.8245  -0.7916  -0.7675  -0.7532  -0.7407
    -0.7263  -0.7208  -0.6955  -0.6678  -0.5282  -0.5141  -0.4770  -0.4338
    -0.3643  -0.3291  -0.2850  -0.2535  -0.2336  -0.1959  -0.1674  -0.1618
    -0.1382  -0.1187  -0.0896  -0.0664  -0.0281  -0.0049   0.0741   0.1123
     0.1215   0.1505   0.1694   0.2358   0.2767   0.3340   0.3466   0.4271
     0.4473   0.4611   0.4937   0.5299   0.5467   0.5566   0.5697   0.6421
     0.6666   0.6767   0.7084   0.7524   0.7681   0.7946   0.8230   0.8617
     0.9293   0.9663   1.0469   1.0927   1.1218   1.2141   1.2352   1.2695
     1.2995   1.3399   1.3681   1.3971   1.4503   1.4942   1.5088   1.5528
     1.5767   1.5979   1.6329   1.6493   1.6916   1.7153   1.7259   1.7533
     1.7692   1.7979   1.8082   1.8653   1.8974   1.9332   1.9911   2.0136
     2.0353   2.0792   2.0954   2.1418   2.2505   2.4162   2.8069   2.9453
     3.1714   3.2096   3.3728   3.4590   3.4762   3.6026   3.8276   3.9926
     4.1374   4.2413   4.3143   4.5303   4.6628   4.7450   4.8908   4.9130
     5.0443   5.0817   5.2418   5.4451   5.5216   5.6682   5.9529   6.1676
     6.2602   6.3605

     the Fermi energy is     1.8078 ev

!    total energy              =  -27816.16663921 Ry

     total all-electron energy =  -1326876.224334 Ry
     estimated scf accuracy    <       0.00000073 Ry
     smearing contrib. (-TS)   =       0.00405700 Ry
     internal energy E=F+TS    =  -27816.17069621 Ry

     The total energy is F=E-TS. E is the sum of the following terms:
     one-electron contribution =  -29249.70806951 Ry
     hartree contribution      =   14927.61254027 Ry
     xc contribution           =    -907.50839396 Ry
     ewald contribution        =   12907.07408731 Ry
     one-center paw contrib.   =  -25493.64086032 Ry

     convergence has been achieved in  20 iterations

     negative rho (up, down):  1.336E-02 0.000E+00

     Forces acting on atoms (cartesian axes, Ry/au):

     atom    1 type  1   force =    -0.00121912   -0.00085866   -0.00366000
     atom    2 type  1   force =     0.00080661   -0.00085155   -0.00352314
     atom    3 type  1   force =    -0.00015425   -0.00067409   -0.00427997
     atom    4 type  1   force =    -0.00015514    0.00207326   -0.00660065
     atom    5 type  1   force =    -0.00090436   -0.00039866   -0.00324130
     atom    6 type  1   force =     0.00063965   -0.00045632   -0.00326807
     atom    7 type  1   force =    -0.00075838   -0.00070745   -0.00476580
     atom    8 type  1   force =    -0.00016976   -0.00004742   -0.00346254
     atom    9 type  1   force =     0.00050718   -0.00067792   -0.00471734
     atom   10 type  1   force =     0.00072233   -0.00305156    0.00076660
     atom   11 type  1   force =    -0.00217777    0.00133719    0.00377498
     atom   12 type  1   force =     0.00302906    0.00128424    0.00322415
     atom   13 type  1   force =    -0.00030035   -0.00247387    0.00280124
     atom   14 type  1   force =     0.00021849    0.00163962    0.01022541
     atom   15 type  1   force =     0.00119077   -0.00235895    0.00218342
     atom   16 type  1   force =     0.00404051    0.00194166    0.00702659
     atom   17 type  1   force =    -0.00325386    0.00201731    0.00732184
     atom   18 type  1   force =     0.00041789    0.00140443    0.00081670
     atom   19 type  1   force =    -0.00025131   -0.00003384   -0.00038057
     atom   20 type  1   force =     0.00029849    0.00032351   -0.00015669
     atom   21 type  1   force =    -0.00003596    0.00012438   -0.00003328
     atom   22 type  1   force =     0.00007188   -0.00038221   -0.00054325
     atom   23 type  1   force =     0.00017014   -0.00022343   -0.00002110
     atom   24 type  1   force =    -0.00011272   -0.00038857    0.00021184
     atom   25 type  1   force =     0.00018843    0.00009715   -0.00075882
     atom   26 type  1   force =    -0.00003104   -0.00023115    0.00015160
     atom   27 type  1   force =    -0.00047203    0.00017393   -0.00064219
     atom   28 type  1   force =     0.00016943    0.00001732    0.00009927
     atom   29 type  1   force =     0.00003042    0.00028994    0.00004723
     atom   30 type  1   force =    -0.00014149    0.00017119    0.00026423
     atom   31 type  1   force =     0.00005403   -0.00039791   -0.00002797
     atom   32 type  1   force =    -0.00017124   -0.00025660   -0.00010875
     atom   33 type  1   force =    -0.00027425    0.00020596    0.00013550
     atom   34 type  1   force =     0.00009617   -0.00024838    0.00024249
     atom   35 type  1   force =    -0.00012341    0.00024214    0.00066873
     atom   36 type  1   force =    -0.00014651   -0.00030128    0.00033811
     atom   37 type  2   force =    -0.00097935    0.00190461    0.00015066
     atom   38 type  2   force =     0.00002537    0.00174472    0.00058943
     atom   39 type  2   force =    -0.00054055    0.00175105    0.00104235
     atom   40 type  3   force =    -0.00035103   -0.00046604   -0.00001448
     atom   41 type  3   force =    -0.00015479    0.00050669    0.00050819
     atom   42 type  3   force =    -0.00005344   -0.00068230   -0.00016918
     atom   43 type  3   force =     0.00025526   -0.00308213   -0.00221546

     Total force =     0.005689     Total SCF correction =     0.002319
     SCF correction compared to forces is large: reduce conv_thr to get better values

     negative rho (up, down):  1.336E-02 0.000E+00

     negative rho (up, down):  1.336E-02 0.000E+00

     negative rho (up, down):  1.336E-02 0.000E+00

     negative rho (up, down):  1.336E-02 0.000E+00

     negative rho (up, down):  1.336E-02 0.000E+00

     negative rho (up, down):  1.336E-02 0.000E+00

     negative rho (up, down):  1.336E-02 0.000E+00

     negative rho (up, down):  1.336E-02 0.000E+00

     negative rho (up, down):  1.336E-02 0.000E+00

     negative rho (up, down):  1.336E-02 0.000E+00

     negative rho (up, down):  1.336E-02 0.000E+00

     negative rho (up, down):  1.336E-02 0.000E+00

     negative rho (up, down):  1.336E-02 0.000E+00

     negative rho (up, down):  1.336E-02 0.000E+00

     negative rho (up, down):  1.336E-02 0.000E+00

     negative rho (up, down):  1.336E-02 0.000E+00

     negative rho (up, down):  1.336E-02 0.000E+00

     negative rho (up, down):  1.336E-02 0.000E+00

     negative rho (up, down):  1.336E-02 0.000E+00

     negative rho (up, down):  1.336E-02 0.000E+00

     negative rho (up, down):  1.336E-02 0.000E+00

     negative rho (up, down):  1.336E-02 0.000E+00

     negative rho (up, down):  1.336E-02 0.000E+00

     negative rho (up, down):  1.336E-02 0.000E+00

     negative rho (up, down):  1.336E-02 0.000E+00

     negative rho (up, down):  1.336E-02 0.000E+00

     negative rho (up, down):  1.336E-02 0.000E+00

     negative rho (up, down):  1.336E-02 0.000E+00

     negative rho (up, down):  1.336E-02 0.000E+00

     negative rho (up, down):  1.336E-02 0.000E+00

     negative rho (up, down):  1.336E-02 0.000E+00

     negative rho (up, down):  1.336E-02 0.000E+00

     negative rho (up, down):  1.336E-02 0.000E+00

     negative rho (up, down):  1.336E-02 0.000E+00
 BEEFens 2000 ensemble energies
             -0.607490828721031E+02
             -0.361659364828836E+01
             -0.158503225655124E+02
              0.429890091650976E+02
             -0.221341263201980E+02
             -0.205462941556335E+02
             -0.352779957893451E+02
             -0.866093424093343E+02
             -0.465417161016697E+02
             -0.473087264867742E+02
             -0.369695591908626E+02
              0.227373895765277E+01
              0.407897963841975E+01
              0.761157054615029E+01
              0.266145148162974E+01
              0.475469693296063E+02
             -0.209032977282297E+02
             -0.230356939007727E+02
              0.193344520328461E+02
             -0.112501233015368E+03
              0.536937404291250E+02
             -0.289996060564355E+02
             -0.335462108514999E+01
             -0.114132157907340E+02
             -0.883513136996339E+01
             -0.464883464101499E+01
              0.883723840721406E+02
             -0.187288641912571E+02
             -0.901528157327732E+01
             -0.519105514404788E+02
              0.816307682241254E+02
             -0.187320096382018E+02
             -0.375493136314351E+02
              0.249435204511268E+02
             -0.284268812161599E+01
              0.164472693217281E+02
             -0.485063238529818E+01
              0.108010353952117E+02
              0.288788088347134E+02
             -0.103384051522871E+03
              0.558962705453992E+02
              0.142502841175400E+02
             -0.172859288130428E+01
             -0.361833651903779E+02
              0.123333171633480E+02
             -0.146861632901418E+02
              0.399055376193668E+02
              0.365182087255178E+02
             -0.308262009153755E+02
             -0.275512601660347E+02
             -0.328803260801124E+02
             -0.352516229485691E+02
              0.136552154187242E+02
             -0.491509760890185E+02
              0.115731849455680E+02
              0.623704858070011E+02
              0.636179574337941E+02
              0.356116048300662E+02
              0.154285137603489E+02
              0.270860529078908E+02
              0.892393811756699E+02
              0.212854546415873E+02
             -0.549161692945954E+02
             -0.157154008575094E+02
             -0.236273174861125E+02
              0.630586015066239E+02
             -0.774166159223034E+02
             -0.672372271343398E+02
             -0.259790869286422E+02
             -0.648453004110047E+01
             -0.471310762321610E+02
              0.270960517989233E+02
              0.802845549735810E+01
              0.869633009108242E+01
             -0.397596792358501E+02
             -0.347268582267261E+02
             -0.542536042838466E+02
              0.390730022284838E+02
             -0.296325912605442E+02
              0.265547751625047E+02
             -0.715877701778387E+01
             -0.318364542178948E+02
             -0.576790970185977E+02
             -0.176876494346371E+02
             -0.908294521961807E+01
             -0.124907328130756E+02
              0.412584142646221E+02
              0.683594768270698E+02
             -0.386069125729934E+02
             -0.795541171563279E+02
             -0.219797554863756E+02
              0.111624468362121E+03
             -0.592978299038357E+02
              0.356487698587783E+02
             -0.959001119044751E+01
             -0.663807372159576E+02
              0.254685669268815E+02
              0.398291954321849E+02
             -0.199006971835936E+02
              0.400520053596451E+02
             -0.296286336179046E+02
             -0.478863387290220E+02
              0.867035722876782E+02
              0.454482566101741E+02
              0.336604341504019E+02
              0.146592707483345E+02
              0.205886588359733E+02
              0.857383553062504E+02
             -0.256935135031213E+02
              0.787648436799086E+01
             -0.142550736111713E+03
              0.181335464803122E+02
             -0.716958986722101E+02
              0.151042787916344E+02
              0.204821156789532E+02
             -0.333295312352496E+02
             -0.557718961320989E+02
              0.654379781538228E+01
             -0.304518929309205E+02
              0.308502174404869E+02
             -0.530297392415561E+02
              0.170038495764732E+01
             -0.357372532411972E+02
             -0.424229505438342E+01
             -0.102760598975462E+01
              0.181449272438749E+02
              0.142893707290966E+01
             -0.651969549298633E+01
              0.591082283283992E+02
              0.909231724431887E+02
              0.484707141892558E+02
              0.830961970933299E+02
             -0.115187128373313E+02
              0.143223595924684E+02
              0.541554072387265E+02
             -0.110724970422480E+02
             -0.736499872937636E+02
             -0.384585380553205E+02
             -0.522235322631671E+02
             -0.277002031095511E+02
              0.327495499802585E+02
             -0.116914958784257E+03
             -0.187312634181837E+02
              0.414615753076193E+02
             -0.386701061557407E+02
             -0.365722202233261E+02
              0.544765746227939E+02
              0.401226849584946E+02
             -0.354202416273161E+02
              0.138072729067644E+02
             -0.273469444260472E+02
              0.343586113113001E+02
              0.446422769174910E+01
              0.211206595807687E+02
             -0.885544914785384E+02
             -0.480620641331532E+02
             -0.995722360037701E+01
              0.322216900607523E+01
             -0.367176194823941E+02
              0.106145239059515E+03
             -0.230965313280304E+02
             -0.398874185648079E+02
              0.389292395757991E+02
             -0.494700646477994E+02
             -0.363764494151846E+02
              0.325173294990227E+02
              0.124663632255978E+02
              0.164609131005841E+02
              0.116748240764279E+02
             -0.132970578949192E+02
              0.225186007641469E+02
              0.590706484271523E+02
             -0.311897093180816E+02
              0.162728462844385E+02
              0.935308150008132E+02
              0.341074585413570E+02
             -0.728764541595399E+01
             -0.188872498279820E+02
              0.153506462622908E+03
             -0.164429593605481E+02
              0.363676948870028E+02
              0.194818594833383E+02
              0.361862591428540E+02
              0.893027454740156E+02
              0.543460942566550E+02
             -0.241010838811517E+01
              0.228039487449901E+02
              0.485529216711540E+02
              0.363930143782684E+02
             -0.526151968954424E+02
              0.936951096087811E+02
             -0.826469508781774E+02
             -0.198195462976007E+02
              0.583403841056056E+02
              0.678087139359295E+01
              0.790735947194548E+01
              0.341115280092645E+02
              0.299276664769359E+02
              0.353958328103830E+02
             -0.638288119665131E+02
              0.287565272078257E+01
             -0.297802031214408E+02
             -0.871101827658018E+01
             -0.146350767002218E+01
             -0.724866442131286E+01
             -0.415444779987746E+01
              0.860117911294980E+02
             -0.101074607601816E+02
             -0.276655238123848E+02
             -0.496229321834665E+01
              0.140145328989845E+02
             -0.564730360242772E+02
             -0.407846069338952E+02
             -0.382385279262528E+02
             -0.630980232131360E+02
             -0.169988292604201E+02
             -0.447920937985655E+02
              0.163507529036426E+02
             -0.239202899035720E+01
             -0.104519362487259E+02
             -0.935104224533623E+01
              0.807962061835417E+01
             -0.242860669569616E+02
              0.689972425203353E+02
             -0.808079905659926E+02
             -0.141194481298404E+02
             -0.174163131201224E+02
              0.182028058782738E+02
              0.214749055187289E+02
             -0.464399981402232E+02
             -0.202082343224503E+02
              0.441345365050837E+02
             -0.276312219907351E+02
              0.187147671683668E+02
              0.383104747277156E+02
             -0.322726341370219E+01
              0.114266449891673E+03
             -0.230176450622574E+02
             -0.341376565078484E+02
              0.577927866219750E+01
             -0.228562407499099E+02
              0.528211588546979E+02
             -0.337794862343023E+02
              0.106714056485881E+02
              0.641014262698737E+02
             -0.126355319494011E+02
              0.120358649851864E+03
              0.125998361915401E+03
             -0.650587898991937E+02
              0.591184383310948E+02
              0.166821798058800E+02
             -0.518338501483890E+02
              0.216348728234341E+02
              0.354404606839648E+02
              0.363236513364330E+02
              0.135167750870914E+01
              0.159946299942922E+02
              0.696487211058611E+02
             -0.247211014082209E+02
              0.181331633417541E+02
              0.739563109357952E+02
             -0.372856518786108E+02
             -0.129990027939020E+02
              0.509241181064043E+02
              0.297759416444164E+02
              0.781168712502092E+02
              0.223077439556575E+02
              0.626870656874900E+01
              0.280673729866989E+02
              0.383724857825901E+02
             -0.472327728917492E+02
              0.332883941020799E+01
              0.130099815941753E+02
              0.113896333148118E+02
              0.220777367962718E+02
             -0.575480969555838E+02
              0.366438689242004E+02
             -0.444352719117726E+02
             -0.347747896787740E+02
              0.178231552513489E+02
             -0.181441741819990E+02
              0.555805499584587E+02
             -0.256190058223945E+02
              0.267109689883135E+02
              0.368605492020039E+02
              0.830027348809841E+02
              0.575144305825461E+02
              0.462227559455344E+02
             -0.105538193720682E+02
             -0.393123456047732E+01
             -0.332304735937130E+02
              0.751548891782621E+02
              0.798064281294786E+02
              0.362348340279158E+02
             -0.192303943163157E+02
              0.512384606923499E+02
             -0.162721794718731E+02
              0.214888016315001E+02
              0.615219263971456E+02
              0.214012596326390E+01
             -0.104472367450047E+02
             -0.283196033425378E+02
             -0.512333605226365E+02
              0.946409937431391E+02
              0.440302081750209E+02
             -0.559874182878034E+02
             -0.966322243409695E+01
              0.250083377721428E+02
             -0.997162847113657E+01
              0.592854329889382E+02
              0.152389276480444E+02
              0.800139743702690E+02
              0.279831160171680E+02
             -0.264223862564722E+02
              0.249179118357783E+02
             -0.502967904025104E+01
             -0.323868602912373E+02
              0.133381586694646E+02
              0.205890624158479E+02
              0.933817652597383E+02
              0.798144135467737E+02
              0.551622417093529E+02
              0.731447924119268E+02
              0.801063456950212E+01
             -0.273977487126645E+02
              0.163323058009371E+02
             -0.368336588468544E+02
             -0.476944147509276E+02
             -0.564184532987568E+02
             -0.266917636393910E+02
             -0.109810237551276E+03
             -0.291864456979571E+02
             -0.838196210800199E+02
              0.210312386207722E+02
             -0.477457811464897E+02
              0.397438070198605E+02
             -0.942446026494449E+02
             -0.330450799538589E+02
              0.548865615602440E+02
              0.207946062299001E+02
             -0.831687592712099E+02
              0.631580184142656E+02
             -0.257138488180250E+02
              0.513022013791869E+02
             -0.242868579451079E+02
             -0.752153774622693E+02
              0.112152952082973E+02
             -0.612044115605009E+02
             -0.168090596985485E+02
             -0.148649880625563E+01
              0.418657598631426E+02
              0.127147831996734E+03
             -0.462167319387322E+02
             -0.363116325742535E+02
             -0.986559149340678E+00
             -0.130253697850213E+02
             -0.823482771763391E+02
             -0.597359408035853E+02
              0.517767403529597E+02
             -0.289087432057605E+02
              0.169635086880907E+02
             -0.489922800180182E+02
             -0.132106165728561E+02
             -0.437720226732604E+02
              0.566101915907900E+02
              0.151198221503398E+02
             -0.231952515672472E+02
             -0.127148855455053E+02
              0.668828604438693E+01
             -0.619490079015185E+01
              0.441975131565058E+02
             -0.252278818941273E+02
              0.278306320174374E+01
              0.339653283115177E+02
              0.171396626285773E+02
             -0.160074157075828E+02
              0.156440003060750E+03
              0.538646777458723E+02
              0.118938405258112E+01
              0.161735190767376E+02
             -0.615366926910949E+02
              0.315438679946981E+02
             -0.722676843867093E+02
             -0.252583164867116E+02
             -0.523335988095674E+02
             -0.220276979544256E+02
              0.569933948771542E+02
             -0.537631604096874E+02
              0.161216680030042E+02
             -0.409378895823693E+01
              0.387760646091809E+01
             -0.434164343223244E+02
             -0.478805740349310E+02
             -0.401992619831435E+01
             -0.425219887512673E+02
             -0.217453987914374E+02
             -0.438916460075751E+02
             -0.119310294185472E+02
             -0.359292989885878E+02
             -0.517023543196572E+02
              0.212892524496749E+02
             -0.209361275682579E+02
              0.188102045515581E+02
              0.975340539139552E+01
             -0.738845287494648E+02
             -0.548638763611852E+02
             -0.398823403976364E+02
              0.354496385237071E+02
              0.268964459044321E+01
             -0.627279471108227E+02
              0.586326322799241E+02
             -0.401645045785543E+02
              0.545574100667820E+02
             -0.289915127672540E+02
             -0.446489820149617E+02
              0.298768634548265E+02
             -0.658553119750057E+02
             -0.380159212843855E+02
              0.673257392870850E+02
              0.204245267698876E+02
             -0.360608559520222E+02
              0.490001752928670E+02
             -0.174162497135253E+02
             -0.323192162407054E+02
             -0.302056519290819E+02
             -0.501265018339712E+02
              0.249728530813418E+02
             -0.934000504118646E+02
             -0.840997649475477E+02
             -0.735166864597090E+01
             -0.307191527684210E+02
             -0.576299717848869E+02
              0.722744623270241E+02
              0.131690579212404E+03
             -0.361071004163496E+02
             -0.256550687164224E+01
             -0.637670501371649E+02
              0.651400502357867E+02
              0.170962193618853E+02
             -0.181830333722110E+02
             -0.410447720808587E+02
              0.148814965497258E+02
             -0.586828065973350E+02
             -0.197819067408071E+02
             -0.905609299095103E+02
              0.337342777859210E+02
              0.169068953496389E+02
              0.183104017379742E+01
             -0.707820681032740E+01
             -0.330095009264837E+02
             -0.760243775151929E+01
              0.125676612153775E+03
             -0.199240921539472E+02
             -0.437955163631958E+02
             -0.684754385535667E+02
              0.109402702473530E+02
             -0.342599817422933E+02
              0.591977289614736E+01
              0.261882690739812E+02
              0.102182057090666E+02
              0.278327002868266E+02
              0.120119965990378E+02
              0.630316243974856E+02
              0.317060670984372E+02
             -0.327014637779720E+02
              0.356358699743265E+02
              0.379912081433695E+02
              0.121042074946648E+02
              0.487307835789737E+02
             -0.225218325860212E+02
              0.766538094846932E+02
              0.172735868759935E+02
             -0.272603585106370E+02
             -0.723276465338230E+01
             -0.186571888628278E+02
              0.262002312356406E+02
             -0.234809827037979E+02
             -0.145832074857452E+00
             -0.850004240329520E+01
              0.810738036510711E+02
              0.500707267497289E+02
             -0.687770108250577E+02
             -0.477085401563036E+01
             -0.555956181051495E+02
             -0.159654347228856E+02
             -0.268467376558143E+02
              0.377033352596311E+01
              0.585068920698394E+00
             -0.257864316185841E+02
              0.816318237366124E+01
             -0.604034735402558E+01
             -0.128552885067659E+02
              0.860057515337187E+02
              0.182003448297853E+02
             -0.807986885197867E+02
             -0.458761174861320E+02
              0.946091292532408E+02
              0.278044727723309E+02
             -0.106939281545541E+02
              0.104682505849157E+03
             -0.195038920061839E+02
             -0.123137599336895E+02
             -0.540874520675266E+01
              0.107563696188696E+02
              0.272854867347077E+02
              0.780687395988735E+01
              0.305708709569142E+02
             -0.188104017567379E+02
             -0.304295955884660E+02
             -0.418279645624874E+02
             -0.477360162273279E+02
              0.464431868766520E+02
              0.127038570324288E+02
              0.388016733393148E+02
              0.133649999612066E+02
              0.856680326815891E+02
              0.156746047139446E+02
             -0.846961126654405E+02
             -0.334803526042368E+02
              0.133747036288220E+02
             -0.303131503050496E+02
              0.627310434682063E+02
             -0.888037863939053E+01
              0.148981348146912E+02
              0.497919858151643E+02
             -0.708339513075803E+02
              0.149904906302927E+03
              0.208892422466587E+02
              0.271682631687781E+02
              0.348070385567884E+02
              0.103652303902564E+02
             -0.157454355481690E+01
              0.358774783555987E+02
             -0.357480541808346E+02
              0.774313111660013E+02
              0.685739714606162E+02
             -0.406420095872463E+02
              0.149641660180936E+02
              0.671064245756660E+02
             -0.224204944519704E+02
              0.154674769049549E+02
              0.435408791343929E+02
              0.422728231849109E+02
             -0.785595847622924E+02
             -0.152696415097347E+02
             -0.356394420879477E+02
             -0.148870007165056E+01
             -0.766280714237375E+01
             -0.543130995384297E+01
             -0.180810632193376E+02
             -0.294116842347648E+02
              0.636194913219572E+01
              0.111801744968788E+02
              0.536254712805508E+02
             -0.390849051743391E+02
              0.374997813393649E+02
              0.439092720638695E+02
             -0.186649929122472E+02
              0.873041112918160E+02
             -0.698710744051856E+02
             -0.103305262064139E+03
             -0.661005573720788E+01
             -0.269010180818418E+01
              0.385818850793964E+01
              0.790420608853097E+02
             -0.107059641123786E+02
              0.417203443285280E+02
              0.444361924040650E+02
              0.385816070192433E+02
             -0.995740352923383E+01
              0.628256583680156E+02
             -0.133860729745523E+02
             -0.307900046999490E+02
             -0.479685032580371E+02
              0.589492394466156E+01
              0.369898428797939E+02
             -0.603105284551916E+01
              0.393393618487383E+02
             -0.176169501084507E+01
              0.655883319843386E+02
              0.187548550543209E+02
              0.999815457985066E+01
             -0.121668138775070E+02
              0.332473957042698E+02
              0.363217459969773E+02
              0.232874844715678E+02
             -0.518759517010892E+00
             -0.551196336020298E+02
              0.261147313950607E+02
              0.175475315347111E+02
              0.402941483167684E+02
              0.272621965901064E+02
              0.372994038200383E+02
             -0.606244992096336E+01
              0.251492536995922E+02
             -0.299024538797596E+02
             -0.197312191358264E+01
             -0.569814462399115E+02
             -0.308473939932144E+02
              0.379297085707566E+02
             -0.936636792398493E+02
              0.294681711085095E+02
              0.184132972681089E+02
              0.841278673817719E+02
             -0.300584562726902E+02
              0.329828263080136E+02
             -0.137935861835947E+02
             -0.464637330729992E+02
             -0.762413885695579E+02
             -0.528458936419740E+01
             -0.861039573705778E+02
              0.199816175679449E+02
             -0.247727382752824E+02
              0.306277510971686E+02
              0.237283754490875E+02
             -0.241446285470869E+02
             -0.265712519379269E+02
              0.391499751242819E+02
             -0.588899465662872E+02
             -0.116848323138173E+02
             -0.196280195038835E+02
              0.212985525793342E+02
             -0.889733126526528E+01
              0.363259386377780E+01
             -0.200764492576485E+02
              0.559446169306868E+02
             -0.440310884576137E+02
              0.787742023332282E+01
              0.586057117397295E+02
             -0.323814994170273E+02
              0.360983835867418E+01
             -0.881268790828574E+01
             -0.670172584152692E+02
             -0.482984913767000E+02
             -0.860993927003229E+01
              0.241186151409034E+02
              0.302826944798132E+02
              0.859482138982730E+01
             -0.417240308148916E+01
              0.152056238003758E+02
             -0.440351577404229E+02
              0.332303111117517E+01
             -0.531749646058562E+02
             -0.325150389569444E+02
              0.475400065426800E+02
             -0.295562387049338E+02
              0.623326031009756E+02
             -0.214940307750837E+02
              0.354098442750586E+02
              0.242019097556071E+02
             -0.644789666501846E+02
             -0.280729752147485E+02
              0.934580094230776E+01
             -0.372329429843568E+02
             -0.340145493156219E+02
             -0.831202645484104E+02
             -0.539978364253728E+02
             -0.511040752508479E+02
             -0.416158520360096E+02
             -0.988546318453132E+00
              0.999613315385852E+01
              0.105985434144708E+01
              0.153639588463917E+02
             -0.550089994655730E+02
              0.141973730157353E+02
              0.257068458426642E+02
             -0.667637676426809E+02
             -0.702661072481811E+02
             -0.431791072539119E+02
             -0.172446292030503E+02
              0.178644537309753E+02
              0.454623589730818E+01
             -0.426492564884207E+02
              0.366566535309961E+02
             -0.216476279933306E+02
              0.518133369809715E+02
             -0.888354070195899E+02
              0.598568998483321E+02
             -0.214890860085825E+01
             -0.368961417116301E+02
             -0.216774729702818E+02
              0.471512049592589E+01
              0.375339198964495E+02
             -0.757087777707091E+02
             -0.120964853743235E+02
             -0.216825115313663E+02
              0.511532263847936E+02
              0.865789515273223E+02
             -0.966509231402813E+02
              0.945167458584060E+02
              0.468188976602723E+02
             -0.726432760095251E+02
             -0.366930324159422E+02
              0.752898570949942E+02
              0.632706042510289E+02
             -0.181306636726102E+02
             -0.464781926249594E+01
              0.734868117652212E+01
              0.650100773619088E+02
             -0.509216048863039E+02
              0.158518229068136E+02
             -0.473644209639760E+01
              0.348043283925140E+02
             -0.747826706403488E+02
             -0.648038386836112E+01
             -0.351336327431485E+02
              0.461307499445384E+02
              0.469254482895044E+02
             -0.863044648492205E+02
             -0.487648493619467E+02
             -0.256473317646318E+02
             -0.340014414814151E+02
             -0.109465634268512E+02
             -0.242957548159915E+02
              0.427911417009730E+02
              0.401650408711411E+02
[...]
              0.283714415923367E+02
              0.141951884882761E+03
              0.242672688391428E+02
              0.122765082441229E+02
             -0.464941220997734E+02
             -0.638344827788675E+02
             -0.189082015077857E+02
              0.329857845250154E+02
             -0.427617606037938E+01
              0.190250702803250E+02
              0.336587539226593E+02
             -0.587204257764159E+02
              0.222679151130748E+02
              0.582334077112698E+02
              0.553510329993510E+02
             -0.421583923211881E+01
             -0.136062446611822E+01
             -0.993884820077847E+01
             -0.482721119848146E+02
             -0.675825181577510E+02
              0.786239271890521E+02
             -0.524785527755284E+01
             -0.588379281976460E+02
              0.173026733607915E+01
             -0.205644230090565E+02
              0.939272731110970E+02
             -0.216806310946884E+02
             -0.354059606293669E+02
              0.335639555827817E+02
             -0.145902531068078E+02
              0.390089095381065E+02
             -0.236465964970364E+01
              0.101175785419115E+03
              0.490284772643618E+02
             -0.507713857099304E+01
             -0.322417340182987E+02
              0.232587507344854E+02
             -0.529085479016964E+02
             -0.127942282325988E+02
              0.586404962676384E+02
             -0.287937635528614E+02
             -0.438782733275122E+02
             -0.223487813609866E+02
              0.519254855265190E+02
              0.124908757966530E+02
             -0.849626052408921E+02
              0.304192588985827E+02
              0.152009434771040E+02
              0.578170614822122E+01
             -0.513951230781013E+02
             -0.375834906686134E+01
              0.323488866255316E+02
              0.513183471434260E+02
              0.633304323049022E+02
              0.229396962785501E+02
              0.778266952510478E+00
             -0.498618072951136E+02
             -0.510376005689296E+02
             -0.748443071568536E+02
             -0.616939782142822E+01
              0.309331150868535E+02
             -0.377692641450659E+01
              0.547426979671723E+02
             -0.318320069241954E+02
              0.166741427902738E+02
             -0.102951113745689E+02
             -0.289748817357431E+02
              0.586169343143108E+02
              0.792594924692452E+01
              0.604893091389541E+02
              0.509018869960596E+01
              0.265167784711331E+02
             -0.192871728686403E+02
              0.586727124870473E+02
             -0.111598357458982E+02
             -0.128589773384626E+00
             -0.790924855349449E+02
             -0.128371841320361E+02
              0.719717210414255E+02
              0.673772145241605E+02
              0.252140661716704E+02
             -0.130574310212116E+02
              0.344707781387436E+01
             -0.173818624643413E+02
             -0.209001623871660E+01
              0.908673889865362E+02
              0.126280211344351E+01
             -0.190771086488959E+02
             -0.110854577338844E+03
             -0.552959749759858E+02
             -0.375348214537824E+02
             -0.659145874858669E+02
             -0.556099818048130E+02
             -0.683263069402755E+02
             -0.447524296001953E+02
             -0.411116576976001E+02
             -0.452386626869892E+02
              0.483881705183616E+02
             -0.294291086568167E+02
             -0.996117407108317E+02
              0.419263615328804E+02
             -0.260353540926058E+02
             -0.791635389211091E+02
              0.944868869577517E+02
             -0.219976725364335E+02
              0.228200275607320E+02
              0.455411603907013E+02
             -0.132701195750690E+01
              0.254681249872006E+02
              0.470036276401211E+01
              0.421322360295740E+00
             -0.150690474590215E+02
             -0.716360382536865E+02
              0.133264662415053E+02
             -0.129491663138768E+03
              0.624881781338456E+02
             -0.440998417554550E+02
             -0.163225577638672E+02
             -0.158480081807413E+02
              0.716991450808483E+01
             -0.227830434845918E+02
              0.297392569559942E+02
             -0.521193277632731E+02
              0.367485270276420E+02
              0.371233763967472E+02
              0.168470215978661E+02
              0.100557881826713E+02
              0.198024263427507E+02
              0.623149712596546E+01
              0.310630074618507E+02
             -0.798149019350558E+01
             -0.593076016679140E+02
              0.758199980255046E+01
             -0.153039322480907E+02
             -0.192987946819483E+01
              0.506781289789815E+02
             -0.827546401353502E+02
             -0.149663027334748E+01
              0.580996237983072E+00
              0.996652184987317E+01
              0.318731947441267E+02
             -0.123691920542616E+02
              0.836603875939712E+02
              0.487870327113717E+02
             -0.183350057398743E+02
             -0.957091959661375E+01
              0.107140854318422E+01
              0.770321216809208E+02
             -0.586692158183412E+02
             -0.105856707403134E+03
              0.309432909315913E+02
             -0.163165586488562E+02
             -0.139562943352109E+02
              0.130811608931432E+02
              0.769201018138914E+02
              0.464481849243901E+02
             -0.153601362487410E+02
             -0.503565959415460E+02
             -0.551399656368703E+01
              0.306663259098063E+02
             -0.111767424765924E+02
             -0.756506671163286E+02
             -0.272720582843593E+01
             -0.890901248862386E+02
             -0.476158493343128E+02
              0.769407132437866E+02
             -0.484022065616506E+02
             -0.637202149752325E+02
             -0.514778672062684E+02
             -0.350164429337930E+02
              0.341168391364103E+02
              0.822381995764178E+02
             -0.358359455216868E+01
              0.276842760669644E+02
             -0.183950760258960E+02
             -0.694612059218058E+02
              0.465544648121026E+02
             -0.445475117959918E+02
              0.321935504223796E+02
              0.376435167753536E+02
             -0.657609141855363E+01
              0.390771678120814E+02
              0.438643671843667E+02
              0.100789214644350E+03
             -0.156051235370309E+02
             -0.456738832640317E+02
             -0.613453262853966E+02
             -0.124198587070568E+02
             -0.233407973260674E+02
              0.103091350650756E+03
             -0.449381407419193E+02
              0.105292480831702E+02
              0.971635338482076E+01
             -0.264754398065923E+02
             -0.799608632954249E+02
             -0.699557147423150E+01
              0.980765542135763E+02
              0.941227249494972E+01
              0.809366745840669E+01
             -0.527605260974408E+02
             -0.605950833963370E+02
             -0.566143583277344E+01
              0.500841447373097E+02
             -0.222124344507126E+02
              0.108060660222273E+03
             -0.435968266712852E+02
              0.146512976585166E+02
             -0.224242570454778E+02
             -0.719029247412450E+02
              0.169341354713038E+01
             -0.502274910696324E+02
             -0.761313213331789E+02
              0.617033616970389E+01
              0.236940635153110E+01
              0.514535483667801E+02
              0.187546166396164E+02
             -0.323918324578010E+02
              0.230187510198639E+02
             -0.811784998278650E+02
             -0.522186238448952E+02
              0.902619582011125E+02
              0.142317680471969E+02
             -0.187981187995773E+02
             -0.352511897146064E+02
             -0.269191588364788E+01
             -0.588810387988212E+01
              0.830973678013899E+02
              0.418039131496885E+02
             -0.166062445753425E+02
             -0.121801292591296E+02
             -0.427907974569226E+02
             -0.200690925633075E+02
             -0.670522932706455E+02
              0.460104110955338E+02
              0.546748712447803E+01
              0.144903958314976E+02
              0.156321728733703E+02
             -0.587633975515491E+00
             -0.168657475710236E+02
             -0.306362967525533E+01
             -0.100538011372042E+03
             -0.229862854215927E+02
             -0.765779529493869E+01
             -0.948570509020394E+01
              0.546855767098158E+02
              0.624412083121541E+02
              0.165028047273629E+02
             -0.971386272958879E+02
              0.648153859816560E+02
             -0.215232363076636E+02
             -0.377347751479427E+02
             -0.864979838195659E+02
             -0.387059511139987E+02
              0.565131059122638E+02
              0.244512720788691E+02
              0.515122358590440E+01
              0.292597847440201E+02
             -0.565367087114975E+02
             -0.422800358615486E+02
              0.515885940092472E+02
              0.387611163777871E+02
              0.519291782527670E+02
             -0.120238190055315E+01
              0.686195010394579E+01
              0.569927571265346E+02
              0.963585946423865E+02
             -0.300330285162611E+02
              0.323225655309907E+02
             -0.118927433565585E+02
             -0.412477475749625E+02
             -0.314605591342477E+02
             -0.300478264383675E+02
             -0.131496980388152E+02
             -0.523847762551664E+02
             -0.217329828637210E+02
             -0.141268298943652E+03
              0.369089845264114E+02
              0.207140602194645E+02
             -0.394186021628578E+01
             -0.380307089542705E+02
             -0.204320013640346E+02
             -0.527385890220576E+02
              0.151108783592919E+02
              0.820670140354084E+02
             -0.252304083584938E+02
             -0.163188009249540E+02
              0.238262490292027E+02
             -0.489793051529821E+02
              0.881190985287037E+02
              0.154497231414557E+02
              0.226239268266853E+02
              0.490730340120860E+02
              0.319375210368054E+01
              0.542672119209412E+02
              0.143226218409765E+02
             -0.106452799397767E+02
              0.733835946478774E+01
              0.781706541814799E+00
              0.727784632186598E+02
              0.101108693028230E+02
              0.120759429249603E+02
             -0.130073680694488E+02
              0.132328555095208E+02
             -0.912015587713428E+02
             -0.326066431106260E+02
             -0.457856953692284E+02
              0.485692248045789E+02
             -0.291476334566154E+02
             -0.658863370707900E+02
              0.538992009466847E+02
             -0.122116793710576E+02
              0.440412406596060E+02
             -0.899419030999384E+02
              0.232076999655719E+02
              0.857632038049482E+01
              0.584393545930425E+01
             -0.834367802270214E+01
             -0.904294593872191E+01
              0.479783783905403E+02
              0.199802827779683E+01
             -0.475603877157342E+02
             -0.176335521834492E+02
              0.276747978318642E+02
             -0.118022256507446E+03
             -0.930435443824916E+02
              0.396423612510711E+01
              0.117848313862040E+02
             -0.413684460317660E+02
             -0.387557022002926E+01
              0.112194813618878E+03
              0.306761573703906E+02
             -0.572022467001894E+02
              0.925872738734512E+01
             -0.965805115879301E+01
              0.105709984210897E+02
             -0.337965670777477E+02
              0.195644898623417E+02
              0.284765216963560E+02
             -0.301006208769513E+01
              0.108275016884237E+03
             -0.140209418403944E+02
             -0.316182516313814E+02
              0.143339583608840E+02
              0.466943853500054E+02
             -0.356025968162853E+02
             -0.317749329023123E+01
              0.965617112282365E+02
             -0.464347867614788E+01
              0.622031904768396E+02
              0.135562738517067E+02
             -0.902817601453016E+01
             -0.305390550440302E+02
              0.566926149001437E+02
             -0.514803604529964E+02
             -0.220484216404208E+01
             -0.170247796241756E+02
             -0.405504242207296E+02
              0.184940749657862E+02
              0.239432493629197E+02
              0.115955765206598E+02
              0.722199251806614E+00
             -0.384945340930874E+02
              0.215535374187652E+02
             -0.674160564837419E+01
             -0.246715552330716E+02
             -0.210745870681288E+02
              0.203444298167877E+02
             -0.595697715600681E+01
             -0.349525529009013E+02
             -0.106712208044504E+03
              0.102979040690855E+02
              0.248766994372920E+02
             -0.387700090387602E+02
             -0.211214203474506E+02
              0.807712912425289E+02
              0.652948153415898E+01
              0.311304176085026E+02
              0.392322902195329E+01
              0.322257562625289E+02
              0.645642924340797E+01
             -0.373338778761482E+02
             -0.234016821991113E+01
              0.876686395827602E+01
              0.274145509998445E+02
              0.782473885883719E+02
              0.507871567205580E+02
              0.182795310425945E+00
              0.169138570229558E+02
              0.613718516363175E+02
              0.236179305345002E+02
             -0.753431101482536E+02
             -0.273931342373412E+02
              0.151048242178358E+02
              0.563195731434206E+01
              0.255306811211534E+02
             -0.548195292552933E+02
              0.899052379660705E+01
              0.386258282682101E+02
              0.498456878053043E+02
             -0.435322748385865E+02
             -0.689422376804004E+01
             -0.208572428436639E+01
             -0.134033151419090E+02
             -0.365769354889715E+02
             -0.215308775085620E+02
             -0.204472032090271E+01
              0.793881020334658E+01
              0.421708138117465E+02
             -0.308644133235326E+02
              0.826836696995068E+02
              0.327800063152088E+02
              0.219951345689631E+02
              0.333341123563580E+02
              0.323313694487721E+02
              0.346469794190494E+02
              0.537683195403638E+02
             -0.434285763096254E+02
              0.620110498735586E+02
             -0.112361679680441E+03
              0.307667356394901E+02
             -0.106616738078668E+03
              0.855383783496763E+02
              0.691339906579490E+02
             -0.109956460141075E+02
             -0.493619269470649E+02
             -0.429906401556854E+02
             -0.623936710145825E+02
             -0.629357438772263E+02
              0.552217370021388E+02
              0.405894297653551E+02
              0.237059810321274E+02
              0.373979777160775E+02
              0.403632869252027E+02
             -0.382516453920050E+02
             -0.197976903374688E+02
              0.586907917115735E+02
             -0.116108309147025E+02
              0.552147636379358E+02
              0.700171983141720E+02
             -0.554854794231862E+01
             -0.706976166328255E+02
             -0.892198410707351E+00
             -0.246441410579249E+01
             -0.883727539582628E+01
             -0.179061862112900E+01
             -0.653504772217598E+02
             -0.210755670267197E+02
              0.540955522696627E+01
              0.900193585673213E+01
              0.469400560884705E+02
             -0.398199399832834E+02
              0.657749093702951E+02
             -0.425650760923090E+02
              0.210668792718629E+02
              0.350782064297264E+02
 
 BEEF-vdW xc energy contributions
           1 :   -783.565479152118     
           2 :    719.849115756468     
           3 :   -609.489281774198     
           4 :    479.492112499610     
           5 :   -357.353226768939     
           6 :    262.942787999806     
           7 :   -203.972950813000     
           8 :    175.946813085548     
           9 :   -166.176763296034     
          10 :    159.962367890548     
          11 :   -146.406531610761     
          12 :    121.676429389999     
          13 :   -88.8563500035268     
          14 :    55.0204645827736     
          15 :   -27.2190470587268     
          16 :    9.19766625097066     
          17 :  -0.122597738379454     
          18 :   -4.43880761838182     
          19 :    10.0050530111389     
          20 :   -20.4634623260741     
          21 :    36.3976176841112     
          22 :   -55.1154463751629     
          23 :    72.1906652884995     
          24 :   -83.6716132128760     
          25 :    87.8766682890006     
          26 :   -85.9921088124373     
          27 :    81.2923269557974     
          28 :   -77.4523302170918     
          29 :    76.8043719531875     
          30 :   -79.3622933794196     
          31 :   -85.9943117207657     
          32 :   -65.9182968521122     

     Writing output data file ./pwscf.save/
 
     init_run     :    361.40s CPU    366.45s WALL (       1 calls)
     electrons    :  14636.07s CPU  14768.25s WALL (       1 calls)
     forces       :    103.75s CPU    104.99s WALL (       1 calls)

     Called by init_run:
     wfcinit      :    314.14s CPU    318.18s WALL (       1 calls)
     potinit      :     44.25s CPU     44.59s WALL (       1 calls)
     hinit0       :      1.14s CPU      1.19s WALL (       1 calls)

     Called by electrons:
     c_bands      :  12255.78s CPU  12358.56s WALL (      21 calls)
     sum_band     :   1714.29s CPU   1727.27s WALL (      21 calls)
     v_of_rho     :    111.95s CPU    116.46s WALL (      21 calls)
     newd         :     31.81s CPU     43.84s WALL (      21 calls)
     PAW_pot      :    139.80s CPU    139.80s WALL (      21 calls)
     mix_rho      :    427.43s CPU    428.18s WALL (      21 calls)
     vdW_kernel   :     33.47s CPU     33.47s WALL (       1 calls)

     Called by c_bands:
     init_us_2    :     83.85s CPU     84.15s WALL (     572 calls)
     cegterg      :  11389.95s CPU  11492.25s WALL (     273 calls)

     Called by *egterg:
     cdiaghg      :    126.93s CPU    126.95s WALL (    1790 calls)
     h_psi        :   7339.13s CPU   7375.62s WALL (    1816 calls)
     s_psi        :   1208.81s CPU   1208.88s WALL (    1816 calls)
     g_psi        :     17.56s CPU     17.57s WALL (    1530 calls)

     Called by h_psi:
     h_psi:calbec :   1118.21s CPU   1118.50s WALL (    1816 calls)
     vloc_psi     :   4983.11s CPU   4984.54s WALL (    1816 calls)
     add_vuspsi   :   1210.52s CPU   1210.56s WALL (    1816 calls)

     General routines
     calbec       :   1631.29s CPU   1631.60s WALL (    2141 calls)
     fft          :     52.12s CPU     52.14s WALL (    3281 calls)
     ffts         :    140.62s CPU    140.64s WALL (    9296 calls)
     fftw         :   5088.30s CPU   5089.18s WALL (  352798 calls)
 
     Parallel routines
 
     PWSCF        :      4h13m CPU      4h16m WALL

 
   This run was terminated on:   2:45:43   4Jan2023            

=------------------------------------------------------------------------------=
   JOB DONE.
=------------------------------------------------------------------------------=
