
     Program PWSCF v.6.7MaX starts on 20May2022 at 16:33:14 

     This program is part of the open-source Quantum ESPRESSO suite
     for quantum simulation of materials; please cite
         "P. Giannozzi et al., J. Phys.:Condens. Matter 21 395502 (2009);
         "P. Giannozzi et al., J. Phys.:Condens. Matter 29 465901 (2017);
          URL http://www.quantum-espresso.org", 
     in publications or presentations arising from this work. More details at
     http://www.quantum-espresso.org/quote

     Parallel version (MPI), running on     1 processors

     MPI processes distributed on     1 nodes
     Reading input from ccho-ensemble.in
Warning: card &CELL ignored
Warning: card / ignored

     Current dimensions of program PWSCF are:
     Max number of different atomic species (ntypx) = 10
     Max number of k-points (npk) =  40000
     Max angular momentum in pseudopotentials (lmaxx) =  3
     file Pt.pbe-n-kjpaw_psl.1.0.0.UPF: wavefunction(s)  6S 5D renormalized
     file C.pbe-n-kjpaw_psl.1.0.0.UPF: wavefunction(s)  2S 2P renormalized
     file O.pbe-nl-kjpaw_psl.1.0.0.UPF: wavefunction(s)  2S 2P renormalized
     file H.pbe-kjpaw_psl.1.0.0.UPF: wavefunction(s)  1S renormalized

     **************************************************************************
     Initializing libbeef V0.1.2 with the BEEF-vdW functional.
     Citation: Wellendorff et al., PRB 85, 235149 (2012).
     **************************************************************************


     IMPORTANT: XC functional enforced from input :
     Exchange-correlation= BEEF-VDW
                           (   1   4  43  14   2   0   0)
     Any further DFT definition will be discarded
     Please, verify this is what you really want


     Subspace diagonalization in iterative solution of the eigenvalue problem:
     a serial algorithm will be used

 
     G-vector sticks info
     --------------------
     sticks:   dense  smooth     PW     G-vecs:    dense   smooth      PW
     Sum        4267    4267   1159               722997   722997  102043
 


     bravais-lattice index     =            0
     lattice parameter (alat)  =      16.0349  a.u.
     unit-cell volume          =   11512.7893 (a.u.)^3
     number of atoms/cell      =           40
     number of atomic types    =            4
     number of electrons       =       375.00
     number of Kohn-Sham states=          226
     kinetic-energy cutoff     =      60.0000  Ry
     charge density cutoff     =     240.0000  Ry
     scf convergence threshold =      1.0E-06
     mixing beta               =       0.7000
     number of iterations used =            8  local-TF  mixing
     Exchange-correlation= BEEF-VDW
                           (   1   4  43  14   2   0   0)

     celldm(1)=  16.034858  celldm(2)=   0.000000  celldm(3)=   0.000000
     celldm(4)=   0.000000  celldm(5)=   0.000000  celldm(6)=   0.000000

     crystal axes: (cart. coord. in units of alat)
               a(1) = (   1.000000   0.000000   0.000000 )  
               a(2) = (   0.500000   0.866025   0.000000 )  
               a(3) = (   0.000000   0.000000   3.224442 )  

     reciprocal axes: (cart. coord. in units 2 pi/alat)
               b(1) = (  1.000000 -0.577350  0.000000 )  
               b(2) = (  0.000000  1.154701  0.000000 )  
               b(3) = (  0.000000  0.000000  0.310131 )  


     PseudoPot. # 1 for Pt read from file:
     /users/bkreitz1/quantum-espresso/potentials/Pt.pbe-n-kjpaw_psl.1.0.0.UPF
     MD5 check sum: 04dc8a03c51ece93fc7b5889c2958091
     Pseudo is Projector augmented-wave + core cor, Zval = 10.0
     Generated using 'atomic' code by A. Dal Corso  v.6.7MaX
     Shape of augmentation charge: PSQ
     Using radial grid of 1277 points,  6 beta functions with: 
                l(1) =   0
                l(2) =   0
                l(3) =   1
                l(4) =   1
                l(5) =   2
                l(6) =   2
     Q(r) pseudized with 0 coefficients 


     PseudoPot. # 2 for C  read from file:
     /users/bkreitz1/quantum-espresso/potentials/C.pbe-n-kjpaw_psl.1.0.0.UPF
     MD5 check sum: a169b0ebad56f5ec0d79c4633f80bf22
     Pseudo is Projector augmented-wave + core cor, Zval =  4.0
     Generated using 'atomic' code by A. Dal Corso  v.6.7MaX
     Shape of augmentation charge: PSQ
     Using radial grid of 1073 points,  4 beta functions with: 
                l(1) =   0
                l(2) =   0
                l(3) =   1
                l(4) =   1
     Q(r) pseudized with 0 coefficients 


     PseudoPot. # 3 for O  read from file:
     /users/bkreitz1/quantum-espresso/potentials/O.pbe-nl-kjpaw_psl.1.0.0.UPF
     MD5 check sum: eef08af8b58d9ec80f8fdb78829eb7cf
     Pseudo is Projector augmented-wave + core cor, Zval =  6.0
     Generated using 'atomic' code by A. Dal Corso  v.6.7MaX
     Shape of augmentation charge: PSQ
     Using radial grid of 1095 points,  4 beta functions with: 
                l(1) =   0
                l(2) =   0
                l(3) =   1
                l(4) =   1
     Q(r) pseudized with 0 coefficients 


     PseudoPot. # 4 for H  read from file:
     /users/bkreitz1/quantum-espresso/potentials/H.pbe-kjpaw_psl.1.0.0.UPF
     MD5 check sum: ae98473e6dc62675f0d0baffdab24f65
     Pseudo is Projector augmented-wave, Zval =  1.0
     Generated using 'atomic' code by A. Dal Corso  v.6.7MaX
     Shape of augmentation charge: PSQ
     Using radial grid of  929 points,  2 beta functions with: 
                l(1) =   0
                l(2) =   0
     Q(r) pseudized with 0 coefficients 


     atomic species   valence    mass     pseudopotential
        Pt            10.00   195.08400     Pt( 1.00)
        C              4.00    12.01100     C ( 1.00)
        O              6.00    15.99900     O ( 1.00)
        H              1.00     1.00800     H ( 1.00)

     No symmetry found



   Cartesian axes

     site n.     atom                  positions (alat units)
         1           Pt  tau(   1) = (   0.0000000   0.0000000   1.0017346  )
         2           Pt  tau(   2) = (   0.3333333   0.0000000   1.0017346  )
         3           Pt  tau(   3) = (   0.6666667   0.0000000   1.0017346  )
         4           Pt  tau(   4) = (   0.1666667   0.2886751   1.0017346  )
         5           Pt  tau(   5) = (   0.5000000   0.2886751   1.0017346  )
         6           Pt  tau(   6) = (   0.8333333   0.2886751   1.0017346  )
         7           Pt  tau(   7) = (   0.3333333   0.5773503   1.0017346  )
         8           Pt  tau(   8) = (   0.6666667   0.5773503   1.0017346  )
         9           Pt  tau(   9) = (   1.0000000   0.5773503   1.0017346  )
        10           Pt  tau(  10) = (   0.1666667   0.0962250   1.2739001  )
        11           Pt  tau(  11) = (   0.5000000   0.0962250   1.2739001  )
        12           Pt  tau(  12) = (   0.8333333   0.0962250   1.2739001  )
        13           Pt  tau(  13) = (   0.3333333   0.3849002   1.2739001  )
        14           Pt  tau(  14) = (   0.6666667   0.3849002   1.2739001  )
        15           Pt  tau(  15) = (   1.0000000   0.3849002   1.2739001  )
        16           Pt  tau(  16) = (   0.5000000   0.6735753   1.2739001  )
        17           Pt  tau(  17) = (   0.8333333   0.6735753   1.2739001  )
        18           Pt  tau(  18) = (   1.1666667   0.6735753   1.2739001  )
        19           Pt  tau(  19) = (  -0.0000812   0.1932780   1.5457810  )
        20           Pt  tau(  20) = (   0.3321773   0.1922553   1.5451595  )
        21           Pt  tau(  21) = (   0.6643917   0.1930465   1.5452636  )
        22           Pt  tau(  22) = (   0.1652190   0.4798561   1.5450386  )
        23           Pt  tau(  23) = (   0.4991420   0.4792922   1.5451043  )
        24           Pt  tau(  24) = (   0.8322875   0.4806756   1.5433042  )
        25           Pt  tau(  25) = (   0.3326667   0.7696001   1.5394184  )
        26           Pt  tau(  26) = (   0.6671078   0.7696221   1.5456497  )
        27           Pt  tau(  27) = (   0.9977675   0.7698757   1.5451442  )
        28           Pt  tau(  28) = (  -0.0057995  -0.0023099   1.8162299  )
        29           Pt  tau(  29) = (   0.3304208  -0.0038793   1.8315745  )
        30           Pt  tau(  30) = (   0.6671308  -0.0022579   1.8156793  )
        31           Pt  tau(  31) = (   0.1599553   0.2905960   1.8319066  )
        32           Pt  tau(  32) = (   0.4993341   0.2895387   1.8334142  )
        33           Pt  tau(  33) = (   0.8297391   0.2881750   1.8188612  )
        34           Pt  tau(  34) = (   0.3307130   0.5805056   1.8157323  )
        35           Pt  tau(  35) = (   0.6638264   0.5762605   1.8187293  )
        36           Pt  tau(  36) = (   0.9971845   0.5769792   1.8185776  )
        37           C   tau(  37) = (   0.3285852   0.1924661   1.9653251  )
        38           C   tau(  38) = (   0.3210240   0.1810442   2.1414786  )
        39           O   tau(  39) = (   0.4274088   0.2248910   2.2270259  )
        40           H   tau(  40) = (   0.2109445   0.1279662   2.1880852  )

     number of k points=    13  Marzari-Vanderbilt smearing, width (Ry)=  0.0200
                       cart. coord. in units 2pi/alat
        k(    1) = (   0.0000000   0.0000000   0.0000000), wk =   0.0800000
        k(    2) = (   0.0000000   0.2309401   0.0000000), wk =   0.1600000
        k(    3) = (   0.0000000   0.4618802   0.0000000), wk =   0.1600000
        k(    4) = (   0.2000000  -0.1154701   0.0000000), wk =   0.1600000
        k(    5) = (   0.2000000   0.1154701   0.0000000), wk =   0.1600000
        k(    6) = (   0.2000000   0.3464102   0.0000000), wk =   0.1600000
        k(    7) = (   0.2000000  -0.5773503   0.0000000), wk =   0.1600000
        k(    8) = (   0.2000000  -0.3464102   0.0000000), wk =   0.1600000
        k(    9) = (   0.4000000  -0.2309401   0.0000000), wk =   0.1600000
        k(   10) = (   0.4000000  -0.0000000   0.0000000), wk =   0.1600000
        k(   11) = (   0.4000000   0.2309401   0.0000000), wk =   0.1600000
        k(   12) = (   0.4000000  -0.6928203   0.0000000), wk =   0.1600000
        k(   13) = (   0.4000000  -0.4618802   0.0000000), wk =   0.1600000

     Dense  grid:   722997 G-vectors     FFT dimensions: (  80,  80, 256)

     Estimated max dynamical RAM per process >       8.79 GB

     Check: negative core charge=   -0.000002

     Initial potential from superposition of free atoms

     starting charge  374.99380, renormalised to  375.00000

     negative rho (up, down):  1.218E-02 0.000E+00


     %%%%%%%%%%%%%%%%%%%%%%%%%%%%%%%%%%%%%%%%%%%%%%%%%%%%%%%%%%%%%%%%%%%%%%%%
     %                                                                      %
     % You are using vdW-DF, which was implemented by the Thonhauser group. %
     % Please cite the following two papers that made this development      %
     % possible and the two reviews that describe the various versions:     %
     %                                                                      %
     %   T. Thonhauser et al., PRL 115, 136402 (2015).                      %
     %   T. Thonhauser et al., PRB 76, 125112 (2007).                       %
     %   K. Berland et al., Rep. Prog. Phys. 78, 066501 (2015).             %
     %   D.C. Langreth et al., J. Phys.: Condens. Matter 21, 084203 (2009). %
     %                                                                      %
     %                                                                      %
     % If you are calculating the stress with vdW-DF, please also cite:     %
     %                                                                      %
     %   R. Sabatini et al., J. Phys.: Condens. Matter 24, 424209 (2012).   %
     %                                                                      %
     %%%%%%%%%%%%%%%%%%%%%%%%%%%%%%%%%%%%%%%%%%%%%%%%%%%%%%%%%%%%%%%%%%%%%%%%


     Starting wfcs are  337 randomized atomic wfcs
     Checking if some PAW data can be deallocated... 

     total cpu time spent up to now is      246.4 secs

     Self-consistent Calculation

     iteration #  1     ecut=    60.00 Ry     beta= 0.70
     Davidson diagonalization with overlap
     ethr =  1.00E-02,  avg # of iterations =  2.1

     negative rho (up, down):  1.932E-02 0.000E+00

     total cpu time spent up to now is      688.4 secs

     total energy              =  -27835.08105719 Ry
     estimated scf accuracy    <       3.99879108 Ry

     iteration #  2     ecut=    60.00 Ry     beta= 0.70
     Davidson diagonalization with overlap
     ethr =  1.07E-03,  avg # of iterations =  2.6

     negative rho (up, down):  1.942E-02 0.000E+00

     total cpu time spent up to now is     1168.1 secs

     total energy              =  -27835.73333437 Ry
     estimated scf accuracy    <       0.87626373 Ry

     iteration #  3     ecut=    60.00 Ry     beta= 0.70
     Davidson diagonalization with overlap
     ethr =  2.34E-04,  avg # of iterations =  8.5

     negative rho (up, down):  1.918E-02 0.000E+00

     total cpu time spent up to now is     1732.6 secs

     total energy              =  -27835.86106547 Ry
     estimated scf accuracy    <       0.42830412 Ry

     iteration #  4     ecut=    60.00 Ry     beta= 0.70
     Davidson diagonalization with overlap
     ethr =  1.14E-04,  avg # of iterations =  3.6

     negative rho (up, down):  1.815E-02 0.000E+00

     total cpu time spent up to now is     2212.9 secs

     total energy              =  -27835.90166089 Ry
     estimated scf accuracy    <       0.10522192 Ry

     iteration #  5     ecut=    60.00 Ry     beta= 0.70
     Davidson diagonalization with overlap
     c_bands:  1 eigenvalues not converged
     c_bands:  1 eigenvalues not converged
     ethr =  2.81E-05,  avg # of iterations = 13.4

     negative rho (up, down):  1.727E-02 0.000E+00

     total cpu time spent up to now is     2904.8 secs

     total energy              =  -27835.92550740 Ry
     estimated scf accuracy    <       0.07818310 Ry

     iteration #  6     ecut=    60.00 Ry     beta= 0.70
     Davidson diagonalization with overlap
     ethr =  2.08E-05,  avg # of iterations =  3.9

     negative rho (up, down):  1.640E-02 0.000E+00

     total cpu time spent up to now is     3345.8 secs

     total energy              =  -27835.92941635 Ry
     estimated scf accuracy    <       0.00685693 Ry

     iteration #  7     ecut=    60.00 Ry     beta= 0.70
     Davidson diagonalization with overlap
     c_bands:  1 eigenvalues not converged
     c_bands:  1 eigenvalues not converged
     c_bands:  2 eigenvalues not converged
     c_bands:  2 eigenvalues not converged
     c_bands:  1 eigenvalues not converged
     ethr =  1.83E-06,  avg # of iterations = 15.3

     negative rho (up, down):  1.585E-02 0.000E+00

     total cpu time spent up to now is     4129.2 secs

     total energy              =  -27835.93164381 Ry
     estimated scf accuracy    <       0.00359428 Ry

     iteration #  8     ecut=    60.00 Ry     beta= 0.70
     Davidson diagonalization with overlap
     ethr =  9.58E-07,  avg # of iterations =  4.5

     negative rho (up, down):  1.524E-02 0.000E+00

     total cpu time spent up to now is     4584.8 secs

     total energy              =  -27835.93189673 Ry
     estimated scf accuracy    <       0.00145774 Ry

     iteration #  9     ecut=    60.00 Ry     beta= 0.70
     Davidson diagonalization with overlap
     ethr =  3.89E-07,  avg # of iterations =  1.9

     negative rho (up, down):  1.487E-02 0.000E+00

     total cpu time spent up to now is     5013.7 secs

     total energy              =  -27835.93196527 Ry
     estimated scf accuracy    <       0.00058635 Ry

     iteration # 10     ecut=    60.00 Ry     beta= 0.70
     Davidson diagonalization with overlap
     ethr =  1.56E-07,  avg # of iterations =  2.0

     negative rho (up, down):  1.439E-02 0.000E+00

     total cpu time spent up to now is     5445.8 secs

     total energy              =  -27835.93200406 Ry
     estimated scf accuracy    <       0.00029357 Ry

     iteration # 11     ecut=    60.00 Ry     beta= 0.70
     Davidson diagonalization with overlap
     ethr =  7.83E-08,  avg # of iterations =  2.0

     negative rho (up, down):  1.403E-02 0.000E+00

     total cpu time spent up to now is     5880.3 secs

     total energy              =  -27835.93202280 Ry
     estimated scf accuracy    <       0.00014644 Ry

     iteration # 12     ecut=    60.00 Ry     beta= 0.70
     Davidson diagonalization with overlap
     ethr =  3.91E-08,  avg # of iterations =  2.2

     negative rho (up, down):  1.392E-02 0.000E+00

     total cpu time spent up to now is     6337.1 secs

     total energy              =  -27835.93203784 Ry
     estimated scf accuracy    <       0.00005144 Ry

     iteration # 13     ecut=    60.00 Ry     beta= 0.70
     Davidson diagonalization with overlap
     ethr =  1.37E-08,  avg # of iterations =  4.1

     negative rho (up, down):  1.388E-02 0.000E+00

     total cpu time spent up to now is     6914.7 secs

     total energy              =  -27835.93205167 Ry
     estimated scf accuracy    <       0.00001994 Ry

     iteration # 14     ecut=    60.00 Ry     beta= 0.70
     Davidson diagonalization with overlap
     ethr =  5.32E-09,  avg # of iterations =  2.5

     negative rho (up, down):  1.384E-02 0.000E+00

     total cpu time spent up to now is     7398.6 secs

     total energy              =  -27835.93205454 Ry
     estimated scf accuracy    <       0.00000446 Ry

     iteration # 15     ecut=    60.00 Ry     beta= 0.70
     Davidson diagonalization with overlap
     ethr =  1.19E-09,  avg # of iterations =  5.2

     negative rho (up, down):  1.381E-02 0.000E+00

     total cpu time spent up to now is     8076.9 secs

     total energy              =  -27835.93205666 Ry
     estimated scf accuracy    <       0.00000166 Ry

     iteration # 16     ecut=    60.00 Ry     beta= 0.70
     Davidson diagonalization with overlap
     ethr =  4.43E-10,  avg # of iterations =  2.8

     negative rho (up, down):  1.325E-02 0.000E+00

     total cpu time spent up to now is     8501.4 secs

     End of self-consistent calculation

          k = 0.0000 0.0000 0.0000 ( 90343 PWs)   bands (ev):

   -19.9837 -12.0805  -8.1857  -7.1878  -6.0306  -5.7132  -4.9791  -4.9120
    -4.8509  -4.8388  -4.8023  -4.7960  -4.7904  -4.6878  -4.5808  -4.5571
    -4.2734  -4.2557  -4.2539  -4.2406  -4.2009  -4.1322  -3.9678  -3.8300
    -3.8157  -3.8065  -3.6992  -3.6929  -3.6323  -3.5826  -3.5817  -3.5783
    -3.4979  -3.4794  -3.4436  -3.3921  -3.3883  -3.3791  -3.3766  -3.3206
    -3.3158  -3.3146  -3.3028  -3.2718  -3.2554  -2.9582  -2.8678  -2.7964
    -2.7463  -2.7442  -2.7413  -2.7206  -2.6980  -2.6601  -2.6572  -2.5828
    -2.5099  -2.4963  -2.4716  -2.4414  -2.2842  -2.2304  -1.9955  -1.9898
    -1.9489  -1.9394  -1.9367  -1.9158  -1.8636  -1.8154  -1.8142  -1.7361
    -1.7274  -1.7263  -1.7186  -1.7174  -1.6891  -1.6882  -1.6731  -1.6537
    -1.6517  -1.6492  -1.6156  -1.6137  -1.5545  -1.5517  -1.5233  -1.4880
    -1.4863  -1.4776  -1.3208  -1.3173  -1.3080  -1.3062  -1.2903  -1.2638
    -1.2630  -1.2607  -1.1995  -1.1974  -1.1475  -1.0967  -1.0941  -1.0918
    -1.0831  -1.0475  -1.0475  -1.0444  -0.9218  -0.9009  -0.8939  -0.8762
    -0.7980  -0.7951  -0.7652  -0.4279  -0.4268  -0.4247  -0.4151  -0.4065
    -0.3792  -0.3781  -0.3772  -0.3699  -0.2429  -0.2426  -0.2053  -0.2035
    -0.1920  -0.1255  -0.1220  -0.1191  -0.0854  -0.0823   0.0497   0.0753
     0.0898   0.0917   0.1453   0.1654   0.2383   0.3199   0.3489   0.3494
     0.3561   0.3704   0.3995   0.4070   0.4300   0.5721   0.5874   0.5893
     0.5930   0.6077   0.6131   0.6177   0.7298   0.7368   0.7741   0.7776
     0.7915   0.7977   0.8062   0.8124   0.8181   0.8234   0.8255   0.8483
     0.8678   0.8724   0.9226   0.9235   0.9308   0.9727   0.9743   1.0173
     1.0277   1.0292   1.0620   1.0639   1.1038   1.1519   1.1530   1.1689
     1.1738   1.1762   1.2063   1.2377   1.2397   1.2712   1.2947   1.3087
     1.3102   1.3217   1.4553   1.4693   1.5671   1.5755   1.5819   1.5969
     1.6006   1.6265   1.9585   2.1403   2.2048   2.4466   2.4845   2.5034
     2.5040   3.1195   3.5885   4.3999   4.7941   4.7983   4.8183   4.9598
     5.2482   5.6799   6.2329   6.4073   6.4174   6.4253   6.4617   6.5474
     6.6033   6.6101

          k = 0.0000 0.2309 0.0000 ( 90332 PWs)   bands (ev):

   -19.9837 -12.0795  -8.1737  -7.0487  -5.9578  -5.6452  -5.3355  -4.9771
    -4.9410  -4.7889  -4.7076  -4.6952  -4.6078  -4.5727  -4.5126  -4.4696
    -4.3478  -4.2508  -4.2053  -4.1852  -4.1794  -4.0885  -3.8986  -3.8771
    -3.7784  -3.7545  -3.7330  -3.6782  -3.6557  -3.6397  -3.5770  -3.5656
    -3.5466  -3.5087  -3.4803  -3.4530  -3.4364  -3.3799  -3.3669  -3.3506
    -3.2458  -3.2041  -3.1515  -3.1371  -3.1180  -2.9767  -2.9186  -2.8630
    -2.8398  -2.8151  -2.8006  -2.7862  -2.7360  -2.6179  -2.5801  -2.5495
    -2.5323  -2.4615  -2.4297  -2.4115  -2.3632  -2.2974  -2.1923  -2.1086
    -2.1061  -2.0584  -2.0422  -2.0045  -1.9688  -1.9599  -1.9339  -1.8807
    -1.8711  -1.8547  -1.7961  -1.7832  -1.7485  -1.7240  -1.7094  -1.6341
    -1.6193  -1.5994  -1.5594  -1.5458  -1.5335  -1.5110  -1.4908  -1.4650
    -1.4483  -1.4070  -1.3562  -1.3470  -1.3304  -1.3183  -1.3064  -1.2914
    -1.2674  -1.2245  -1.1860  -1.1686  -1.1575  -1.1477  -1.1384  -1.1200
    -1.0978  -1.0731  -1.0721  -1.0222  -0.9957  -0.9892  -0.9113  -0.8964
    -0.8677  -0.8204  -0.8140  -0.8014  -0.7975  -0.7193  -0.6930  -0.5460
    -0.4627  -0.4404  -0.4271  -0.3726  -0.3674  -0.3578  -0.3422  -0.2839
    -0.1980  -0.1870  -0.1373  -0.1192  -0.0580  -0.0466   0.0029   0.0292
     0.0430   0.0643   0.1183   0.1312   0.1772   0.1982   0.2388   0.2417
     0.2643   0.3154   0.3724   0.3949   0.4231   0.4381   0.4619   0.4868
     0.5373   0.5474   0.5906   0.6090   0.6383   0.6503   0.6890   0.7093
     0.7457   0.7738   0.8262   0.8307   0.8543   0.8692   0.8937   0.9349
     0.9615   0.9915   1.0314   1.0673   1.0983   1.1123   1.1240   1.1464
     1.1877   1.1920   1.2181   1.2363   1.2483   1.2696   1.2913   1.3250
     1.3287   1.4253   1.4593   1.4643   1.4874   1.5187   1.5305   1.5664
     1.5723   1.5778   1.5918   1.6180   1.7047   1.7392   1.7776   1.8339
     1.8670   1.9148   1.9400   2.1797   2.2704   2.4877   2.8416   3.0845
     3.1070   3.2925   3.6397   4.1607   4.4415   4.7657   5.1098   5.2108
     5.2656   5.5147   5.5903   5.6856   6.2254   6.4016   6.4472   6.5830
     6.6566   6.7156

          k = 0.0000 0.4619 0.0000 ( 90350 PWs)   bands (ev):

   -19.9837 -12.0779  -8.1550  -6.6441  -6.0343  -5.8446  -5.3639  -5.0000
    -4.9761  -4.8767  -4.6590  -4.5956  -4.4703  -4.4158  -4.3148  -4.2317
    -4.2224  -4.1986  -4.1103  -4.0181  -4.0098  -3.9979  -3.9745  -3.8863
    -3.8513  -3.8266  -3.8117  -3.7936  -3.7623  -3.7037  -3.6877  -3.6531
    -3.6276  -3.4566  -3.4155  -3.3931  -3.3869  -3.3810  -3.3053  -3.2430
    -3.1733  -3.1556  -3.1255  -3.1229  -3.0408  -2.9616  -2.9277  -2.8550
    -2.8482  -2.7987  -2.7777  -2.7567  -2.7010  -2.6840  -2.6603  -2.6470
    -2.6299  -2.5446  -2.4945  -2.4572  -2.4363  -2.3712  -2.3406  -2.2932
    -2.2718  -2.2308  -2.2218  -2.1618  -2.0785  -2.0590  -2.0051  -2.0005
    -1.9502  -1.9054  -1.8940  -1.8841  -1.8117  -1.7848  -1.7522  -1.7432
    -1.6834  -1.6641  -1.6578  -1.6152  -1.5873  -1.5838  -1.5348  -1.5246
    -1.5140  -1.4960  -1.4822  -1.4465  -1.4371  -1.4085  -1.3597  -1.3500
    -1.3357  -1.3313  -1.3047  -1.2912  -1.2138  -1.1577  -1.1354  -1.1205
    -1.0969  -1.0702  -1.0650  -0.9983  -0.9741  -0.9075  -0.8968  -0.8785
    -0.8436  -0.8158  -0.8067  -0.7802  -0.6997  -0.6183  -0.6047  -0.5722
    -0.5341  -0.5171  -0.4808  -0.4577  -0.4434  -0.3978  -0.3870  -0.3612
    -0.3448  -0.3390  -0.3337  -0.2780  -0.2577  -0.2376  -0.2166  -0.1518
    -0.0975  -0.0763  -0.0708   0.0224   0.0425   0.1231   0.1436   0.1845
     0.2499   0.2834   0.2991   0.3542   0.3859   0.4237   0.4398   0.4648
     0.4809   0.5150   0.5508   0.5604   0.6037   0.6303   0.6658   0.7134
     0.7367   0.7509   0.7705   0.7796   0.8352   0.9141   0.9260   0.9352
     1.0236   1.0390   1.0932   1.1432   1.1525   1.1659   1.1728   1.2385
     1.2606   1.2760   1.3165   1.3463   1.3533   1.4524   1.4588   1.4867
     1.4889   1.4971   1.5151   1.5460   1.5777   1.6984   1.7247   1.7414
     1.7662   1.7838   1.8447   1.9899   2.0222   2.2023   2.2993   2.3924
     2.7395   2.7698   2.8260   3.0115   3.0565   3.3683   3.4379   3.5824
     3.7843   4.0380   4.0597   4.1769   4.2211   4.3068   4.4173   4.5931
     4.6323   4.9517   5.2282   5.3751   5.5600   5.8587   5.9511   6.4278
     6.4798   6.8232

          k = 0.2000-0.1155 0.0000 ( 90332 PWs)   bands (ev):

   -19.9837 -12.0795  -8.1736  -7.0487  -5.9574  -5.6439  -5.3376  -4.9803
    -4.9371  -4.7859  -4.7076  -4.6969  -4.6110  -4.5698  -4.5138  -4.4739
    -4.3481  -4.2591  -4.1966  -4.1852  -4.1778  -4.0872  -3.9043  -3.8746
    -3.7802  -3.7544  -3.7349  -3.6760  -3.6564  -3.6372  -3.5771  -3.5673
    -3.5485  -3.5130  -3.4774  -3.4527  -3.4363  -3.3803  -3.3666  -3.3440
    -3.2461  -3.2021  -3.1518  -3.1360  -3.1163  -2.9827  -2.9124  -2.8645
    -2.8399  -2.8169  -2.7991  -2.7853  -2.7353  -2.6164  -2.5823  -2.5545
    -2.5306  -2.4656  -2.4271  -2.4128  -2.3567  -2.2936  -2.1917  -2.1099
    -2.1046  -2.0570  -2.0390  -2.0036  -1.9674  -1.9617  -1.9362  -1.8813
    -1.8693  -1.8576  -1.7953  -1.7807  -1.7464  -1.7235  -1.7069  -1.6380
    -1.6265  -1.6011  -1.5590  -1.5436  -1.5337  -1.5106  -1.4870  -1.4621
    -1.4507  -1.4117  -1.3563  -1.3432  -1.3290  -1.3187  -1.3039  -1.2905
    -1.2672  -1.2251  -1.1869  -1.1725  -1.1591  -1.1488  -1.1399  -1.1192
    -1.0972  -1.0758  -1.0745  -1.0228  -0.9955  -0.9876  -0.9135  -0.8995
    -0.8680  -0.8199  -0.8131  -0.8015  -0.7973  -0.7207  -0.6878  -0.5457
    -0.4627  -0.4425  -0.4284  -0.3730  -0.3679  -0.3584  -0.3405  -0.2831
    -0.1975  -0.1862  -0.1414  -0.1215  -0.0565  -0.0461   0.0050   0.0261
     0.0436   0.0640   0.1167   0.1309   0.1738   0.1952   0.2397   0.2413
     0.2648   0.3181   0.3735   0.3936   0.4209   0.4405   0.4615   0.4871
     0.5383   0.5486   0.5901   0.6088   0.6383   0.6536   0.6894   0.7085
     0.7467   0.7737   0.8271   0.8331   0.8556   0.8715   0.8955   0.9347
     0.9609   0.9919   1.0320   1.0649   1.0961   1.1116   1.1235   1.1455
     1.1870   1.1920   1.2181   1.2357   1.2489   1.2692   1.2920   1.3240
     1.3275   1.4244   1.4584   1.4643   1.4884   1.5204   1.5308   1.5693
     1.5735   1.5785   1.5916   1.6202   1.7045   1.7391   1.7804   1.8352
     1.8644   1.9147   1.9390   2.1675   2.2747   2.5070   2.8223   3.0951
     3.1042   3.2953   3.6132   4.1875   4.4462   4.7470   5.1190   5.2036
     5.2716   5.4968   5.5983   5.7052   6.2284   6.3922   6.4314   6.5802
     6.6589   6.7193

          k = 0.2000 0.1155 0.0000 ( 90332 PWs)   bands (ev):

   -19.9837 -12.0796  -8.1729  -7.0488  -5.9659  -5.6447  -5.3137  -5.0016
    -4.9436  -4.7474  -4.7215  -4.7009  -4.5988  -4.5877  -4.4799  -4.4726
    -4.3574  -4.3318  -4.1858  -4.1835  -4.1421  -4.0648  -3.9491  -3.8717
    -3.7729  -3.7529  -3.7470  -3.6678  -3.6639  -3.6255  -3.5735  -3.5704
    -3.5557  -3.5217  -3.4748  -3.4569  -3.4262  -3.3812  -3.3667  -3.3167
    -3.2471  -3.1897  -3.1557  -3.1283  -3.1240  -2.9897  -2.8963  -2.8769
    -2.8449  -2.8232  -2.8036  -2.7814  -2.7364  -2.6061  -2.5971  -2.5688
    -2.5289  -2.4690  -2.4279  -2.4111  -2.3324  -2.3040  -2.2006  -2.1086
    -2.1073  -2.0605  -2.0491  -2.0064  -1.9731  -1.9494  -1.9333  -1.8781
    -1.8687  -1.8566  -1.7974  -1.7874  -1.7463  -1.7268  -1.7163  -1.6285
    -1.6023  -1.5942  -1.5616  -1.5523  -1.5331  -1.5127  -1.4960  -1.4644
    -1.4533  -1.3983  -1.3537  -1.3518  -1.3286  -1.3187  -1.3097  -1.2963
    -1.2657  -1.2246  -1.1889  -1.1649  -1.1626  -1.1478  -1.1355  -1.1197
    -1.0962  -1.0717  -1.0693  -1.0192  -0.9946  -0.9832  -0.9111  -0.8909
    -0.8678  -0.8191  -0.8147  -0.8015  -0.7976  -0.7180  -0.6950  -0.5511
    -0.4632  -0.4401  -0.4296  -0.3691  -0.3656  -0.3578  -0.3399  -0.2846
    -0.1941  -0.1875  -0.1370  -0.1203  -0.0496  -0.0455  -0.0009   0.0369
     0.0408   0.0662   0.1215   0.1232   0.1529   0.1905   0.2374   0.2409
     0.2538   0.3029   0.3968   0.4095   0.4219   0.4393   0.4743   0.4796
     0.5386   0.5509   0.5885   0.6091   0.6408   0.6444   0.6872   0.7053
     0.7511   0.7690   0.8284   0.8303   0.8588   0.8644   0.8945   0.9371
     0.9595   0.9897   1.0327   1.0693   1.0920   1.1161   1.1296   1.1430
     1.1907   1.1910   1.2185   1.2372   1.2482   1.2690   1.2899   1.3260
     1.3326   1.4232   1.4626   1.4695   1.4859   1.5207   1.5281   1.5617
     1.5725   1.5783   1.5986   1.6113   1.7047   1.7396   1.7954   1.8473
     1.8570   1.9174   1.9445   2.0980   2.2635   2.6339   2.7100   3.1054
     3.1443   3.3264   3.5108   4.2498   4.4929   4.6489   5.1316   5.2058
     5.3545   5.3950   5.6147   5.7913   6.2602   6.2909   6.4227   6.5532
     6.6563   6.7207

          k = 0.2000 0.3464 0.0000 ( 90356 PWs)   bands (ev):

   -19.9837 -12.0783  -8.1575  -6.7760  -5.8966  -5.5973  -5.5743  -5.4038
    -4.7905  -4.6997  -4.5006  -4.4935  -4.4705  -4.4341  -4.4135  -4.3773
    -4.3317  -4.3091  -4.2499  -4.2273  -3.9546  -3.9146  -3.9076  -3.8928
    -3.8477  -3.8184  -3.7828  -3.6971  -3.6888  -3.6614  -3.5942  -3.5769
    -3.5598  -3.5264  -3.4955  -3.4611  -3.4348  -3.4184  -3.3568  -3.3293
    -3.2625  -3.2471  -3.0644  -3.0009  -2.9609  -2.9356  -2.9245  -2.8965
    -2.8625  -2.8309  -2.8029  -2.7464  -2.7177  -2.6785  -2.6369  -2.5967
    -2.5611  -2.4844  -2.4500  -2.4344  -2.4003  -2.3813  -2.3258  -2.3001
    -2.2011  -2.1859  -2.1665  -2.1099  -2.0655  -2.0587  -2.0256  -2.0105
    -1.9604  -1.9231  -1.8483  -1.8296  -1.8027  -1.7949  -1.7676  -1.7410
    -1.6819  -1.6448  -1.6324  -1.6066  -1.5601  -1.5309  -1.5081  -1.4983
    -1.4614  -1.4455  -1.4264  -1.4161  -1.3974  -1.3798  -1.3660  -1.3186
    -1.3017  -1.2537  -1.2263  -1.2136  -1.1840  -1.1751  -1.1608  -1.1342
    -1.0925  -1.0781  -1.0768  -1.0585  -1.0524  -1.0135  -1.0018  -0.9679
    -0.9156  -0.8810  -0.8645  -0.8000  -0.7616  -0.7310  -0.6727  -0.6098
    -0.5629  -0.5307  -0.5049  -0.4219  -0.4008  -0.3926  -0.3511  -0.3352
    -0.3243  -0.2882  -0.2496  -0.2305  -0.2092  -0.1608  -0.0871  -0.0821
    -0.0135  -0.0003   0.0112   0.0522   0.1002   0.1474   0.1675   0.2275
     0.2476   0.2791   0.3037   0.3458   0.3772   0.3873   0.4309   0.4600
     0.4836   0.5044   0.5389   0.5644   0.5750   0.5940   0.6111   0.6270
     0.6550   0.7271   0.7310   0.7798   0.8736   0.9044   0.9278   1.0436
     1.0753   1.1156   1.1425   1.1895   1.2202   1.2289   1.2530   1.2810
     1.2890   1.3281   1.3469   1.3608   1.3754   1.4006   1.4197   1.4390
     1.4852   1.5189   1.5256   1.5453   1.5694   1.6275   1.6628   1.7446
     1.7788   1.8020   1.8064   1.8669   1.8988   1.9794   2.0114   2.1534
     2.4551   2.5545   2.5993   2.8593   2.9659   3.0963   3.1715   3.4581
     3.6420   3.8972   3.9511   4.0157   4.0759   4.3112   4.7916   5.0623
     5.2205   5.3109   5.4458   5.7062   5.8578   5.9602   6.0404   6.0558
     6.1557   6.3921

          k = 0.2000-0.5774 0.0000 ( 90358 PWs)   bands (ev):

   -19.9837 -12.0774  -8.1490  -6.2834  -6.2376  -5.8434  -5.6345  -5.1504
    -4.9520  -4.6621  -4.6268  -4.4398  -4.3835  -4.3485  -4.2976  -4.2080
    -4.1704  -4.1070  -4.0862  -4.0116  -3.9792  -3.9716  -3.9563  -3.9343
    -3.9070  -3.8596  -3.8178  -3.7744  -3.7567  -3.7502  -3.7206  -3.6498
    -3.6144  -3.5148  -3.4806  -3.4639  -3.3875  -3.3689  -3.3400  -3.3123
    -3.2871  -3.1591  -3.1230  -3.1137  -2.9948  -2.9449  -2.9304  -2.8902
    -2.8615  -2.7744  -2.7449  -2.7293  -2.6313  -2.5911  -2.5830  -2.5432
    -2.5155  -2.5031  -2.4671  -2.4343  -2.4025  -2.3703  -2.3575  -2.3183
    -2.2884  -2.2763  -2.2567  -2.2420  -2.1704  -2.1612  -2.0974  -2.0500
    -2.0237  -2.0052  -1.9002  -1.8904  -1.8723  -1.8429  -1.8215  -1.7925
    -1.7840  -1.7327  -1.6841  -1.6677  -1.6553  -1.6210  -1.6028  -1.5794
    -1.5547  -1.4680  -1.4619  -1.4538  -1.4409  -1.4124  -1.3564  -1.2963
    -1.2795  -1.2539  -1.2051  -1.2020  -1.1781  -1.1701  -1.1435  -1.1348
    -1.1152  -1.0835  -1.0707  -1.0496  -1.0175  -1.0120  -0.9957  -0.9886
    -0.9713  -0.9300  -0.8881  -0.8837  -0.7331  -0.6931  -0.6561  -0.5715
    -0.5486  -0.5341  -0.5181  -0.4826  -0.4642  -0.4436  -0.4240  -0.3983
    -0.3451  -0.3195  -0.2866  -0.2760  -0.2303  -0.2056  -0.1545  -0.1202
    -0.0965  -0.0445   0.0024   0.0388   0.1111   0.1314   0.1721   0.1889
     0.2322   0.2441   0.2751   0.2960   0.3159   0.3316   0.3656   0.3790
     0.4260   0.4759   0.4911   0.5079   0.5346   0.5450   0.5761   0.6436
     0.6908   0.7628   0.8038   0.8394   0.9407   0.9581   0.9932   1.0045
     1.0657   1.1022   1.1421   1.1921   1.2277   1.2729   1.2821   1.3032
     1.3222   1.3474   1.3804   1.3949   1.4625   1.4687   1.4888   1.5162
     1.5267   1.5424   1.5521   1.6295   1.6582   1.7286   1.7520   1.7710
     1.7874   1.8309   1.8434   1.8847   2.0245   2.3219   2.6434   2.7735
     2.9386   2.9944   3.1826   3.2107   3.2695   3.3772   3.5097   3.7908
     3.8998   4.0387   4.0837   4.3991   4.4444   4.4728   4.6246   4.7206
     4.8253   4.9168   5.0245   5.1753   5.3017   5.3852   5.8257   5.9651
     5.9797   6.0210

          k = 0.2000-0.3464 0.0000 ( 90356 PWs)   bands (ev):

   -19.9837 -12.0782  -8.1586  -6.7756  -5.8777  -5.6060  -5.5792  -5.4128
    -4.8048  -4.7031  -4.5075  -4.4927  -4.4693  -4.4347  -4.4129  -4.3730
    -4.3393  -4.2921  -4.2389  -4.2068  -3.9824  -3.9225  -3.9063  -3.8917
    -3.8409  -3.8210  -3.7392  -3.6981  -3.6929  -3.6563  -3.5974  -3.5834
    -3.5559  -3.5206  -3.5027  -3.4511  -3.4382  -3.4116  -3.3915  -3.3447
    -3.2802  -3.2486  -3.0533  -3.0228  -2.9500  -2.9406  -2.9207  -2.8967
    -2.8596  -2.8239  -2.8015  -2.7453  -2.7088  -2.6779  -2.6311  -2.5800
    -2.5645  -2.4743  -2.4483  -2.4351  -2.3901  -2.3776  -2.3267  -2.3193
    -2.1948  -2.1823  -2.1625  -2.0989  -2.0640  -2.0569  -2.0239  -2.0119
    -1.9607  -1.9194  -1.8548  -1.8240  -1.8046  -1.7972  -1.7664  -1.7496
    -1.6813  -1.6469  -1.6341  -1.6072  -1.5627  -1.5236  -1.5091  -1.4980
    -1.4636  -1.4499  -1.4331  -1.4141  -1.3984  -1.3827  -1.3720  -1.3263
    -1.2976  -1.2614  -1.2269  -1.2085  -1.1828  -1.1743  -1.1632  -1.1366
    -1.0949  -1.0806  -1.0735  -1.0594  -1.0512  -1.0174  -1.0037  -0.9677
    -0.9182  -0.8820  -0.8662  -0.8036  -0.7697  -0.7316  -0.6733  -0.6116
    -0.5617  -0.5329  -0.5064  -0.4238  -0.3976  -0.3965  -0.3572  -0.3328
    -0.3154  -0.2894  -0.2512  -0.2347  -0.2084  -0.1546  -0.0799  -0.0668
    -0.0263   0.0023   0.0105   0.0506   0.0996   0.1584   0.1676   0.2274
     0.2586   0.2912   0.3111   0.3378   0.3707   0.3958   0.4036   0.4569
     0.4805   0.5048   0.5431   0.5573   0.5690   0.5977   0.6156   0.6208
     0.6600   0.7176   0.7399   0.7802   0.8669   0.9223   0.9307   1.0522
     1.0677   1.1176   1.1405   1.1870   1.2167   1.2269   1.2571   1.2848
     1.2873   1.3261   1.3447   1.3582   1.3701   1.4000   1.4170   1.4450
     1.4817   1.5157   1.5264   1.5439   1.5713   1.6227   1.6500   1.7502
     1.7821   1.8081   1.8181   1.8780   1.9000   1.9793   2.0122   2.1211
     2.4723   2.5534   2.6904   2.7819   2.9329   3.0982   3.1411   3.5438
     3.6407   3.8930   3.9741   4.0385   4.1228   4.2497   4.6625   5.0973
     5.2350   5.3589   5.5481   5.6068   5.8020   5.9532   6.0613   6.0790
     6.0997   6.4043

          k = 0.4000-0.2309 0.0000 ( 90350 PWs)   bands (ev):

   -19.9837 -12.0779  -8.1546  -6.6443  -6.0338  -5.8431  -5.3641  -5.0004
    -4.9743  -4.8776  -4.6603  -4.6001  -4.4745  -4.4187  -4.3152  -4.2330
    -4.2238  -4.1980  -4.1056  -4.0217  -4.0091  -3.9972  -3.9714  -3.8898
    -3.8526  -3.8257  -3.8101  -3.7944  -3.7637  -3.7083  -3.6950  -3.6522
    -3.6340  -3.4414  -3.4144  -3.3918  -3.3865  -3.3760  -3.3060  -3.2342
    -3.1721  -3.1547  -3.1248  -3.1228  -3.0403  -2.9672  -2.9280  -2.8547
    -2.8477  -2.7961  -2.7752  -2.7569  -2.6989  -2.6864  -2.6607  -2.6474
    -2.6297  -2.5378  -2.5012  -2.4558  -2.4351  -2.3631  -2.3440  -2.2922
    -2.2692  -2.2293  -2.2203  -2.1624  -2.0790  -2.0573  -2.0060  -2.0000
    -1.9511  -1.9014  -1.8968  -1.8846  -1.8094  -1.7905  -1.7520  -1.7453
    -1.6810  -1.6641  -1.6574  -1.6138  -1.5852  -1.5824  -1.5361  -1.5241
    -1.5111  -1.4946  -1.4819  -1.4472  -1.4351  -1.4104  -1.3597  -1.3463
    -1.3361  -1.3328  -1.3057  -1.2910  -1.2112  -1.1607  -1.1386  -1.1250
    -1.1014  -1.0727  -1.0675  -1.0001  -0.9775  -0.9095  -0.9026  -0.8847
    -0.8435  -0.8185  -0.8083  -0.7790  -0.6959  -0.6230  -0.6020  -0.5727
    -0.5328  -0.5176  -0.4820  -0.4546  -0.4410  -0.3979  -0.3850  -0.3627
    -0.3427  -0.3372  -0.3319  -0.2801  -0.2596  -0.2369  -0.2169  -0.1500
    -0.0989  -0.0780  -0.0724   0.0202   0.0422   0.1215   0.1422   0.1834
     0.2506   0.2860   0.3002   0.3564   0.3848   0.4205   0.4413   0.4657
     0.4807   0.5151   0.5513   0.5611   0.6043   0.6313   0.6676   0.7142
     0.7386   0.7511   0.7691   0.7782   0.8367   0.9127   0.9258   0.9347
     1.0243   1.0401   1.0973   1.1408   1.1526   1.1657   1.1741   1.2384
     1.2605   1.2782   1.3143   1.3439   1.3520   1.4526   1.4586   1.4876
     1.4903   1.4974   1.5165   1.5491   1.5795   1.6995   1.7279   1.7419
     1.7693   1.7847   1.8439   1.9899   2.0227   2.1892   2.3118   2.3960
     2.7325   2.7659   2.8330   2.9996   3.0559   3.3425   3.4343   3.5992
     3.7873   4.0366   4.0642   4.1872   4.2171   4.3044   4.4234   4.5876
     4.6354   4.9395   5.2299   5.3935   5.5758   5.8537   5.9403   6.4269
     6.4860   6.8169

          k = 0.4000-0.0000 0.0000 ( 90356 PWs)   bands (ev):

   -19.9837 -12.0783  -8.1572  -6.7761  -5.8952  -5.5975  -5.5735  -5.4048
    -4.7875  -4.7059  -4.5020  -4.4935  -4.4700  -4.4340  -4.4114  -4.3799
    -4.3307  -4.3137  -4.2554  -4.2223  -3.9494  -3.9131  -3.9072  -3.8928
    -3.8518  -3.8195  -3.7890  -3.6991  -3.6889  -3.6605  -3.5943  -3.5753
    -3.5572  -3.5253  -3.4941  -3.4646  -3.4357  -3.4182  -3.3552  -3.3246
    -3.2620  -3.2465  -3.0687  -2.9987  -2.9591  -2.9332  -2.9242  -2.8914
    -2.8626  -2.8331  -2.8051  -2.7454  -2.7225  -2.6694  -2.6350  -2.6001
    -2.5585  -2.4838  -2.4514  -2.4359  -2.4027  -2.3781  -2.3275  -2.2957
    -2.1999  -2.1839  -2.1643  -2.1045  -2.0660  -2.0587  -2.0254  -2.0093
    -1.9607  -1.9239  -1.8509  -1.8242  -1.8028  -1.7952  -1.7668  -1.7415
    -1.6818  -1.6470  -1.6335  -1.6045  -1.5625  -1.5290  -1.5076  -1.4987
    -1.4624  -1.4468  -1.4301  -1.4154  -1.3985  -1.3799  -1.3693  -1.3227
    -1.3020  -1.2545  -1.2267  -1.2122  -1.1849  -1.1743  -1.1621  -1.1350
    -1.0916  -1.0795  -1.0772  -1.0595  -1.0533  -1.0157  -1.0027  -0.9669
    -0.9164  -0.8815  -0.8653  -0.8009  -0.7616  -0.7316  -0.6761  -0.6072
    -0.5599  -0.5321  -0.5053  -0.4222  -0.4028  -0.3949  -0.3523  -0.3342
    -0.3221  -0.2880  -0.2496  -0.2308  -0.2074  -0.1617  -0.0878  -0.0783
    -0.0155  -0.0007   0.0109   0.0510   0.0996   0.1428   0.1673   0.2279
     0.2486   0.2771   0.3042   0.3477   0.3773   0.3862   0.4340   0.4612
     0.4830   0.5034   0.5384   0.5649   0.5789   0.5959   0.6110   0.6266
     0.6560   0.7279   0.7352   0.7816   0.8732   0.9026   0.9275   1.0435
     1.0762   1.1168   1.1406   1.1908   1.2204   1.2295   1.2529   1.2812
     1.2887   1.3272   1.3459   1.3605   1.3738   1.4005   1.4190   1.4413
     1.4840   1.5193   1.5250   1.5457   1.5699   1.6270   1.6645   1.7468
     1.7812   1.8038   1.8084   1.8680   1.8989   1.9790   2.0100   2.1524
     2.4453   2.5523   2.5903   2.8687   2.9787   3.0983   3.1830   3.4235
     3.6430   3.8908   3.9448   4.0175   4.0792   4.3191   4.8277   5.0701
     5.2003   5.2913   5.4392   5.7212   5.8704   5.9557   6.0394   6.0630
     6.1583   6.3845

          k = 0.4000 0.2309 0.0000 ( 90350 PWs)   bands (ev):

   -19.9837 -12.0780  -8.1527  -6.6451  -6.0495  -5.8424  -5.3413  -5.0100
    -4.9781  -4.8437  -4.6296  -4.6141  -4.4933  -4.4273  -4.3194  -4.2592
    -4.2169  -4.2016  -4.0917  -4.0252  -4.0100  -3.9952  -3.9492  -3.9004
    -3.8695  -3.8258  -3.8182  -3.7900  -3.7557  -3.7478  -3.7015  -3.6516
    -3.6495  -3.4222  -3.4114  -3.3920  -3.3874  -3.3492  -3.3118  -3.1835
    -3.1681  -3.1288  -3.1253  -3.0970  -3.0430  -3.0127  -2.8980  -2.8822
    -2.8520  -2.8281  -2.7774  -2.7640  -2.6941  -2.6853  -2.6669  -2.6457
    -2.6388  -2.5316  -2.5205  -2.4634  -2.4365  -2.3517  -2.3484  -2.2988
    -2.2784  -2.2312  -2.2296  -2.1623  -2.0772  -2.0605  -2.0069  -1.9894
    -1.9537  -1.9092  -1.8924  -1.8815  -1.8060  -1.7725  -1.7522  -1.7337
    -1.6858  -1.6623  -1.6600  -1.6145  -1.5890  -1.5854  -1.5342  -1.5269
    -1.5165  -1.4999  -1.4822  -1.4409  -1.4374  -1.4077  -1.3609  -1.3566
    -1.3417  -1.3326  -1.3014  -1.2926  -1.2186  -1.1513  -1.1300  -1.1128
    -1.0943  -1.0646  -1.0618  -0.9948  -0.9640  -0.9064  -0.9022  -0.8730
    -0.8453  -0.8134  -0.8043  -0.7822  -0.7054  -0.6175  -0.6071  -0.5733
    -0.5364  -0.5163  -0.4838  -0.4510  -0.4480  -0.3973  -0.3861  -0.3535
    -0.3493  -0.3370  -0.3330  -0.2742  -0.2512  -0.2454  -0.2168  -0.1508
    -0.0947  -0.0710  -0.0673   0.0042   0.0415   0.1244   0.1295   0.1712
     0.2446   0.2889   0.3027   0.3816   0.3827   0.4217   0.4484   0.4620
     0.4803   0.5084   0.5534   0.5569   0.6014   0.6324   0.6568   0.7117
     0.7350   0.7484   0.7726   0.8107   0.8221   0.9030   0.9249   0.9325
     1.0240   1.0428   1.1071   1.1285   1.1522   1.1647   1.1772   1.2444
     1.2625   1.2786   1.3189   1.3508   1.3557   1.4559   1.4614   1.4823
     1.4927   1.4946   1.5188   1.5374   1.5736   1.6962   1.7287   1.7376
     1.7635   1.7748   1.8439   1.9900   2.0566   2.1195   2.3428   2.4609
     2.7160   2.7649   2.8670   2.9445   3.0691   3.2464   3.4245   3.6318
     3.7956   4.0290   4.0738   4.2014   4.2230   4.2950   4.4375   4.5649
     4.6551   4.9016   5.2303   5.4173   5.6950   5.7925   5.9545   6.3900
     6.4624   6.7552

          k = 0.4000-0.6928 0.0000 ( 90358 PWs)   bands (ev):

   -19.9837 -12.0775  -8.1476  -6.2870  -6.2400  -5.8353  -5.6515  -5.1075
    -4.9571  -4.7009  -4.5979  -4.4516  -4.3841  -4.3481  -4.3025  -4.1965
    -4.1551  -4.1061  -4.0746  -4.0555  -3.9842  -3.9764  -3.9571  -3.9227
    -3.9105  -3.8777  -3.8169  -3.7731  -3.7572  -3.7410  -3.7178  -3.6923
    -3.6284  -3.5134  -3.4763  -3.4356  -3.3734  -3.3581  -3.3349  -3.3073
    -3.2410  -3.1517  -3.1393  -3.1110  -3.0125  -2.9402  -2.9316  -2.8951
    -2.8511  -2.7825  -2.7691  -2.7268  -2.6397  -2.5886  -2.5758  -2.5483
    -2.5225  -2.4893  -2.4766  -2.4450  -2.3988  -2.3706  -2.3528  -2.3211
    -2.2858  -2.2791  -2.2573  -2.2419  -2.1707  -2.1691  -2.0987  -2.0501
    -2.0249  -2.0087  -1.9035  -1.8896  -1.8664  -1.8361  -1.8185  -1.7885
    -1.7781  -1.7270  -1.6818  -1.6695  -1.6565  -1.6205  -1.6030  -1.5814
    -1.5610  -1.4648  -1.4613  -1.4534  -1.4403  -1.4189  -1.3610  -1.2936
    -1.2781  -1.2559  -1.2075  -1.2013  -1.1733  -1.1695  -1.1376  -1.1315
    -1.1145  -1.0877  -1.0643  -1.0541  -1.0192  -1.0093  -0.9975  -0.9902
    -0.9671  -0.9318  -0.8868  -0.8773  -0.7297  -0.6852  -0.6591  -0.5708
    -0.5483  -0.5302  -0.5208  -0.4834  -0.4656  -0.4444  -0.4266  -0.4028
    -0.3472  -0.3212  -0.2870  -0.2694  -0.2348  -0.2060  -0.1541  -0.1198
    -0.0915  -0.0427  -0.0002   0.0413   0.1016   0.1378   0.1657   0.1895
     0.2336   0.2435   0.2738   0.2987   0.3081   0.3391   0.3597   0.3832
     0.4259   0.4575   0.4900   0.5065   0.5285   0.5510   0.5806   0.6489
     0.7278   0.7452   0.8077   0.8450   0.9255   0.9553   0.9795   1.0018
     1.0704   1.1000   1.1468   1.1922   1.2332   1.2784   1.2832   1.3058
     1.3237   1.3500   1.3860   1.3943   1.4577   1.4717   1.4879   1.5198
     1.5278   1.5460   1.5527   1.6313   1.6584   1.7250   1.7488   1.7681
     1.7807   1.8232   1.8367   1.8873   2.0201   2.4361   2.5147   2.7928
     2.9451   2.9653   3.1795   3.2151   3.2771   3.3482   3.5971   3.7548
     3.9082   3.9668   4.0930   4.3845   4.4489   4.4941   4.5966   4.7562
     4.8229   4.9299   5.0664   5.1593   5.3002   5.3894   5.7758   5.9788
     6.0199   6.0355

          k = 0.4000-0.4619 0.0000 ( 90358 PWs)   bands (ev):

   -19.9837 -12.0774  -8.1488  -6.2843  -6.2368  -5.8432  -5.6332  -5.1489
    -4.9543  -4.6707  -4.6237  -4.4377  -4.3846  -4.3485  -4.2995  -4.2069
    -4.1684  -4.1072  -4.0855  -4.0194  -3.9804  -3.9731  -3.9569  -3.9305
    -3.9066  -3.8634  -3.8149  -3.7744  -3.7568  -3.7487  -3.7204  -3.6571
    -3.6213  -3.5127  -3.4747  -3.4590  -3.3836  -3.3684  -3.3394  -3.3100
    -3.2823  -3.1584  -3.1228  -3.1129  -2.9986  -2.9457  -2.9311  -2.8905
    -2.8572  -2.7744  -2.7524  -2.7257  -2.6310  -2.5914  -2.5822  -2.5444
    -2.5168  -2.4990  -2.4630  -2.4348  -2.3983  -2.3688  -2.3572  -2.3184
    -2.2894  -2.2782  -2.2558  -2.2419  -2.1675  -2.1627  -2.0946  -2.0507
    -2.0242  -2.0061  -1.8993  -1.8862  -1.8728  -1.8429  -1.8230  -1.7945
    -1.7859  -1.7320  -1.6857  -1.6625  -1.6524  -1.6214  -1.6011  -1.5814
    -1.5574  -1.4688  -1.4637  -1.4537  -1.4403  -1.4114  -1.3577  -1.2969
    -1.2784  -1.2536  -1.2064  -1.2018  -1.1786  -1.1711  -1.1441  -1.1373
    -1.1192  -1.0831  -1.0747  -1.0457  -1.0194  -1.0112  -0.9950  -0.9885
    -0.9730  -0.9325  -0.8930  -0.8854  -0.7352  -0.6948  -0.6583  -0.5742
    -0.5496  -0.5332  -0.5165  -0.4830  -0.4612  -0.4403  -0.4224  -0.3960
    -0.3439  -0.3201  -0.2853  -0.2790  -0.2262  -0.2049  -0.1537  -0.1210
    -0.0980  -0.0451   0.0051   0.0372   0.1106   0.1314   0.1688   0.1901
     0.2320   0.2431   0.2755   0.2962   0.3152   0.3304   0.3664   0.3815
     0.4269   0.4764   0.4917   0.5071   0.5348   0.5440   0.5743   0.6422
     0.6885   0.7617   0.8065   0.8419   0.9409   0.9621   0.9909   1.0068
     1.0661   1.1030   1.1418   1.1927   1.2289   1.2724   1.2812   1.3023
     1.3214   1.3472   1.3808   1.3960   1.4629   1.4686   1.4890   1.5157
     1.5265   1.5406   1.5530   1.6298   1.6579   1.7297   1.7533   1.7738
     1.7887   1.8307   1.8434   1.8873   2.0236   2.3336   2.6303   2.7656
     2.9376   2.9891   3.1794   3.2092   3.2700   3.3680   3.5367   3.7857
     3.9007   4.0257   4.0833   4.4001   4.4407   4.4755   4.6281   4.7304
     4.8240   4.9105   5.0504   5.1666   5.3010   5.3856   5.8217   5.9664
     5.9804   6.0188

     the Fermi energy is     1.5496 ev

!    total energy              =  -27835.93205719 Ry

     total all-electron energy =  -1326947.072563 Ry
     estimated scf accuracy    <       0.00000085 Ry
     smearing contrib. (-TS)   =       0.00325901 Ry
     internal energy E=F+TS    =  -27835.93531620 Ry

     The total energy is F=E-TS. E is the sum of the following terms:
     one-electron contribution =  -27718.00075841 Ry
     hartree contribution      =   14158.93516991 Ry
     xc contribution           =    -907.96189483 Ry
     ewald contribution        =   12128.32229799 Ry
     one-center paw contrib.   =  -25497.23013085 Ry

     convergence has been achieved in  16 iterations

     negative rho (up, down):  1.325E-02 0.000E+00

     Forces acting on atoms (cartesian axes, Ry/au):

     atom    1 type  1   force =     0.00123653    0.00064500   -0.00399689
     atom    2 type  1   force =     0.00022309   -0.00009492   -0.00346428
     atom    3 type  1   force =    -0.00086140    0.00064839   -0.00432578
     atom    4 type  1   force =     0.00013607    0.00011950   -0.00342328
     atom    5 type  1   force =     0.00031713    0.00011190   -0.00341997
     atom    6 type  1   force =     0.00025810   -0.00048371   -0.00312977
     atom    7 type  1   force =     0.00022416   -0.00124586   -0.00444226
     atom    8 type  1   force =    -0.00018307    0.00035144   -0.00316585
     atom    9 type  1   force =     0.00049975    0.00025185   -0.00314565
     atom   10 type  1   force =    -0.00153427   -0.00086351    0.00659526
     atom   11 type  1   force =     0.00092040   -0.00084935    0.00573169
     atom   12 type  1   force =     0.00010808    0.00074042   -0.00152386
     atom   13 type  1   force =    -0.00037530    0.00122525    0.00563306
     atom   14 type  1   force =    -0.00124538   -0.00078350    0.00732665
     atom   15 type  1   force =     0.00063479   -0.00095552    0.00741828
     atom   16 type  1   force =     0.00069894   -0.00015470   -0.00192872
     atom   17 type  1   force =    -0.00039424    0.00105484    0.00742664
     atom   18 type  1   force =    -0.00086019   -0.00024715   -0.00298117
     atom   19 type  1   force =    -0.00020508   -0.00027770   -0.00005200
     atom   20 type  1   force =     0.00010104    0.00001527   -0.00012152
     atom   21 type  1   force =     0.00019423    0.00005579    0.00003251
     atom   22 type  1   force =     0.00020615    0.00030440   -0.00009832
     atom   23 type  1   force =     0.00004709    0.00041049    0.00041821
     atom   24 type  1   force =    -0.00030065    0.00020616   -0.00007758
     atom   25 type  1   force =    -0.00038068    0.00020643    0.00040003
     atom   26 type  1   force =    -0.00037979    0.00037294    0.00015115
     atom   27 type  1   force =     0.00018541   -0.00018228    0.00001823
     atom   28 type  1   force =    -0.00005249   -0.00008321   -0.00009309
     atom   29 type  1   force =     0.00020101   -0.00038692   -0.00048864
     atom   30 type  1   force =     0.00021085    0.00001930    0.00008273
     atom   31 type  1   force =    -0.00026058    0.00023979   -0.00045826
     atom   32 type  1   force =     0.00021110    0.00007978   -0.00028557
     atom   33 type  1   force =     0.00014930   -0.00007579    0.00019595
     atom   34 type  1   force =     0.00026380    0.00035662   -0.00010315
     atom   35 type  1   force =    -0.00036474    0.00014014    0.00010016
     atom   36 type  1   force =     0.00010198    0.00033480    0.00011201
     atom   37 type  2   force =    -0.00050128   -0.00208591   -0.00154134
     atom   38 type  2   force =    -0.00235870   -0.00200880    0.00522731
     atom   39 type  3   force =     0.00022557    0.00103597   -0.00101613
     atom   40 type  4   force =     0.00290327    0.00185234   -0.00358681

     Total force =     0.008594     Total SCF correction =     0.002004
     SCF correction compared to forces is large: reduce conv_thr to get better values

     negative rho (up, down):  1.325E-02 0.000E+00

     negative rho (up, down):  1.325E-02 0.000E+00

     negative rho (up, down):  1.325E-02 0.000E+00

     negative rho (up, down):  1.325E-02 0.000E+00

     negative rho (up, down):  1.325E-02 0.000E+00

     negative rho (up, down):  1.325E-02 0.000E+00

     negative rho (up, down):  1.325E-02 0.000E+00

     negative rho (up, down):  1.325E-02 0.000E+00

     negative rho (up, down):  1.325E-02 0.000E+00

     negative rho (up, down):  1.325E-02 0.000E+00

     negative rho (up, down):  1.325E-02 0.000E+00

     negative rho (up, down):  1.325E-02 0.000E+00

     negative rho (up, down):  1.325E-02 0.000E+00

     negative rho (up, down):  1.325E-02 0.000E+00

     negative rho (up, down):  1.325E-02 0.000E+00

     negative rho (up, down):  1.325E-02 0.000E+00

     negative rho (up, down):  1.325E-02 0.000E+00

     negative rho (up, down):  1.325E-02 0.000E+00

     negative rho (up, down):  1.325E-02 0.000E+00

     negative rho (up, down):  1.325E-02 0.000E+00

     negative rho (up, down):  1.325E-02 0.000E+00

     negative rho (up, down):  1.325E-02 0.000E+00

     negative rho (up, down):  1.325E-02 0.000E+00

     negative rho (up, down):  1.325E-02 0.000E+00

     negative rho (up, down):  1.325E-02 0.000E+00

     negative rho (up, down):  1.325E-02 0.000E+00

     negative rho (up, down):  1.325E-02 0.000E+00

     negative rho (up, down):  1.325E-02 0.000E+00

     negative rho (up, down):  1.325E-02 0.000E+00

     negative rho (up, down):  1.325E-02 0.000E+00

     negative rho (up, down):  1.325E-02 0.000E+00

     negative rho (up, down):  1.325E-02 0.000E+00

     negative rho (up, down):  1.325E-02 0.000E+00

     negative rho (up, down):  1.325E-02 0.000E+00
 BEEFens 2000 ensemble energies
             -0.607525023035774E+02
             -0.362509750440273E+01
             -0.158635403372741E+02
              0.430257267285697E+02
             -0.221533999157996E+02
             -0.205690011862103E+02
             -0.352812855693489E+02
             -0.866402529379799E+02
             -0.466073101203116E+02
             -0.473968854373049E+02
             -0.369886889050524E+02
              0.226008142354171E+01
              0.405867352831845E+01
              0.765205955436349E+01
              0.266661034178301E+01
              0.475671537881425E+02
             -0.209369207578522E+02
             -0.230880803233402E+02
              0.193092628993491E+02
             -0.112567385180212E+03
              0.537313484152586E+02
             -0.290399216948925E+02
             -0.336365823907557E+01
             -0.114438750613419E+02
             -0.886640793291599E+01
             -0.467193070312135E+01
              0.884252855944484E+02
             -0.187104725846527E+02
             -0.903188454904546E+01
             -0.519136307678154E+02
              0.817246286446923E+02
             -0.187871414677612E+02
             -0.375716997457807E+02
              0.249876079136823E+02
             -0.285764739275726E+01
              0.164094407759058E+02
             -0.487370563128985E+01
              0.108421559153707E+02
              0.288268250181734E+02
             -0.103472099979187E+03
              0.559282767548069E+02
              0.142479704878029E+02
             -0.170335722519593E+01
             -0.362220902958175E+02
              0.123342422059034E+02
             -0.146966981791202E+02
              0.399099504344825E+02
              0.365531824929807E+02
             -0.308828630404940E+02
             -0.275580712184307E+02
             -0.328805161196473E+02
             -0.352530724623585E+02
              0.136029426522439E+02
             -0.491794194693332E+02
              0.115746345896226E+02
              0.623918038645648E+02
              0.636218983603535E+02
              0.356496313368804E+02
              0.154511326940552E+02
              0.270711193409834E+02
              0.892841127291329E+02
              0.213336609288448E+02
             -0.549592512770173E+02
             -0.157379120289407E+02
             -0.236239622849121E+02
              0.630903515900332E+02
             -0.774975463109422E+02
             -0.672774001420254E+02
             -0.259596663330938E+02
             -0.643712041935282E+01
             -0.471846834840673E+02
              0.271116791735519E+02
              0.802555351199749E+01
              0.869412908168118E+01
             -0.397757248035366E+02
             -0.347464234622445E+02
             -0.542654993196291E+02
              0.391333805310222E+02
             -0.296484421377322E+02
              0.265351810567844E+02
             -0.714285905630570E+01
             -0.318632261503489E+02
             -0.577627569134735E+02
             -0.177013136449937E+02
             -0.907096245322498E+01
             -0.125262811570408E+02
              0.412819018282373E+02
              0.683529130209445E+02
             -0.386176864633157E+02
             -0.796115531861854E+02
             -0.219898957754604E+02
              0.111712675091215E+03
             -0.593286211789565E+02
              0.356729840058605E+02
             -0.958144102823951E+01
             -0.664371275897924E+02
              0.254777904165882E+02
              0.398905220048961E+02
             -0.199048554087068E+02
              0.400872458768680E+02
             -0.296524533250326E+02
             -0.478707811858023E+02
              0.867074437835381E+02
              0.454829508863968E+02
              0.337271416935924E+02
              0.146709671744444E+02
              0.205853615156692E+02
              0.857823825972621E+02
             -0.257054509868442E+02
              0.788415016292325E+01
             -0.142635245992832E+03
              0.181692083010694E+02
             -0.717420020812973E+02
              0.151193861539338E+02
              0.204953781513603E+02
             -0.333245300870294E+02
             -0.558225362881926E+02
              0.656431090832700E+01
             -0.304531325806989E+02
              0.308401018420710E+02
             -0.530690189231516E+02
              0.172388767430459E+01
             -0.357483305785729E+02
             -0.424658890784707E+01
             -0.108363591825304E+01
              0.181057784643910E+02
              0.143657667064110E+01
             -0.653348715107506E+01
              0.591092290678395E+02
              0.909715250521706E+02
              0.484846722758379E+02
              0.832050643066726E+02
             -0.115321944571657E+02
              0.143524634158792E+02
              0.542119786199555E+02
             -0.111452992966734E+02
             -0.737032944345563E+02
             -0.384483003075762E+02
             -0.522530800710859E+02
             -0.277180302188394E+02
              0.327574890827897E+02
             -0.116966424434875E+03
             -0.187638651759568E+02
              0.414668650333776E+02
             -0.386775233596392E+02
             -0.366300335123083E+02
              0.544593406017929E+02
              0.401451647144141E+02
             -0.354631989431972E+02
              0.137483109850880E+02
             -0.273544887621315E+02
              0.343760875302631E+02
              0.446870274373805E+01
              0.211481482564344E+02
             -0.886294916927354E+02
             -0.480994492798689E+02
             -0.996208104316293E+01
              0.323011397784396E+01
             -0.367257643785420E+02
              0.106175193551718E+03
             -0.231481328576614E+02
             -0.399237732062382E+02
              0.389593464036541E+02
             -0.495123778954067E+02
             -0.363590887152890E+02
              0.325092339792460E+02
              0.124517549494449E+02
              0.164551105395678E+02
              0.116472627983388E+02
             -0.133001319150557E+02
              0.225642025924676E+02
              0.591072760500172E+02
             -0.312293475474148E+02
              0.162591896104273E+02
              0.935892687571522E+02
              0.341262152991494E+02
             -0.731361370726222E+01
             -0.188827898478741E+02
              0.153587187984896E+03
             -0.164194699557663E+02
              0.363673353477695E+02
              0.194598976221828E+02
              0.362433278211556E+02
              0.893513168757322E+02
              0.543772813838439E+02
             -0.240739272835015E+01
              0.227969972668193E+02
              0.485586086132010E+02
              0.364296322913427E+02
             -0.526372741147765E+02
              0.937398390552532E+02
             -0.827002300127101E+02
             -0.198682701082661E+02
              0.583808327230024E+02
              0.673313675890015E+01
              0.789898411881700E+01
              0.341577183271658E+02
              0.299631613310828E+02
              0.354315295526581E+02
             -0.638677595305098E+02
              0.288976669539500E+01
             -0.298015051704480E+02
             -0.874352258743961E+01
             -0.145915281832811E+01
             -0.723311122252736E+01
             -0.415833797887410E+01
              0.860602892917103E+02
             -0.101202054018262E+02
             -0.276917980358779E+02
             -0.497023382569348E+01
              0.139991560015483E+02
             -0.564914538066806E+02
             -0.407540539597542E+02
             -0.382600339692193E+02
             -0.631342550172699E+02
             -0.169948436781157E+02
             -0.448118135047061E+02
              0.163852330394352E+02
             -0.241550548805967E+01
             -0.104514301268059E+02
             -0.936140630201209E+01
              0.809049445721411E+01
             -0.243402143639844E+02
              0.690282172270998E+02
             -0.808309096297266E+02
             -0.141365097157422E+02
             -0.174349330777048E+02
              0.182192081705550E+02
              0.214424116311144E+02
             -0.464433077298097E+02
             -0.202422419352505E+02
              0.441466151350186E+02
             -0.276557827798847E+02
              0.187180595022375E+02
              0.383533324814710E+02
             -0.323696203741895E+01
              0.114333743717045E+03
             -0.230728605744946E+02
             -0.341630319713299E+02
              0.581145952848163E+01
             -0.228472104028060E+02
              0.528353805721214E+02
             -0.337449901735171E+02
              0.106421303652850E+02
              0.641969066681904E+02
             -0.126551743564981E+02
              0.120437021561139E+03
              0.126085767381858E+03
             -0.650894627551727E+02
              0.591489406195945E+02
              0.166490553023427E+02
             -0.518526348007078E+02
              0.216538345904070E+02
              0.354213418623284E+02
              0.363084236916330E+02
              0.135695507435977E+01
              0.159509574767226E+02
              0.696671312180831E+02
             -0.247244497151999E+02
              0.181551481951719E+02
              0.740453339410294E+02
             -0.373164204940535E+02
             -0.129641029158092E+02
              0.509219985018480E+02
              0.297722586719577E+02
              0.781612145280324E+02
              0.222834291870448E+02
              0.623909281382987E+01
              0.280770576451191E+02
              0.383794941366431E+02
             -0.472186152820429E+02
              0.329966565035437E+01
              0.129720534330151E+02
              0.113933864020615E+02
              0.220744307575318E+02
             -0.575660216669325E+02
              0.366752076803074E+02
             -0.444672320372139E+02
             -0.347853656010068E+02
              0.178071964691453E+02
             -0.181714773447472E+02
              0.555753893464817E+02
             -0.256989607166022E+02
              0.267227931225466E+02
              0.368701871367946E+02
              0.830526914587630E+02
              0.575603019644063E+02
              0.462411973879100E+02
             -0.106156451892737E+02
             -0.391032326628050E+01
             -0.332560885511211E+02
              0.751655191674433E+02
              0.798352772462640E+02
              0.362457017486734E+02
             -0.192227837438819E+02
              0.512682443307825E+02
             -0.163161175662622E+02
              0.215410943949439E+02
              0.615241795325741E+02
              0.214858553395359E+01
             -0.104405052816531E+02
             -0.283561723754058E+02
             -0.512172327356776E+02
              0.947022149063636E+02
              0.440151024462460E+02
             -0.559823489184463E+02
             -0.965452707554942E+01
              0.250428367333816E+02
             -0.999265987723686E+01
              0.593045148777096E+02
              0.152385272108384E+02
              0.800408415462653E+02
              0.279812062505053E+02
             -0.264753213343473E+02
              0.249665596342124E+02
             -0.502041537614656E+01
             -0.324408560767811E+02
              0.133574890487664E+02
              0.206199128551270E+02
              0.934084694354000E+02
              0.798692185186297E+02
              0.551645709354172E+02
              0.732031634984480E+02
              0.801084283491355E+01
             -0.274277075330341E+02
              0.163403917059265E+02
             -0.368517159885775E+02
             -0.476949616535231E+02
             -0.564703910095906E+02
             -0.266871592454802E+02
             -0.109868558886503E+03
             -0.291750049297509E+02
             -0.838618040228234E+02
              0.210363518402118E+02
             -0.477758101188566E+02
              0.397188729132864E+02
             -0.942658509769576E+02
             -0.330678188789833E+02
              0.549661168222238E+02
              0.208118951196948E+02
             -0.831922548391263E+02
              0.632297075946012E+02
             -0.257095893042322E+02
              0.513195090374301E+02
             -0.243199576832215E+02
             -0.752697055601892E+02
              0.112055826422545E+02
             -0.612269628566003E+02
             -0.168648744176061E+02
             -0.146459741245222E+01
              0.419059202630448E+02
              0.127202373220618E+03
             -0.462579079767108E+02
             -0.363207194196375E+02
             -0.960585485549814E+00
             -0.130683110263652E+02
             -0.823920638044273E+02
             -0.597687870248412E+02
              0.518166718096345E+02
             -0.289532422946259E+02
              0.169332293923637E+02
             -0.490137645850405E+02
             -0.131989177640354E+02
             -0.437847359435833E+02
              0.566451012684704E+02
              0.151596841302114E+02
             -0.231992532911407E+02
             -0.126900157992646E+02
              0.668237806987921E+01
             -0.620754147292394E+01
              0.442343275232895E+02
             -0.252405331958161E+02
              0.274525213283891E+01
              0.339886346777770E+02
              0.171752446094683E+02
             -0.159843558627771E+02
              0.156528134796847E+03
              0.538598538071549E+02
              0.116790364042259E+01
              0.161764640102505E+02
             -0.615733839521249E+02
              0.315401791573758E+02
             -0.722918463555248E+02
             -0.252410993150100E+02
             -0.523556854535385E+02
             -0.220310795948690E+02
              0.570029286358746E+02
             -0.537964767198538E+02
              0.160939368134030E+02
             -0.408565078236154E+01
              0.388430606822996E+01
             -0.434510756350965E+02
             -0.479111539229916E+02
             -0.397558015339473E+01
             -0.426065176100770E+02
             -0.217711882638725E+02
             -0.439004470903470E+02
             -0.119552968590557E+02
             -0.359566966303812E+02
             -0.517458427710420E+02
              0.213274329217872E+02
             -0.209676317296129E+02
              0.188028235530900E+02
              0.977894504776850E+01
             -0.739161524449987E+02
             -0.549160364666500E+02
             -0.398523261099900E+02
              0.354971502041699E+02
              0.271583165148670E+01
             -0.627787115822222E+02
              0.586600959003354E+02
             -0.401821303640120E+02
              0.545567934225775E+02
             -0.289975208939605E+02
             -0.446848531991715E+02
              0.299057933229587E+02
             -0.658794670389869E+02
             -0.380773323474195E+02
              0.673827251166477E+02
              0.204261690308736E+02
             -0.360525878716219E+02
              0.490217768722312E+02
             -0.174283938877811E+02
             -0.323479355855681E+02
             -0.302327417614527E+02
             -0.501399830367166E+02
              0.249616911812279E+02
             -0.934565334813091E+02
             -0.841771169495776E+02
             -0.736129364442672E+01
             -0.307324454354247E+02
             -0.576317031156758E+02
              0.722917673059179E+02
              0.131734779499090E+03
             -0.361799517783950E+02
             -0.255139446456428E+01
             -0.638223737555663E+02
              0.651688094600016E+02
              0.170945495100408E+02
             -0.181729148100866E+02
             -0.410729914362178E+02
              0.149007626982138E+02
             -0.587264339629518E+02
             -0.198217117891120E+02
             -0.906261075757077E+02
              0.337495005016249E+02
              0.169283847351127E+02
              0.185600404311356E+01
             -0.704835707362736E+01
             -0.329880565387800E+02
             -0.758831451887727E+01
              0.125714618206306E+03
             -0.199411862027403E+02
             -0.438084905930393E+02
             -0.684942179580523E+02
              0.109448643963792E+02
             -0.342614467904613E+02
              0.591049500446434E+01
              0.261933516556998E+02
              0.102173457434075E+02
              0.278248803607205E+02
              0.119932095856781E+02
              0.630617791991235E+02
              0.317570393814862E+02
             -0.327051376951052E+02
              0.356056949449759E+02
              0.380067519238757E+02
              0.121039436450333E+02
              0.487796327966615E+02
             -0.224939063968755E+02
              0.766847338409946E+02
              0.172377008475802E+02
             -0.272618432491989E+02
             -0.723979280386155E+01
             -0.186765339432549E+02
              0.262471148553159E+02
             -0.235199500726196E+02
             -0.103948293922514E+00
             -0.850552515943946E+01
              0.811264517552698E+02
              0.500902042835491E+02
             -0.688457629038308E+02
             -0.474463015894230E+01
             -0.556436829094583E+02
             -0.159976712668471E+02
             -0.268559580152542E+02
              0.376424462377793E+01
              0.578700774205675E+00
             -0.257867715922277E+02
              0.814321232197500E+01
             -0.603594914515199E+01
             -0.128806652860533E+02
              0.860434917577335E+02
              0.182314508454731E+02
             -0.808293494704970E+02
             -0.459305850885522E+02
              0.946272277724388E+02
              0.278274813295292E+02
             -0.106914956394228E+02
              0.104739704107177E+03
             -0.195360153504485E+02
             -0.123335451084914E+02
             -0.538555889947907E+01
              0.107586851264329E+02
              0.272730916685974E+02
              0.780375048299391E+01
              0.305727290167948E+02
             -0.188394148572478E+02
             -0.303967895442836E+02
             -0.418630363450303E+02
             -0.477704587180912E+02
              0.464910640311895E+02
              0.127039779614381E+02
              0.388187832840703E+02
              0.133697251822757E+02
              0.857059147885983E+02
              0.156611816514051E+02
             -0.847430559333602E+02
             -0.335015338860595E+02
              0.134100649602102E+02
             -0.303197222433758E+02
              0.627440824396655E+02
             -0.888766907295962E+01
              0.149161474344292E+02
              0.497882389111338E+02
             -0.708519700449457E+02
              0.149982436910913E+03
              0.208952891041269E+02
              0.271643822897612E+02
              0.348121095436142E+02
              0.103892060305521E+02
             -0.158118198413621E+01
              0.359094217567191E+02
             -0.357621158288429E+02
              0.774555784723600E+02
              0.685907065075927E+02
             -0.406680718041389E+02
              0.149696704662981E+02
              0.671316420902250E+02
             -0.224330642703107E+02
              0.154467441637221E+02
              0.436097313439413E+02
              0.423125313708970E+02
             -0.786160109103237E+02
             -0.153109354956723E+02
             -0.356967995603340E+02
             -0.149388461668389E+01
             -0.764087638002015E+01
             -0.546861457401758E+01
             -0.181260851697031E+02
             -0.294115505321872E+02
              0.632627446306975E+01
              0.112097527052742E+02
              0.536531610742783E+02
             -0.390881064752733E+02
              0.374764233585197E+02
              0.439143775432280E+02
             -0.187143647336455E+02
              0.874090115202364E+02
             -0.699024440446477E+02
             -0.103371356339539E+03
             -0.659435621815557E+01
             -0.271368884145136E+01
              0.386616578695828E+01
              0.790771860755439E+02
             -0.107319238402506E+02
              0.417286361732897E+02
              0.444135250930059E+02
              0.386041425909950E+02
             -0.995996426335421E+01
              0.628854408540424E+02
             -0.133998173566361E+02
             -0.307810986563478E+02
             -0.480459546427910E+02
              0.586241488910744E+01
              0.370405402458885E+02
             -0.604961291120989E+01
              0.393834664657870E+02
             -0.178160109896635E+01
              0.656527563472883E+02
              0.187989308749351E+02
              0.100024758520980E+02
             -0.121906418424988E+02
              0.332872586511455E+02
              0.363323564791429E+02
              0.233205610879984E+02
             -0.509454399516073E+00
             -0.551288026144539E+02
              0.261338374065672E+02
              0.175550282329689E+02
              0.403346580453952E+02
              0.272906921003724E+02
              0.372998371752524E+02
             -0.604229129672970E+01
              0.251278323399711E+02
             -0.298882560156167E+02
             -0.197225580157044E+01
             -0.570261216103234E+02
             -0.308542325754397E+02
              0.379376808218100E+02
             -0.937212111779274E+02
              0.295129395459169E+02
              0.184302246780157E+02
              0.841562525461419E+02
             -0.301324425816920E+02
              0.329801038786174E+02
             -0.138038169158663E+02
             -0.464865521723424E+02
             -0.763076799242743E+02
             -0.525836929080322E+01
             -0.861402522949201E+02
              0.200243584352068E+02
             -0.247830987215567E+02
              0.306245237269399E+02
              0.237094074464778E+02
             -0.241424524115107E+02
             -0.265579551431307E+02
              0.391614645137779E+02
             -0.589094334054357E+02
             -0.116874338495354E+02
             -0.196554284769466E+02
              0.212835999323506E+02
             -0.895074108780028E+01
              0.365395689766041E+01
             -0.201190698421305E+02
              0.559893544132716E+02
             -0.439964715860901E+02
              0.791372503131493E+01
              0.586395480872192E+02
             -0.323817812731648E+02
              0.359758113341545E+01
             -0.884075755240963E+01
             -0.670877526830863E+02
             -0.483753355479088E+02
             -0.864371135623719E+01
              0.241154313953328E+02
              0.302815940413195E+02
              0.859324624825376E+01
             -0.416014615778988E+01
              0.152574043119848E+02
             -0.440840486310414E+02
              0.334884623829731E+01
             -0.531794953016341E+02
             -0.325175662068293E+02
              0.475536025545005E+02
             -0.295652856539562E+02
              0.623404385486672E+02
             -0.214850069434895E+02
              0.354457020732344E+02
              0.242201336794381E+02
             -0.645129627703375E+02
             -0.281112897180659E+02
              0.933008842158628E+01
             -0.372359700283305E+02
             -0.340195331203356E+02
             -0.831450368611513E+02
             -0.540397915110890E+02
             -0.511521106686112E+02
             -0.416262054352136E+02
             -0.967145931946135E+00
              0.996634970183021E+01
              0.101244269067345E+01
              0.153441993729797E+02
             -0.550397445302686E+02
              0.142060527820760E+02
              0.256681383105723E+02
             -0.667857882357802E+02
             -0.703160280747028E+02
             -0.431926328642257E+02
             -0.172206733441239E+02
              0.179089923039556E+02
              0.456587995478901E+01
             -0.426857245679046E+02
              0.367154500031108E+02
             -0.216255872925420E+02
              0.518291875614788E+02
             -0.888780779117545E+02
              0.598590850015418E+02
             -0.210825180374991E+01
             -0.368944844895630E+02
             -0.216981513522311E+02
              0.472288807337891E+01
              0.375276860330978E+02
             -0.757666218855647E+02
             -0.121127006582159E+02
             -0.217051487663703E+02
              0.512109604225444E+02
              0.866181816832942E+02
             -0.966836071000248E+02
              0.945713624881622E+02
              0.468683214239832E+02
             -0.726771621429598E+02
             -0.367331438069368E+02
              0.753084449739861E+02
              0.633053772417959E+02
             -0.181267885890285E+02
             -0.463140392473753E+01
              0.732435343105767E+01
              0.650165282911415E+02
             -0.509213145457764E+02
              0.158898772464702E+02
             -0.473891234528111E+01
              0.348378597304118E+02
             -0.748362170899492E+02
             -0.651071150437249E+01
             -0.351851075090705E+02
              0.461423538464451E+02
              0.469487463771587E+02
             -0.863345984191889E+02
             -0.488098172011384E+02
             -0.256649738459505E+02
             -0.339873242529237E+02
             -0.109751982610648E+02
             -0.243325512704469E+02
              0.428027173960612E+02
              0.401862868053971E+02
             -0.568349423078547E+01
             -0.417080910396537E+02
             -0.851763586962707E+02
              0.443627808136448E+02
             -0.524280769002264E+02
             -0.313337804908129E+02
              0.547566965384773E+01
             -0.323133849976664E+02
             -0.398799631047165E+02
             -0.240504736368984E+02
             -0.385944851475842E+02
             -0.271399179498151E+02
             -0.483463085978525E+02
              0.565132110454157E+02
              0.639450150499891E+02
             -0.170253139935767E+01
             -0.261720544975810E+02
             -0.626168687579479E+01
              0.441843120387559E+02
             -0.869585649118785E+02
             -0.146777060140213E+02
              0.524627127338238E+02
              0.664681409386956E+02
             -0.244830211337533E+02
              0.917474115919993E+01
              0.524460788732725E+02
              0.198319896924836E+02
             -0.831929978436904E+01
             -0.453954363195760E+02
              0.280920244225016E+02
             -0.353252823987161E+02
             -0.165299151627023E+02
             -0.153261393952930E+02
             -0.200630257823469E+02
              0.195102524540268E+02
              0.801492424559597E+02
              0.187802717402957E+01
              0.535461844804104E+01
             -0.889078021682134E+02
             -0.176087237463859E+02
             -0.353462343470587E+02
              0.278189338199405E+01
             -0.410196551208927E+02
              0.731668969499831E+02
              0.786254181101082E+02
              0.124364670626688E+02
             -0.141553320865783E+02
              0.144114085843334E+02
              0.261149473435486E+02
             -0.482776851397601E+02
             -0.875094276445247E+01
[...]
              0.283779409337766E+02
              0.142055153547485E+03
              0.242575643631914E+02
              0.122801391760518E+02
             -0.465353058039587E+02
             -0.639164729767468E+02
             -0.189232502290602E+02
              0.329939668153029E+02
             -0.428211750609478E+01
              0.190160303283360E+02
              0.336757101298032E+02
             -0.587681226065260E+02
              0.222797454296445E+02
              0.583302366507288E+02
              0.554062969553582E+02
             -0.420502375546477E+01
             -0.138928706117588E+01
             -0.994690203274689E+01
             -0.483305908603818E+02
             -0.675875079935415E+02
              0.787115693206017E+02
             -0.524056309363144E+01
             -0.589012914217100E+02
              0.169747366559699E+01
             -0.205485121868652E+02
              0.939908542017477E+02
             -0.216893708212086E+02
             -0.354019197802382E+02
              0.335446054478499E+02
             -0.145905585593790E+02
              0.390263135057084E+02
             -0.241303096295519E+01
              0.101259436264505E+03
              0.490244016816102E+02
             -0.513348907769508E+01
             -0.322522123194493E+02
              0.232530308504428E+02
             -0.529478480986889E+02
             -0.128270566693519E+02
              0.586658888107155E+02
             -0.288167068334203E+02
             -0.439245380558126E+02
             -0.223477162487649E+02
              0.519566682544397E+02
              0.125156549081863E+02
             -0.850084477070820E+02
              0.304256338875079E+02
              0.152577294286403E+02
              0.576636182149849E+01
             -0.514254078922374E+02
             -0.378066502429141E+01
              0.323794746831709E+02
              0.513745643724603E+02
              0.633431759058981E+02
              0.229285815096021E+02
              0.783892840460709E+00
             -0.498557911173381E+02
             -0.510665230512560E+02
             -0.749283471764165E+02
             -0.615570319679955E+01
              0.309405438462549E+02
             -0.378436394429508E+01
              0.547787155919813E+02
             -0.318432198572974E+02
              0.166918744921797E+02
             -0.102513498207229E+02
             -0.289933956183506E+02
              0.586387625766442E+02
              0.793642403784162E+01
              0.605052820850004E+02
              0.507665125683297E+01
              0.265590603037301E+02
             -0.192990055364376E+02
              0.587176069132103E+02
             -0.111338276139327E+02
             -0.137530163790849E+00
             -0.791276262446361E+02
             -0.128576784712653E+02
              0.720194451308815E+02
              0.674331779670856E+02
              0.252194825005199E+02
             -0.130497840777937E+02
              0.342723043587245E+01
             -0.173582785255613E+02
             -0.202306995791656E+01
              0.908918927384973E+02
              0.122981534925771E+01
             -0.190710285513729E+02
             -0.110935846844704E+03
             -0.553804263315730E+02
             -0.375458994082737E+02
             -0.659774503122372E+02
             -0.556308363417609E+02
             -0.683717863186203E+02
             -0.447847009347236E+02
             -0.411686081056118E+02
             -0.452499781651664E+02
              0.484164237710649E+02
             -0.294806633602321E+02
             -0.997367219548793E+02
              0.419426287450903E+02
             -0.260420231364042E+02
             -0.792208427094990E+02
              0.945268393011465E+02
             -0.220025358862069E+02
              0.228478005606622E+02
              0.455736070412712E+02
             -0.138333866428991E+01
              0.254633050386764E+02
              0.467986273729986E+01
              0.407168167618622E+00
             -0.150701757035748E+02
             -0.716648206125822E+02
              0.133201259433415E+02
             -0.129607708726266E+03
              0.624766751884168E+02
             -0.441280337975189E+02
             -0.162920564304137E+02
             -0.158368601345461E+02
              0.713822729072044E+01
             -0.228069981411082E+02
              0.297602984796382E+02
             -0.521253502774016E+02
              0.367917565212428E+02
              0.371211030229102E+02
              0.168982529433560E+02
              0.100555053539939E+02
              0.198061457661184E+02
              0.621805158889094E+01
              0.310930656317346E+02
             -0.801578095806806E+01
             -0.592693988059109E+02
              0.759349624952193E+01
             -0.152925173943562E+02
             -0.193447056796305E+01
              0.506596180003650E+02
             -0.828092745581346E+02
             -0.149537553086520E+01
              0.568850695454216E+00
              0.995804525128614E+01
              0.319102943025330E+02
             -0.123926962401323E+02
              0.837000342406963E+02
              0.488679009921623E+02
             -0.183525757326581E+02
             -0.959784394411213E+01
              0.104536587039325E+01
              0.770743520799117E+02
             -0.587162920248903E+02
             -0.105916843349522E+03
              0.309506635111470E+02
             -0.163208211910294E+02
             -0.139434424647030E+02
              0.130870075832796E+02
              0.769741601972024E+02
              0.464968960643068E+02
             -0.153852652524582E+02
             -0.503636377052398E+02
             -0.548517059238587E+01
              0.306881283764613E+02
             -0.111615976630591E+02
             -0.756726051972221E+02
             -0.269775079208409E+01
             -0.891131308630276E+02
             -0.476129134281387E+02
              0.769520836610683E+02
             -0.484223831047365E+02
             -0.637381342050844E+02
             -0.515116040239734E+02
             -0.350181335524146E+02
              0.341159985822493E+02
              0.822579505952030E+02
             -0.355880499121361E+01
              0.277037153534713E+02
             -0.183807363359296E+02
             -0.694947021419715E+02
              0.465717679538355E+02
             -0.445565177050025E+02
              0.322276253429158E+02
              0.376925456290044E+02
             -0.654189967026139E+01
              0.391368155445314E+02
              0.439095886635647E+02
              0.100783369998323E+03
             -0.156450004005320E+02
             -0.456377454764697E+02
             -0.613777852884900E+02
             -0.124067120866216E+02
             -0.232897513912803E+02
              0.103193643456784E+03
             -0.449626010196682E+02
              0.105227452876397E+02
              0.974394999152969E+01
             -0.265215155961936E+02
             -0.799693004620705E+02
             -0.699595503709969E+01
              0.981142320861425E+02
              0.935980189645761E+01
              0.809385981688524E+01
             -0.527460908414563E+02
             -0.606389401585996E+02
             -0.562338508323670E+01
              0.501269671467129E+02
             -0.222106673554714E+02
              0.108136549564213E+03
             -0.435814864834463E+02
              0.146493269883873E+02
             -0.224802786460184E+02
             -0.719470239638972E+02
              0.168225280723141E+01
             -0.502281714991723E+02
             -0.761627489379571E+02
              0.615346272102818E+01
              0.237792249052868E+01
              0.514820424648394E+02
              0.187425964956568E+02
             -0.324064361861919E+02
              0.230374823011969E+02
             -0.811760357230778E+02
             -0.522707755722189E+02
              0.903023765209398E+02
              0.142791953900775E+02
             -0.188428514824051E+02
             -0.352939831024659E+02
             -0.270677673263856E+01
             -0.586769933036862E+01
              0.830990489179766E+02
              0.418180958736932E+02
             -0.166473242999314E+02
             -0.122159883635007E+02
             -0.428149975239534E+02
             -0.201120231773405E+02
             -0.671125175973929E+02
              0.460329722488170E+02
              0.547663084059610E+01
              0.145250766229907E+02
              0.156106935034146E+02
             -0.565318180543557E+00
             -0.168542380953875E+02
             -0.312079377568446E+01
             -0.100562114738689E+03
             -0.230323678116488E+02
             -0.764619102023465E+01
             -0.950278423266994E+01
              0.547576731316565E+02
              0.624566997469918E+02
              0.164939801837394E+02
             -0.971887961318247E+02
              0.648518947306484E+02
             -0.215258683079273E+02
             -0.377616779455095E+02
             -0.865424142111204E+02
             -0.387539596217310E+02
              0.565055657501911E+02
              0.244407408151229E+02
              0.513600271745702E+01
              0.292544125535043E+02
             -0.565684084521899E+02
             -0.422702522375712E+02
              0.516008162818832E+02
              0.387681115883265E+02
              0.519788547173108E+02
             -0.125115641394513E+01
              0.685786865683207E+01
              0.570189747004179E+02
              0.964143902476242E+02
             -0.300765325048364E+02
              0.323330035137549E+02
             -0.118214800219365E+02
             -0.412638625323566E+02
             -0.314751319314849E+02
             -0.300372189976145E+02
             -0.131604458000645E+02
             -0.524197518889128E+02
             -0.217746369511001E+02
             -0.141371407332600E+03
              0.369337347775955E+02
              0.206888739752374E+02
             -0.393561433440748E+01
             -0.380787874362452E+02
             -0.204709251153802E+02
             -0.527498267995668E+02
              0.151448623629880E+02
              0.821238078417730E+02
             -0.252313068356414E+02
             -0.163244287318222E+02
              0.238417888783439E+02
             -0.489858055018691E+02
              0.881716651921160E+02
              0.154764478649057E+02
              0.226698852402195E+02
              0.491160508116652E+02
              0.322926620266634E+01
              0.542879358243684E+02
              0.143191450360847E+02
             -0.106887990649825E+02
              0.734053169264951E+01
              0.804759298348074E+00
              0.728340012873097E+02
              0.101181536876044E+02
              0.120554029009643E+02
             -0.130051390983950E+02
              0.132415924265671E+02
             -0.912408121487630E+02
             -0.326534586973587E+02
             -0.457848291228860E+02
              0.486187030422328E+02
             -0.291375240285366E+02
             -0.659521615883668E+02
              0.539299636538179E+02
             -0.122163780656823E+02
              0.440820413089787E+02
             -0.899992644025373E+02
              0.232757613666987E+02
              0.859491814867076E+01
              0.583448889444139E+01
             -0.831943962029317E+01
             -0.904040838281048E+01
              0.479935674715121E+02
              0.198490259751418E+01
             -0.475619530019893E+02
             -0.176177166486283E+02
              0.277135832443976E+02
             -0.118090850175756E+03
             -0.931292983695210E+02
              0.396635770916060E+01
              0.117589751065322E+02
             -0.413612556861721E+02
             -0.390626536083664E+01
              0.112273140297759E+03
              0.307284255663194E+02
             -0.572423006996256E+02
              0.926530459284729E+01
             -0.964656933647180E+01
              0.105657432941726E+02
             -0.338028933779598E+02
              0.195415695997579E+02
              0.285092945548004E+02
             -0.301527555758202E+01
              0.108328401886160E+03
             -0.140513522052849E+02
             -0.316380679335819E+02
              0.142960165245919E+02
              0.466954870707300E+02
             -0.356454932022377E+02
             -0.319008158452542E+01
              0.965989429044783E+02
             -0.464127991815428E+01
              0.622421402585112E+02
              0.135633905062738E+02
             -0.905748478960255E+01
             -0.305886203841369E+02
              0.567650453855911E+02
             -0.514869991673733E+02
             -0.221297221847726E+01
             -0.170047349481878E+02
             -0.405915587223397E+02
              0.185143776259475E+02
              0.239436002963322E+02
              0.116411038389413E+02
              0.708481988301628E+00
             -0.384988581855164E+02
              0.215769002548988E+02
             -0.674089504514205E+01
             -0.246999601868607E+02
             -0.211006525935263E+02
              0.203795243380545E+02
             -0.599044517445577E+01
             -0.349660917160703E+02
             -0.106756680356993E+03
              0.102980958970489E+02
              0.249362553288630E+02
             -0.387847955449780E+02
             -0.211215456922044E+02
              0.808158507612503E+02
              0.649867842304997E+01
              0.311146050428000E+02
              0.390981544144395E+01
              0.322327593636365E+02
              0.646585495797132E+01
             -0.373592539445368E+02
             -0.228878972401083E+01
              0.878759031483219E+01
              0.273991354951773E+02
              0.783265919400901E+02
              0.508022125254406E+02
              0.174836807589486E+00
              0.169338124259600E+02
              0.613992178378302E+02
              0.236237910010753E+02
             -0.754010542519226E+02
             -0.273944626171488E+02
              0.151355352496529E+02
              0.563418929585970E+01
              0.255538558569548E+02
             -0.548518006459786E+02
              0.903289470450648E+01
              0.386356524539905E+02
              0.498677210992559E+02
             -0.435655444540370E+02
             -0.694567508957562E+01
             -0.208383796448783E+01
             -0.133820242082668E+02
             -0.366252395323157E+02
             -0.215754302695889E+02
             -0.199234186473076E+01
              0.792557425151017E+01
              0.421847576491853E+02
             -0.308736522768431E+02
              0.827218321181298E+02
              0.328152524018192E+02
              0.220097762455878E+02
              0.333329641016591E+02
              0.323783644357421E+02
              0.346340554735280E+02
              0.537924862177878E+02
             -0.434427157357276E+02
              0.620468814764698E+02
             -0.112396509963808E+03
              0.307808620711487E+02
             -0.106685974895147E+03
              0.855874690746748E+02
              0.691607385151861E+02
             -0.110125395049711E+02
             -0.493961790907265E+02
             -0.429998876421299E+02
             -0.624383881690278E+02
             -0.629471904972669E+02
              0.552591232584489E+02
              0.406222805012341E+02
              0.237205964199078E+02
              0.374450723938930E+02
              0.403496647250900E+02
             -0.382566057192535E+02
             -0.198219363853724E+02
              0.587443377275197E+02
             -0.116245855636845E+02
              0.552460225063491E+02
              0.700367450750017E+02
             -0.554331411598896E+01
             -0.707222286482005E+02
             -0.910134881699150E+00
             -0.245511905495784E+01
             -0.884029903009616E+01
             -0.179857629594085E+01
             -0.654006071722896E+02
             -0.211372646044425E+02
              0.538249927357266E+01
              0.897585974606727E+01
              0.469534168817381E+02
             -0.398220306726891E+02
              0.658600079746377E+02
             -0.425950399367266E+02
              0.210511967600439E+02
              0.350859234142673E+02
 
 BEEF-vdW xc energy contributions
           1 :   -784.086657604657     
           2 :    720.375341076199     
           3 :   -610.069979228123     
           4 :    480.189511388728     
           5 :   -358.174297436594     
           6 :    263.811612744153     
           7 :   -204.757919405700     
           8 :    176.524222253880     
           9 :   -166.487215241445     
          10 :    160.032690264987     
          11 :   -146.334054499037     
          12 :    121.586530036364     
          13 :   -88.8486934406815     
          14 :    55.1291252555827     
          15 :   -27.4086540639278     
          16 :    9.39595060196552     
          17 :  -0.263064191601984     
          18 :   -4.38873719513231     
          19 :    10.0400309867896     
          20 :   -20.5554130802407     
          21 :    36.5155189891366     
          22 :   -55.2358222530505     
          23 :    72.2986936343619     
          24 :   -83.7617794594532     
          25 :    87.9521749940769     
          26 :   -86.0635857213736     
          27 :    81.3776843920260     
          28 :   -77.5712108147691     
          29 :    76.9655765714382     
          30 :   -79.5521714684152     
          31 :   -85.9185228014222     
          32 :   -65.8562791775354     

     Writing output data file ./pwscf.save/
 
     init_run     :    241.79s CPU    246.17s WALL (       1 calls)
     electrons    :   8156.80s CPU   8255.00s WALL (       1 calls)
     forces       :     76.85s CPU     78.08s WALL (       1 calls)

     Called by init_run:
     wfcinit      :    197.06s CPU    200.42s WALL (       1 calls)
     potinit      :     41.11s CPU     41.43s WALL (       1 calls)
     hinit0       :      1.74s CPU      1.78s WALL (       1 calls)

     Called by electrons:
     c_bands      :   6766.68s CPU   6841.00s WALL (      16 calls)
     sum_band     :    843.87s CPU    854.04s WALL (      16 calls)
     v_of_rho     :    102.84s CPU    106.28s WALL (      17 calls)
     newd         :     24.05s CPU     34.61s WALL (      17 calls)
     PAW_pot      :     95.44s CPU     95.44s WALL (      17 calls)
     mix_rho      :    365.64s CPU    366.21s WALL (      16 calls)
     vdW_kernel   :     30.75s CPU     30.75s WALL (       1 calls)

     Called by c_bands:
     init_us_2    :     61.67s CPU     61.92s WALL (     442 calls)
     cegterg      :   6175.31s CPU   6249.39s WALL (     208 calls)

     Called by *egterg:
     cdiaghg      :     63.42s CPU     63.44s WALL (    1202 calls)
     h_psi        :   3781.44s CPU   3807.68s WALL (    1215 calls)
     s_psi        :    686.69s CPU    686.54s WALL (    1215 calls)
     g_psi        :     14.03s CPU     14.03s WALL (     994 calls)

     Called by h_psi:
     h_psi:calbec :    631.39s CPU    631.38s WALL (    1215 calls)
     vloc_psi     :   2440.76s CPU   2441.04s WALL (    1215 calls)
     add_vuspsi   :    686.92s CPU    686.83s WALL (    1215 calls)

     General routines
     calbec       :    911.69s CPU    911.63s WALL (    1475 calls)
     fft          :     36.51s CPU     36.53s WALL (    3036 calls)
     ffts         :     97.65s CPU     97.65s WALL (    9729 calls)
     fftw         :   2416.42s CPU   2416.27s WALL (  286986 calls)
 
     Parallel routines
 
     PWSCF        :      2h23m CPU      2h25m WALL

 
   This run was terminated on:  18:58:34  20May2022            

=------------------------------------------------------------------------------=
   JOB DONE.
=------------------------------------------------------------------------------=
