
     Program PWSCF v.6.7MaX starts on 20May2022 at 16:25:29 

     This program is part of the open-source Quantum ESPRESSO suite
     for quantum simulation of materials; please cite
         "P. Giannozzi et al., J. Phys.:Condens. Matter 21 395502 (2009);
         "P. Giannozzi et al., J. Phys.:Condens. Matter 29 465901 (2017);
          URL http://www.quantum-espresso.org", 
     in publications or presentations arising from this work. More details at
     http://www.quantum-espresso.org/quote

     Parallel version (MPI), running on     1 processors

     MPI processes distributed on     1 nodes
     Reading input from cco-ensemble.in
Warning: card &CELL ignored
Warning: card / ignored

     Current dimensions of program PWSCF are:
     Max number of different atomic species (ntypx) = 10
     Max number of k-points (npk) =  40000
     Max angular momentum in pseudopotentials (lmaxx) =  3
     file Pt.pbe-n-kjpaw_psl.1.0.0.UPF: wavefunction(s)  6S 5D renormalized
     file C.pbe-n-kjpaw_psl.1.0.0.UPF: wavefunction(s)  2S 2P renormalized
     file O.pbe-nl-kjpaw_psl.1.0.0.UPF: wavefunction(s)  2S 2P renormalized

     **************************************************************************
     Initializing libbeef V0.1.2 with the BEEF-vdW functional.
     Citation: Wellendorff et al., PRB 85, 235149 (2012).
     **************************************************************************


     IMPORTANT: XC functional enforced from input :
     Exchange-correlation= BEEF-VDW
                           (   1   4  43  14   2   0   0)
     Any further DFT definition will be discarded
     Please, verify this is what you really want


     Subspace diagonalization in iterative solution of the eigenvalue problem:
     a serial algorithm will be used

 
     G-vector sticks info
     --------------------
     sticks:   dense  smooth     PW     G-vecs:    dense   smooth      PW
     Sum        4267    4267   1159               730739   730739  103005
 


     bravais-lattice index     =            0
     lattice parameter (alat)  =      16.0349  a.u.
     unit-cell volume          =   11636.5690 (a.u.)^3
     number of atoms/cell      =           39
     number of atomic types    =            3
     number of electrons       =       374.00
     number of Kohn-Sham states=          224
     kinetic-energy cutoff     =      60.0000  Ry
     charge density cutoff     =     240.0000  Ry
     scf convergence threshold =      1.0E-06
     mixing beta               =       0.7000
     number of iterations used =            8  local-TF  mixing
     Exchange-correlation= BEEF-VDW
                           (   1   4  43  14   2   0   0)

     celldm(1)=  16.034858  celldm(2)=   0.000000  celldm(3)=   0.000000
     celldm(4)=   0.000000  celldm(5)=   0.000000  celldm(6)=   0.000000

     crystal axes: (cart. coord. in units of alat)
               a(1) = (   1.000000   0.000000   0.000000 )  
               a(2) = (   0.500000   0.866025   0.000000 )  
               a(3) = (   0.000000   0.000000   3.259110 )  

     reciprocal axes: (cart. coord. in units 2 pi/alat)
               b(1) = (  1.000000 -0.577350  0.000000 )  
               b(2) = (  0.000000  1.154701  0.000000 )  
               b(3) = (  0.000000  0.000000  0.306832 )  


     PseudoPot. # 1 for Pt read from file:
     /users/bkreitz1/quantum-espresso/potentials/Pt.pbe-n-kjpaw_psl.1.0.0.UPF
     MD5 check sum: 04dc8a03c51ece93fc7b5889c2958091
     Pseudo is Projector augmented-wave + core cor, Zval = 10.0
     Generated using 'atomic' code by A. Dal Corso  v.6.7MaX
     Shape of augmentation charge: PSQ
     Using radial grid of 1277 points,  6 beta functions with: 
                l(1) =   0
                l(2) =   0
                l(3) =   1
                l(4) =   1
                l(5) =   2
                l(6) =   2
     Q(r) pseudized with 0 coefficients 


     PseudoPot. # 2 for C  read from file:
     /users/bkreitz1/quantum-espresso/potentials/C.pbe-n-kjpaw_psl.1.0.0.UPF
     MD5 check sum: a169b0ebad56f5ec0d79c4633f80bf22
     Pseudo is Projector augmented-wave + core cor, Zval =  4.0
     Generated using 'atomic' code by A. Dal Corso  v.6.7MaX
     Shape of augmentation charge: PSQ
     Using radial grid of 1073 points,  4 beta functions with: 
                l(1) =   0
                l(2) =   0
                l(3) =   1
                l(4) =   1
     Q(r) pseudized with 0 coefficients 


     PseudoPot. # 3 for O  read from file:
     /users/bkreitz1/quantum-espresso/potentials/O.pbe-nl-kjpaw_psl.1.0.0.UPF
     MD5 check sum: eef08af8b58d9ec80f8fdb78829eb7cf
     Pseudo is Projector augmented-wave + core cor, Zval =  6.0
     Generated using 'atomic' code by A. Dal Corso  v.6.7MaX
     Shape of augmentation charge: PSQ
     Using radial grid of 1095 points,  4 beta functions with: 
                l(1) =   0
                l(2) =   0
                l(3) =   1
                l(4) =   1
     Q(r) pseudized with 0 coefficients 


     atomic species   valence    mass     pseudopotential
        Pt            10.00   195.08400     Pt( 1.00)
        C              4.00    12.01100     C ( 1.00)
        O              6.00    15.99900     O ( 1.00)

     No symmetry found



   Cartesian axes

     site n.     atom                  positions (alat units)
         1           Pt  tau(   1) = (   0.0000000   0.0000000   1.0017346  )
         2           Pt  tau(   2) = (   0.3333333   0.0000000   1.0017346  )
         3           Pt  tau(   3) = (   0.6666667   0.0000000   1.0017346  )
         4           Pt  tau(   4) = (   0.1666667   0.2886751   1.0017346  )
         5           Pt  tau(   5) = (   0.5000000   0.2886751   1.0017346  )
         6           Pt  tau(   6) = (   0.8333333   0.2886751   1.0017346  )
         7           Pt  tau(   7) = (   0.3333333   0.5773503   1.0017346  )
         8           Pt  tau(   8) = (   0.6666667   0.5773503   1.0017346  )
         9           Pt  tau(   9) = (   1.0000000   0.5773503   1.0017346  )
        10           Pt  tau(  10) = (   0.1666667   0.0962250   1.2739001  )
        11           Pt  tau(  11) = (   0.5000000   0.0962250   1.2739001  )
        12           Pt  tau(  12) = (   0.8333333   0.0962250   1.2739001  )
        13           Pt  tau(  13) = (   0.3333333   0.3849002   1.2739001  )
        14           Pt  tau(  14) = (   0.6666667   0.3849002   1.2739001  )
        15           Pt  tau(  15) = (   1.0000000   0.3849002   1.2739001  )
        16           Pt  tau(  16) = (   0.5000000   0.6735753   1.2739001  )
        17           Pt  tau(  17) = (   0.8333333   0.6735753   1.2739001  )
        18           Pt  tau(  18) = (   1.1666667   0.6735753   1.2739001  )
        19           Pt  tau(  19) = (   0.0008199   0.1935489   1.5448916  )
        20           Pt  tau(  20) = (   0.3332588   0.1923849   1.5446301  )
        21           Pt  tau(  21) = (   0.6660640   0.1935119   1.5446776  )
        22           Pt  tau(  22) = (   0.1660687   0.4798747   1.5448825  )
        23           Pt  tau(  23) = (   0.5006423   0.4800164   1.5446647  )
        24           Pt  tau(  24) = (   0.8333453   0.4810982   1.5426243  )
        25           Pt  tau(  25) = (   0.3333649   0.7697709   1.5398470  )
        26           Pt  tau(  26) = (   0.6680521   0.7698989   1.5448671  )
        27           Pt  tau(  27) = (   0.9986532   0.7698426   1.5448664  )
        28           Pt  tau(  28) = (  -0.0030826  -0.0018410   1.8161428  )
        29           Pt  tau(  29) = (   0.3334645  -0.0071349   1.8291421  )
        30           Pt  tau(  30) = (   0.6699836  -0.0018811   1.8160109  )
        31           Pt  tau(  31) = (   0.1606637   0.2922441   1.8292240  )
        32           Pt  tau(  32) = (   0.5068039   0.2925543   1.8277209  )
        33           Pt  tau(  33) = (   0.8337788   0.2885752   1.8177485  )
        34           Pt  tau(  34) = (   0.3334134   0.5810643   1.8160484  )
        35           Pt  tau(  35) = (   0.6668262   0.5776647   1.8177249  )
        36           Pt  tau(  36) = (   1.0001828   0.5773559   1.8177925  )
        37           C   tau(  37) = (   0.3343741   0.1929312   1.9621981  )
        38           C   tau(  38) = (   0.3393086   0.1957986   2.1204073  )
        39           O   tau(  39) = (   0.3434127   0.1980906   2.2588696  )

     number of k points=    13  Marzari-Vanderbilt smearing, width (Ry)=  0.0200
                       cart. coord. in units 2pi/alat
        k(    1) = (   0.0000000   0.0000000   0.0000000), wk =   0.0800000
        k(    2) = (   0.0000000   0.2309401   0.0000000), wk =   0.1600000
        k(    3) = (   0.0000000   0.4618802   0.0000000), wk =   0.1600000
        k(    4) = (   0.2000000  -0.1154701   0.0000000), wk =   0.1600000
        k(    5) = (   0.2000000   0.1154701   0.0000000), wk =   0.1600000
        k(    6) = (   0.2000000   0.3464102   0.0000000), wk =   0.1600000
        k(    7) = (   0.2000000  -0.5773503   0.0000000), wk =   0.1600000
        k(    8) = (   0.2000000  -0.3464102   0.0000000), wk =   0.1600000
        k(    9) = (   0.4000000  -0.2309401   0.0000000), wk =   0.1600000
        k(   10) = (   0.4000000  -0.0000000   0.0000000), wk =   0.1600000
        k(   11) = (   0.4000000   0.2309401   0.0000000), wk =   0.1600000
        k(   12) = (   0.4000000  -0.6928203   0.0000000), wk =   0.1600000
        k(   13) = (   0.4000000  -0.4618802   0.0000000), wk =   0.1600000

     Dense  grid:   730739 G-vectors     FFT dimensions: (  80,  80, 270)

     Estimated max dynamical RAM per process >       8.83 GB

     Check: negative core charge=   -0.000002

     Initial potential from superposition of free atoms

     starting charge  373.99381, renormalised to  374.00000

     negative rho (up, down):  1.302E-02 0.000E+00


     %%%%%%%%%%%%%%%%%%%%%%%%%%%%%%%%%%%%%%%%%%%%%%%%%%%%%%%%%%%%%%%%%%%%%%%%
     %                                                                      %
     % You are using vdW-DF, which was implemented by the Thonhauser group. %
     % Please cite the following two papers that made this development      %
     % possible and the two reviews that describe the various versions:     %
     %                                                                      %
     %   T. Thonhauser et al., PRL 115, 136402 (2015).                      %
     %   T. Thonhauser et al., PRB 76, 125112 (2007).                       %
     %   K. Berland et al., Rep. Prog. Phys. 78, 066501 (2015).             %
     %   D.C. Langreth et al., J. Phys.: Condens. Matter 21, 084203 (2009). %
     %                                                                      %
     %                                                                      %
     % If you are calculating the stress with vdW-DF, please also cite:     %
     %                                                                      %
     %   R. Sabatini et al., J. Phys.: Condens. Matter 24, 424209 (2012).   %
     %                                                                      %
     %%%%%%%%%%%%%%%%%%%%%%%%%%%%%%%%%%%%%%%%%%%%%%%%%%%%%%%%%%%%%%%%%%%%%%%%


     Starting wfcs are  336 randomized atomic wfcs
     Checking if some PAW data can be deallocated... 

     total cpu time spent up to now is      321.5 secs

     Self-consistent Calculation

     iteration #  1     ecut=    60.00 Ry     beta= 0.70
     Davidson diagonalization with overlap
     ethr =  1.00E-02,  avg # of iterations =  2.0

     Threshold (ethr) on eigenvalues was too large:
     Diagonalizing with lowered threshold

     Davidson diagonalization with overlap
     ethr =  7.99E-04,  avg # of iterations =  2.8

     negative rho (up, down):  1.860E-02 0.000E+00

     total cpu time spent up to now is     1554.8 secs

     total energy              =  -27834.29034295 Ry
     estimated scf accuracy    <       3.23420371 Ry

     iteration #  2     ecut=    60.00 Ry     beta= 0.70
     Davidson diagonalization with overlap
     ethr =  8.65E-04,  avg # of iterations =  2.0

     negative rho (up, down):  1.780E-02 0.000E+00

     total cpu time spent up to now is     2120.8 secs

     total energy              =  -27834.55478165 Ry
     estimated scf accuracy    <       1.14443293 Ry

     iteration #  3     ecut=    60.00 Ry     beta= 0.70
     Davidson diagonalization with overlap
     ethr =  3.06E-04,  avg # of iterations =  2.0

     negative rho (up, down):  1.644E-02 0.000E+00

     total cpu time spent up to now is     2702.9 secs

     total energy              =  -27834.63340941 Ry
     estimated scf accuracy    <       0.16219250 Ry

     iteration #  4     ecut=    60.00 Ry     beta= 0.70
     Davidson diagonalization with overlap
     c_bands:  2 eigenvalues not converged
     ethr =  4.34E-05,  avg # of iterations = 15.6

     negative rho (up, down):  1.349E-02 0.000E+00

     total cpu time spent up to now is     3700.5 secs

     total energy              =  -27834.69102293 Ry
     estimated scf accuracy    <       0.12670620 Ry

     iteration #  5     ecut=    60.00 Ry     beta= 0.70
     Davidson diagonalization with overlap
     ethr =  3.39E-05,  avg # of iterations =  1.6

     negative rho (up, down):  1.183E-02 0.000E+00

     total cpu time spent up to now is     4228.8 secs

     total energy              =  -27834.69584241 Ry
     estimated scf accuracy    <       0.02694596 Ry

     iteration #  6     ecut=    60.00 Ry     beta= 0.70
     Davidson diagonalization with overlap
     c_bands:  1 eigenvalues not converged
     c_bands:  3 eigenvalues not converged
     c_bands:  1 eigenvalues not converged
     ethr =  7.20E-06,  avg # of iterations = 11.9

     negative rho (up, down):  1.033E-02 0.000E+00

     total cpu time spent up to now is     4909.9 secs

     total energy              =  -27834.69753969 Ry
     estimated scf accuracy    <       0.01539741 Ry

     iteration #  7     ecut=    60.00 Ry     beta= 0.70
     Davidson diagonalization with overlap
     ethr =  4.12E-06,  avg # of iterations =  3.8

     negative rho (up, down):  9.779E-03 0.000E+00

     total cpu time spent up to now is     5494.7 secs

     total energy              =  -27834.69817463 Ry
     estimated scf accuracy    <       0.00158122 Ry

     iteration #  8     ecut=    60.00 Ry     beta= 0.70
     Davidson diagonalization with overlap
     ethr =  4.23E-07,  avg # of iterations =  7.4

     negative rho (up, down):  9.461E-03 0.000E+00

     total cpu time spent up to now is     6453.0 secs

     total energy              =  -27834.69896262 Ry
     estimated scf accuracy    <       0.00068418 Ry

     iteration #  9     ecut=    60.00 Ry     beta= 0.70
     Davidson diagonalization with overlap
     ethr =  1.83E-07,  avg # of iterations =  3.8

     negative rho (up, down):  9.404E-03 0.000E+00

     total cpu time spent up to now is     7118.6 secs

     total energy              =  -27834.69904492 Ry
     estimated scf accuracy    <       0.00034742 Ry

     iteration # 10     ecut=    60.00 Ry     beta= 0.70
     Davidson diagonalization with overlap
     ethr =  9.29E-08,  avg # of iterations =  2.2

     negative rho (up, down):  9.575E-03 0.000E+00

     total cpu time spent up to now is     7705.2 secs

     total energy              =  -27834.69907405 Ry
     estimated scf accuracy    <       0.00019331 Ry

     iteration # 11     ecut=    60.00 Ry     beta= 0.70
     Davidson diagonalization with overlap
     ethr =  5.17E-08,  avg # of iterations =  2.0

     negative rho (up, down):  1.004E-02 0.000E+00

     total cpu time spent up to now is     8276.5 secs

     total energy              =  -27834.69908114 Ry
     estimated scf accuracy    <       0.00013507 Ry

     iteration # 12     ecut=    60.00 Ry     beta= 0.70
     Davidson diagonalization with overlap
     ethr =  3.61E-08,  avg # of iterations =  2.0

     negative rho (up, down):  1.115E-02 0.000E+00

     total cpu time spent up to now is     8832.4 secs

     total energy              =  -27834.69907703 Ry
     estimated scf accuracy    <       0.00005433 Ry

     iteration # 13     ecut=    60.00 Ry     beta= 0.70
     Davidson diagonalization with overlap
     ethr =  1.45E-08,  avg # of iterations =  3.5

     negative rho (up, down):  1.182E-02 0.000E+00

     total cpu time spent up to now is     9489.1 secs

     total energy              =  -27834.69908159 Ry
     estimated scf accuracy    <       0.00003316 Ry

     iteration # 14     ecut=    60.00 Ry     beta= 0.70
     Davidson diagonalization with overlap
     ethr =  8.87E-09,  avg # of iterations =  2.0

     negative rho (up, down):  1.248E-02 0.000E+00

     total cpu time spent up to now is    10060.8 secs

     total energy              =  -27834.69908182 Ry
     estimated scf accuracy    <       0.00002047 Ry

     iteration # 15     ecut=    60.00 Ry     beta= 0.70
     Davidson diagonalization with overlap
     ethr =  5.47E-09,  avg # of iterations =  2.0

     negative rho (up, down):  1.312E-02 0.000E+00

     total cpu time spent up to now is    10630.4 secs

     total energy              =  -27834.69908122 Ry
     estimated scf accuracy    <       0.00000827 Ry

     iteration # 16     ecut=    60.00 Ry     beta= 0.70
     Davidson diagonalization with overlap
     ethr =  2.21E-09,  avg # of iterations =  4.8

     negative rho (up, down):  1.344E-02 0.000E+00

     total cpu time spent up to now is    11348.2 secs

     total energy              =  -27834.69908198 Ry
     estimated scf accuracy    <       0.00000394 Ry

     iteration # 17     ecut=    60.00 Ry     beta= 0.70
     Davidson diagonalization with overlap
     ethr =  1.05E-09,  avg # of iterations =  2.0

     negative rho (up, down):  1.380E-02 0.000E+00

     total cpu time spent up to now is    11962.8 secs

     total energy              =  -27834.69908144 Ry
     estimated scf accuracy    <       0.00000332 Ry

     iteration # 18     ecut=    60.00 Ry     beta= 0.70
     Davidson diagonalization with overlap
     ethr =  8.89E-10,  avg # of iterations =  1.5

     negative rho (up, down):  1.408E-02 0.000E+00

     total cpu time spent up to now is    12473.7 secs

     End of self-consistent calculation

          k = 0.0000 0.0000 0.0000 ( 91281 PWs)   bands (ev):

   -22.2745 -13.6092  -7.7427  -7.0942  -6.3571  -5.7482  -5.5023  -5.4985
    -4.7829  -4.7749  -4.7567  -4.7549  -4.7363  -4.7347  -4.7335  -4.6163
    -4.3103  -4.3097  -4.1936  -4.1928  -4.1919  -4.1448  -3.9444  -3.9418
    -3.7626  -3.7588  -3.7570  -3.6341  -3.5743  -3.5742  -3.5235  -3.5230
    -3.5215  -3.4369  -3.3825  -3.3823  -3.3237  -3.3228  -3.3189  -3.2719
    -3.2705  -3.2695  -3.2563  -3.2176  -3.2171  -2.8983  -2.8751  -2.8683
    -2.6873  -2.6840  -2.6830  -2.6699  -2.6366  -2.6038  -2.6033  -2.5234
    -2.4945  -2.4899  -2.4169  -2.4169  -2.2764  -2.2750  -1.9182  -1.9166
    -1.8939  -1.8923  -1.8666  -1.8421  -1.7942  -1.7650  -1.7337  -1.6694
    -1.6677  -1.6671  -1.6552  -1.6551  -1.6302  -1.6275  -1.6081  -1.6054
    -1.6044  -1.5931  -1.5550  -1.5545  -1.4903  -1.4896  -1.4580  -1.4230
    -1.4201  -1.4191  -1.2616  -1.2604  -1.2438  -1.2413  -1.2400  -1.2148
    -1.2063  -1.2035  -1.1311  -1.1303  -1.1225  -1.0673  -1.0661  -1.0173
    -1.0122  -0.9737  -0.9737  -0.9690  -0.8633  -0.8477  -0.8459  -0.8126
    -0.7541  -0.7536  -0.6910  -0.3768  -0.3750  -0.3659  -0.3584  -0.3573
    -0.3153  -0.3133  -0.3131  -0.2840  -0.1726  -0.1721  -0.1486  -0.1483
    -0.1170  -0.0563  -0.0550  -0.0420  -0.0189  -0.0187   0.1253   0.1272
     0.1607   0.1699   0.2105   0.2142   0.3869   0.4146   0.4146   0.4166
     0.4190   0.4191   0.4726   0.4738   0.5977   0.6019   0.6487   0.6488
     0.6621   0.6710   0.6713   0.8016   0.8020   0.8395   0.8488   0.8494
     0.8635   0.8673   0.8794   0.8799   0.9004   0.9018   0.9143   0.9460
     0.9464   0.9921   0.9941   0.9987   1.0506   1.0512   1.0842   1.1030
     1.1033   1.1410   1.1421   1.1747   1.2260   1.2262   1.2368   1.2548
     1.2558   1.2699   1.3101   1.3113   1.3133   1.3509   1.3599   1.3776
     1.3776   1.5201   1.5224   1.6254   1.6267   1.6398   1.6715   1.6717
     1.6954   1.7720   1.7727   2.2219   2.4911   2.5509   2.5603   2.5619
     2.8599   2.8678   4.3991   4.8614   4.8640   4.8814   4.9369   4.9476
     5.8189   5.8798   5.8920   6.3817   6.4797   6.5016   6.5030   6.7407

          k = 0.0000 0.2309 0.0000 ( 91354 PWs)   bands (ev):

   -22.2746 -13.6089  -7.7118  -6.9679  -6.3386  -5.6579  -5.4952  -5.4904
    -5.2304  -4.8591  -4.8582  -4.6371  -4.5721  -4.5472  -4.5202  -4.5038
    -4.3550  -4.2829  -4.2458  -4.1261  -4.1233  -4.1066  -3.9150  -3.8605
    -3.8171  -3.7144  -3.6987  -3.6792  -3.6053  -3.5998  -3.5582  -3.5173
    -3.5142  -3.4659  -3.4422  -3.4119  -3.3799  -3.3716  -3.3130  -3.3061
    -3.1877  -3.1540  -3.1032  -3.0989  -3.0716  -2.9455  -2.8929  -2.8588
    -2.7841  -2.7758  -2.7535  -2.7385  -2.6852  -2.5873  -2.5802  -2.5070
    -2.5002  -2.4134  -2.3925  -2.3490  -2.3396  -2.3017  -2.1383  -2.0460
    -2.0454  -1.9944  -1.9770  -1.9458  -1.9060  -1.9038  -1.8701  -1.8161
    -1.8147  -1.7876  -1.7356  -1.7217  -1.6811  -1.6652  -1.6468  -1.5705
    -1.5532  -1.5422  -1.4980  -1.4971  -1.4741  -1.4475  -1.4297  -1.3987
    -1.3952  -1.3528  -1.2968  -1.2890  -1.2750  -1.2689  -1.2509  -1.2351
    -1.2008  -1.1638  -1.1266  -1.1150  -1.1058  -1.0955  -1.0789  -1.0508
    -1.0416  -1.0145  -1.0081  -0.9588  -0.9387  -0.9377  -0.8624  -0.8276
    -0.7960  -0.7552  -0.7454  -0.7282  -0.7244  -0.6806  -0.6468  -0.4864
    -0.4027  -0.3731  -0.3648  -0.3036  -0.3002  -0.2944  -0.2753  -0.2398
    -0.1397  -0.1304  -0.0662  -0.0648   0.0102   0.0268   0.0776   0.0934
     0.1104   0.1299   0.1864   0.1970   0.2486   0.3012   0.3027   0.3153
     0.3276   0.4225   0.4600   0.4742   0.4854   0.5170   0.5343   0.5647
     0.6028   0.6406   0.6786   0.6831   0.7088   0.7596   0.7617   0.8042
     0.8341   0.8902   0.8984   0.9109   0.9268   0.9631   0.9975   1.0253
     1.0544   1.1021   1.1232   1.1386   1.1808   1.1972   1.2077   1.2543
     1.2620   1.2920   1.3106   1.3153   1.3420   1.3599   1.3941   1.3986
     1.4762   1.4805   1.5342   1.5551   1.5686   1.5983   1.6182   1.6351
     1.6435   1.6678   1.6793   1.7634   1.7891   1.8079   1.8292   1.8810
     1.9778   1.9939   2.0415   2.2263   2.3764   2.5959   3.0168   3.1581
     3.2341   3.2850   4.1329   4.4545   4.6602   5.1094   5.2665   5.2744
     5.4184   5.6106   5.7814   5.9921   6.1001   6.3724   6.4774   6.5766

          k = 0.0000 0.4619 0.0000 ( 91380 PWs)   bands (ev):

   -22.2746 -13.6085  -7.6648  -6.5929  -6.3112  -5.9576  -5.5123  -5.4825
    -5.2399  -4.8940  -4.8918  -4.7497  -4.5316  -4.3774  -4.2598  -4.2258
    -4.2085  -4.1687  -4.1107  -4.0580  -3.9564  -3.9526  -3.9393  -3.8518
    -3.8121  -3.8045  -3.7602  -3.7588  -3.7355  -3.6888  -3.6387  -3.6287
    -3.5920  -3.5640  -3.3620  -3.3421  -3.3317  -3.3277  -3.2460  -3.2006
    -3.1239  -3.1144  -3.0649  -3.0617  -3.0113  -2.9787  -2.8789  -2.8651
    -2.8080  -2.7748  -2.7215  -2.6994  -2.6554  -2.6300  -2.6153  -2.5880
    -2.5823  -2.5108  -2.4745  -2.4010  -2.3846  -2.3410  -2.2844  -2.2328
    -2.2129  -2.1753  -2.1691  -2.1046  -2.0148  -1.9936  -1.9530  -1.9525
    -1.8864  -1.8386  -1.8339  -1.8257  -1.7627  -1.7172  -1.6852  -1.6824
    -1.6236  -1.6060  -1.5769  -1.5507  -1.5224  -1.5146  -1.4726  -1.4670
    -1.4509  -1.4472  -1.4117  -1.3968  -1.3675  -1.3567  -1.3121  -1.2977
    -1.2858  -1.2757  -1.2410  -1.2354  -1.1515  -1.0969  -1.0843  -1.0613
    -1.0289  -1.0207  -1.0022  -0.9387  -0.9028  -0.8581  -0.8461  -0.8263
    -0.7786  -0.7509  -0.7388  -0.7217  -0.6658  -0.5640  -0.5408  -0.5069
    -0.4781  -0.4570  -0.4181  -0.3856  -0.3808  -0.3351  -0.3184  -0.2964
    -0.2778  -0.2756  -0.2590  -0.2150  -0.1883  -0.1794  -0.1720  -0.0872
    -0.0284  -0.0106  -0.0071   0.0864   0.0940   0.1893   0.2240   0.2723
     0.2983   0.3556   0.3753   0.4521   0.4840   0.4879   0.5070   0.5477
     0.5766   0.6106   0.6213   0.6701   0.6901   0.7256   0.7785   0.8010
     0.8150   0.8313   0.8367   0.8751   0.9525   0.9838   0.9952   1.0850
     1.1078   1.1299   1.1809   1.2131   1.2311   1.2376   1.3033   1.3296
     1.3353   1.3773   1.4194   1.4238   1.5046   1.5201   1.5522   1.5567
     1.5626   1.5821   1.6153   1.6425   1.7503   1.7527   1.8000   1.8365
     1.8388   1.8902   1.9186   2.0012   2.0646   2.2290   2.4340   2.5903
     2.7344   2.8528   2.8856   3.1083   3.2648   3.4212   3.5764   3.8206
     4.0932   4.1052   4.2165   4.2628   4.3383   4.4531   4.5716   4.6480
     4.7092   5.2787   5.3969   5.6174   5.8288   5.9937   6.1384   6.4297

          k = 0.2000-0.1155 0.0000 ( 91354 PWs)   bands (ev):

   -22.2746 -13.6089  -7.7118  -6.9679  -6.3386  -5.6579  -5.4952  -5.4904
    -5.2303  -4.8592  -4.8583  -4.6371  -4.5721  -4.5470  -4.5203  -4.5038
    -4.3550  -4.2830  -4.2458  -4.1261  -4.1232  -4.1065  -3.9150  -3.8605
    -3.8171  -3.7143  -3.6987  -3.6793  -3.6053  -3.5998  -3.5582  -3.5172
    -3.5141  -3.4659  -3.4422  -3.4120  -3.3799  -3.3714  -3.3130  -3.3061
    -3.1878  -3.1541  -3.1032  -3.0990  -3.0715  -2.9453  -2.8931  -2.8589
    -2.7841  -2.7758  -2.7535  -2.7384  -2.6853  -2.5874  -2.5802  -2.5070
    -2.5001  -2.4133  -2.3927  -2.3490  -2.3395  -2.3017  -2.1385  -2.0460
    -2.0454  -1.9946  -1.9772  -1.9459  -1.9060  -1.9038  -1.8699  -1.8161
    -1.8147  -1.7877  -1.7356  -1.7218  -1.6812  -1.6653  -1.6468  -1.5702
    -1.5526  -1.5421  -1.4981  -1.4973  -1.4740  -1.4475  -1.4298  -1.3986
    -1.3954  -1.3524  -1.2970  -1.2890  -1.2751  -1.2689  -1.2509  -1.2352
    -1.2008  -1.1638  -1.1268  -1.1148  -1.1059  -1.0953  -1.0789  -1.0508
    -1.0414  -1.0144  -1.0081  -0.9587  -0.9387  -0.9377  -0.8624  -0.8274
    -0.7960  -0.7552  -0.7454  -0.7282  -0.7244  -0.6807  -0.6468  -0.4866
    -0.4029  -0.3731  -0.3648  -0.3035  -0.3001  -0.2943  -0.2753  -0.2399
    -0.1398  -0.1303  -0.0661  -0.0647   0.0103   0.0268   0.0774   0.0937
     0.1103   0.1299   0.1865   0.1970   0.2486   0.3013   0.3027   0.3153
     0.3276   0.4225   0.4601   0.4742   0.4855   0.5170   0.5343   0.5647
     0.6028   0.6405   0.6785   0.6830   0.7087   0.7595   0.7617   0.8041
     0.8342   0.8901   0.8983   0.9109   0.9268   0.9631   0.9976   1.0253
     1.0544   1.1020   1.1234   1.1387   1.1808   1.1971   1.2077   1.2543
     1.2620   1.2920   1.3106   1.3154   1.3420   1.3598   1.3942   1.3987
     1.4762   1.4805   1.5342   1.5551   1.5687   1.5982   1.6182   1.6349
     1.6435   1.6678   1.6792   1.7635   1.7891   1.8078   1.8292   1.8809
     1.9778   1.9938   2.0415   2.2265   2.3762   2.5958   3.0168   3.1582
     3.2342   3.2850   4.1331   4.4545   4.6600   5.1093   5.2665   5.2745
     5.4183   5.6108   5.7814   5.9922   6.1001   6.3718   6.4776   6.5767

          k = 0.2000 0.1155 0.0000 ( 91354 PWs)   bands (ev):

   -22.2746 -13.6089  -7.7119  -6.9679  -6.3387  -5.6588  -5.4933  -5.4912
    -5.2299  -4.8592  -4.8584  -4.6371  -4.5719  -4.5472  -4.5202  -4.5043
    -4.3543  -4.2826  -4.2451  -4.1257  -4.1238  -4.1079  -3.9115  -3.8624
    -3.8170  -3.7155  -3.6989  -3.6783  -3.6053  -3.5990  -3.5583  -3.5175
    -3.5147  -3.4653  -3.4424  -3.4119  -3.3801  -3.3727  -3.3125  -3.3064
    -3.1872  -3.1534  -3.1037  -3.0988  -3.0713  -2.9483  -2.8889  -2.8614
    -2.7849  -2.7766  -2.7534  -2.7387  -2.6859  -2.5865  -2.5806  -2.5062
    -2.5018  -2.4133  -2.3903  -2.3471  -2.3409  -2.3031  -2.1380  -2.0463
    -2.0449  -1.9942  -1.9764  -1.9455  -1.9059  -1.9050  -1.8698  -1.8156
    -1.8156  -1.7869  -1.7363  -1.7206  -1.6815  -1.6646  -1.6458  -1.5705
    -1.5545  -1.5423  -1.4975  -1.4952  -1.4748  -1.4466  -1.4291  -1.3993
    -1.3958  -1.3548  -1.2952  -1.2896  -1.2740  -1.2707  -1.2499  -1.2339
    -1.2013  -1.1640  -1.1263  -1.1169  -1.1058  -1.0948  -1.0796  -1.0506
    -1.0423  -1.0146  -1.0081  -0.9595  -0.9398  -0.9381  -0.8617  -0.8288
    -0.7960  -0.7558  -0.7453  -0.7283  -0.7245  -0.6806  -0.6449  -0.4853
    -0.4029  -0.3724  -0.3648  -0.3040  -0.3002  -0.2944  -0.2749  -0.2390
    -0.1401  -0.1304  -0.0662  -0.0642   0.0103   0.0266   0.0779   0.0930
     0.1104   0.1296   0.1865   0.1957   0.2491   0.3025   0.3028   0.3167
     0.3276   0.4218   0.4591   0.4751   0.4846   0.5168   0.5352   0.5633
     0.6023   0.6402   0.6787   0.6831   0.7097   0.7599   0.7618   0.8042
     0.8344   0.8912   0.8984   0.9117   0.9275   0.9639   0.9957   1.0256
     1.0537   1.1031   1.1233   1.1373   1.1802   1.1975   1.2078   1.2539
     1.2615   1.2919   1.3102   1.3152   1.3427   1.3597   1.3941   1.3982
     1.4764   1.4782   1.5345   1.5550   1.5683   1.5989   1.6185   1.6355
     1.6432   1.6676   1.6797   1.7621   1.7895   1.8078   1.8296   1.8816
     1.9772   1.9939   2.0436   2.2252   2.3776   2.5927   3.0217   3.1575
     3.2306   3.2855   4.1343   4.4556   4.6561   5.1109   5.2711   5.2721
     5.4132   5.6134   5.7872   5.9861   6.1003   6.3746   6.4768   6.5797

          k = 0.2000 0.3464 0.0000 ( 91286 PWs)   bands (ev):

   -22.2745 -13.6085  -7.6739  -6.7144  -6.3143  -5.6379  -5.5656  -5.4236
    -5.3970  -5.3277  -4.5088  -4.4597  -4.4410  -4.4268  -4.3880  -4.3657
    -4.3512  -4.2781  -4.2401  -4.1866  -3.9942  -3.8957  -3.8519  -3.8485
    -3.8312  -3.7873  -3.7636  -3.6913  -3.6362  -3.6320  -3.6058  -3.5211
    -3.5066  -3.4982  -3.4640  -3.4275  -3.3796  -3.3721  -3.3501  -3.2952
    -3.2231  -3.1927  -3.0487  -3.0051  -2.9507  -2.8929  -2.8776  -2.8380
    -2.8027  -2.7847  -2.7510  -2.7162  -2.6851  -2.6483  -2.5807  -2.5511
    -2.5183  -2.4390  -2.3891  -2.3780  -2.3549  -2.3440  -2.2824  -2.2626
    -2.1306  -2.1229  -2.1038  -2.0412  -2.0121  -1.9958  -1.9720  -1.9524
    -1.9010  -1.8690  -1.7808  -1.7737  -1.7377  -1.7336  -1.7121  -1.6905
    -1.6191  -1.5790  -1.5713  -1.5441  -1.4948  -1.4606  -1.4431  -1.4351
    -1.4129  -1.3912  -1.3742  -1.3569  -1.3361  -1.3270  -1.3087  -1.2701
    -1.2539  -1.1913  -1.1679  -1.1498  -1.1204  -1.1138  -1.0984  -1.0789
    -1.0360  -1.0240  -1.0095  -0.9979  -0.9848  -0.9570  -0.9363  -0.9119
    -0.8617  -0.8147  -0.8069  -0.7481  -0.7120  -0.6746  -0.6281  -0.5571
    -0.4985  -0.4661  -0.4406  -0.3622  -0.3307  -0.3203  -0.2927  -0.2711
    -0.2533  -0.2393  -0.1855  -0.1624  -0.1430  -0.1030  -0.0366   0.0045
     0.0527   0.0744   0.0791   0.1154   0.1718   0.2338   0.2604   0.2848
     0.3089   0.3638   0.3830   0.4114   0.4418   0.4574   0.5166   0.5371
     0.5464   0.5966   0.6101   0.6372   0.6634   0.6806   0.6893   0.7247
     0.7720   0.7929   0.8391   0.9230   0.9414   0.9959   1.0928   1.1169
     1.1822   1.1968   1.2502   1.2772   1.2942   1.3174   1.3451   1.3564
     1.3933   1.4135   1.4274   1.4431   1.4680   1.4878   1.5076   1.5346
     1.5549   1.5807   1.6120   1.6412   1.6564   1.7008   1.7881   1.8405
     1.8551   1.8638   1.8991   1.9674   2.0057   2.0376   2.0903   2.2606
     2.5200   2.5780   2.6440   2.9661   3.1510   3.1946   3.3094   3.6820
     3.9123   3.9519   4.0498   4.1086   4.1754   4.6917   5.1036   5.2355
     5.3423   5.4486   5.6650   5.8703   6.0003   6.0720   6.1026   6.1743

          k = 0.2000-0.5774 0.0000 ( 91304 PWs)   bands (ev):

   -22.2745 -13.6083  -7.6518  -6.3624  -6.2332  -6.1083  -5.6320  -5.4863
    -5.4302  -4.9813  -4.8687  -4.4711  -4.4257  -4.2904  -4.2712  -4.1763
    -4.1544  -4.0622  -4.0512  -4.0239  -3.9291  -3.9191  -3.9097  -3.8945
    -3.8627  -3.8382  -3.8062  -3.7489  -3.7150  -3.7010  -3.6835  -3.6609
    -3.5735  -3.5455  -3.4509  -3.4110  -3.3855  -3.3151  -3.2851  -3.2574
    -3.2380  -3.1130  -3.0892  -3.0629  -2.9868  -2.9469  -2.8751  -2.8544
    -2.8324  -2.7841  -2.7064  -2.6820  -2.6015  -2.5351  -2.5240  -2.4942
    -2.4732  -2.4513  -2.4179  -2.3785  -2.3468  -2.3092  -2.2983  -2.2610
    -2.2293  -2.2163  -2.1945  -2.1821  -2.1156  -2.1037  -2.0324  -1.9953
    -1.9590  -1.9522  -1.8562  -1.8291  -1.8105  -1.7839  -1.7587  -1.7362
    -1.7157  -1.6781  -1.6289  -1.6185  -1.5750  -1.5550  -1.5397  -1.5186
    -1.5019  -1.4074  -1.3990  -1.3924  -1.3827  -1.3626  -1.3121  -1.2334
    -1.2161  -1.1951  -1.1452  -1.1398  -1.1119  -1.1091  -1.0757  -1.0714
    -1.0571  -1.0270  -1.0126  -0.9898  -0.9598  -0.9524  -0.9294  -0.9252
    -0.9025  -0.8682  -0.8431  -0.8340  -0.6827  -0.6380  -0.5993  -0.5261
    -0.4843  -0.4607  -0.4453  -0.4230  -0.3945  -0.3828  -0.3648  -0.3356
    -0.2887  -0.2519  -0.2246  -0.2183  -0.1705  -0.1450  -0.0796  -0.0579
    -0.0339   0.0091   0.0534   0.1090   0.1879   0.2068   0.2541   0.2792
     0.2963   0.3040   0.3361   0.3694   0.3797   0.4107   0.4277   0.4678
     0.5027   0.5578   0.5775   0.5896   0.6074   0.6433   0.7029   0.7481
     0.7896   0.8638   0.8973   0.9801   1.0071   1.0343   1.0679   1.1273
     1.1684   1.2015   1.2518   1.2686   1.3295   1.3520   1.3737   1.3882
     1.4209   1.4290   1.4630   1.5209   1.5314   1.5465   1.5793   1.5900
     1.6120   1.6176   1.6932   1.7230   1.7547   1.8105   1.8330   1.8493
     1.8674   1.8952   1.9311   2.0400   2.0830   2.2258   2.7444   2.9929
     3.0173   3.2290   3.2349   3.3259   3.3758   3.4110   3.7430   3.9023
     4.0006   4.1303   4.4496   4.4713   4.5162   4.5753   4.7593   4.8897
     4.9615   5.0073   5.1941   5.3341   5.3662   5.8406   5.9781   6.0301

          k = 0.2000-0.3464 0.0000 ( 91286 PWs)   bands (ev):

   -22.2745 -13.6085  -7.6737  -6.7143  -6.3141  -5.6362  -5.5672  -5.4250
    -5.3974  -5.3267  -4.5091  -4.4601  -4.4410  -4.4268  -4.3897  -4.3656
    -4.3495  -4.2777  -4.2404  -4.1874  -3.9938  -3.8951  -3.8526  -3.8489
    -3.8318  -3.7866  -3.7641  -3.6921  -3.6360  -3.6312  -3.6058  -3.5209
    -3.5069  -3.4979  -3.4659  -3.4264  -3.3786  -3.3723  -3.3511  -3.2956
    -3.2225  -3.1936  -3.0450  -3.0025  -2.9517  -2.8938  -2.8795  -2.8368
    -2.8017  -2.7837  -2.7504  -2.7157  -2.6851  -2.6454  -2.5829  -2.5497
    -2.5217  -2.4381  -2.3893  -2.3785  -2.3552  -2.3451  -2.2844  -2.2625
    -2.1303  -2.1232  -2.1039  -2.0426  -2.0128  -1.9961  -1.9716  -1.9518
    -1.8997  -1.8688  -1.7798  -1.7741  -1.7382  -1.7340  -1.7140  -1.6892
    -1.6182  -1.5794  -1.5706  -1.5439  -1.4955  -1.4619  -1.4428  -1.4342
    -1.4126  -1.3915  -1.3751  -1.3571  -1.3358  -1.3249  -1.3062  -1.2732
    -1.2556  -1.1895  -1.1694  -1.1504  -1.1200  -1.1138  -1.0982  -1.0773
    -1.0341  -1.0246  -1.0088  -0.9984  -0.9853  -0.9559  -0.9360  -0.9126
    -0.8618  -0.8149  -0.8077  -0.7471  -0.7102  -0.6754  -0.6298  -0.5551
    -0.4984  -0.4671  -0.4408  -0.3620  -0.3321  -0.3200  -0.2928  -0.2710
    -0.2544  -0.2397  -0.1846  -0.1626  -0.1435  -0.1033  -0.0370   0.0051
     0.0520   0.0749   0.0788   0.1153   0.1718   0.2341   0.2619   0.2846
     0.3083   0.3640   0.3826   0.4112   0.4410   0.4585   0.5160   0.5390
     0.5471   0.5968   0.6078   0.6368   0.6627   0.6804   0.6897   0.7251
     0.7726   0.7916   0.8379   0.9255   0.9389   0.9963   1.0919   1.1186
     1.1819   1.1977   1.2498   1.2773   1.2945   1.3175   1.3454   1.3560
     1.3930   1.4134   1.4272   1.4437   1.4678   1.4877   1.5071   1.5352
     1.5556   1.5821   1.6119   1.6407   1.6562   1.7009   1.7905   1.8391
     1.8528   1.8638   1.8984   1.9677   2.0092   2.0369   2.0903   2.2592
     2.5167   2.5786   2.6457   2.9667   3.1515   3.1953   3.3101   3.6814
     3.9142   3.9499   4.0490   4.1073   4.1781   4.6902   5.1061   5.2361
     5.3441   5.4459   5.6594   5.8683   6.0014   6.0620   6.1038   6.1865

          k = 0.4000-0.2309 0.0000 ( 91380 PWs)   bands (ev):

   -22.2746 -13.6085  -7.6648  -6.5929  -6.3111  -5.9576  -5.5123  -5.4826
    -5.2398  -4.8941  -4.8918  -4.7497  -4.5315  -4.3774  -4.2598  -4.2258
    -4.2085  -4.1688  -4.1108  -4.0578  -3.9564  -3.9526  -3.9392  -3.8517
    -3.8120  -3.8046  -3.7602  -3.7587  -3.7354  -3.6887  -3.6387  -3.6287
    -3.5921  -3.5641  -3.3620  -3.3422  -3.3316  -3.3277  -3.2461  -3.2006
    -3.1240  -3.1144  -3.0650  -3.0618  -3.0113  -2.9787  -2.8790  -2.8651
    -2.8080  -2.7748  -2.7216  -2.6994  -2.6553  -2.6299  -2.6155  -2.5879
    -2.5823  -2.5108  -2.4745  -2.4010  -2.3847  -2.3411  -2.2844  -2.2329
    -2.2131  -2.1756  -2.1691  -2.1047  -2.0148  -1.9936  -1.9529  -1.9524
    -1.8864  -1.8388  -1.8338  -1.8256  -1.7627  -1.7167  -1.6848  -1.6823
    -1.6237  -1.6060  -1.5768  -1.5507  -1.5224  -1.5147  -1.4727  -1.4671
    -1.4510  -1.4472  -1.4117  -1.3965  -1.3675  -1.3567  -1.3122  -1.2977
    -1.2861  -1.2757  -1.2408  -1.2354  -1.1518  -1.0967  -1.0843  -1.0610
    -1.0288  -1.0206  -1.0021  -0.9386  -0.9027  -0.8580  -0.8461  -0.8264
    -0.7787  -0.7508  -0.7388  -0.7216  -0.6659  -0.5641  -0.5410  -0.5068
    -0.4781  -0.4571  -0.4181  -0.3856  -0.3810  -0.3351  -0.3185  -0.2962
    -0.2778  -0.2755  -0.2589  -0.2149  -0.1881  -0.1796  -0.1720  -0.0872
    -0.0283  -0.0104  -0.0071   0.0865   0.0940   0.1894   0.2240   0.2722
     0.2983   0.3554   0.3753   0.4521   0.4840   0.4879   0.5070   0.5477
     0.5765   0.6105   0.6213   0.6700   0.6901   0.7255   0.7783   0.8010
     0.8150   0.8313   0.8369   0.8751   0.9525   0.9838   0.9953   1.0850
     1.1078   1.1299   1.1810   1.2131   1.2311   1.2375   1.3034   1.3297
     1.3353   1.3773   1.4195   1.4239   1.5047   1.5200   1.5521   1.5568
     1.5623   1.5821   1.6150   1.6423   1.7505   1.7527   1.7998   1.8364
     1.8388   1.8902   1.9184   2.0011   2.0646   2.2290   2.4339   2.5902
     2.7345   2.8528   2.8856   3.1083   3.2648   3.4212   3.5763   3.8206
     4.0932   4.1052   4.2164   4.2630   4.3384   4.4530   4.5714   4.6480
     4.7092   5.2785   5.3971   5.6175   5.8289   5.9938   6.1380   6.4300

          k = 0.4000-0.0000 0.0000 ( 91286 PWs)   bands (ev):

   -22.2745 -13.6085  -7.6739  -6.7144  -6.3143  -5.6378  -5.5657  -5.4236
    -5.3970  -5.3277  -4.5088  -4.4598  -4.4409  -4.4267  -4.3883  -4.3656
    -4.3512  -4.2781  -4.2402  -4.1866  -3.9941  -3.8956  -3.8519  -3.8485
    -3.8312  -3.7872  -3.7636  -3.6912  -3.6363  -3.6319  -3.6060  -3.5212
    -3.5066  -3.4983  -3.4643  -3.4273  -3.3796  -3.3721  -3.3501  -3.2954
    -3.2229  -3.1927  -3.0486  -3.0052  -2.9507  -2.8930  -2.8777  -2.8380
    -2.8027  -2.7847  -2.7510  -2.7163  -2.6851  -2.6483  -2.5808  -2.5510
    -2.5184  -2.4390  -2.3891  -2.3779  -2.3549  -2.3441  -2.2824  -2.2626
    -2.1307  -2.1231  -2.1039  -2.0414  -2.0121  -1.9958  -1.9720  -1.9525
    -1.9010  -1.8691  -1.7807  -1.7736  -1.7378  -1.7335  -1.7121  -1.6904
    -1.6191  -1.5790  -1.5711  -1.5441  -1.4948  -1.4608  -1.4431  -1.4350
    -1.4129  -1.3911  -1.3743  -1.3568  -1.3360  -1.3268  -1.3084  -1.2702
    -1.2540  -1.1912  -1.1680  -1.1497  -1.1204  -1.1138  -1.0985  -1.0789
    -1.0360  -1.0241  -1.0095  -0.9979  -0.9848  -0.9569  -0.9363  -0.9120
    -0.8617  -0.8147  -0.8069  -0.7480  -0.7119  -0.6745  -0.6281  -0.5570
    -0.4985  -0.4661  -0.4405  -0.3622  -0.3307  -0.3203  -0.2926  -0.2710
    -0.2534  -0.2394  -0.1854  -0.1624  -0.1431  -0.1031  -0.0369   0.0046
     0.0527   0.0744   0.0793   0.1154   0.1718   0.2339   0.2605   0.2848
     0.3088   0.3638   0.3830   0.4114   0.4418   0.4575   0.5166   0.5372
     0.5465   0.5966   0.6099   0.6370   0.6632   0.6805   0.6893   0.7246
     0.7721   0.7928   0.8390   0.9230   0.9414   0.9960   1.0927   1.1170
     1.1823   1.1968   1.2502   1.2772   1.2943   1.3174   1.3450   1.3565
     1.3933   1.4135   1.4274   1.4433   1.4680   1.4879   1.5074   1.5346
     1.5550   1.5808   1.6120   1.6412   1.6564   1.7008   1.7881   1.8402
     1.8550   1.8636   1.8989   1.9674   2.0058   2.0376   2.0903   2.2606
     2.5200   2.5781   2.6441   2.9660   3.1509   3.1944   3.3092   3.6820
     3.9124   3.9519   4.0498   4.1086   4.1754   4.6917   5.1037   5.2355
     5.3420   5.4487   5.6651   5.8705   6.0001   6.0717   6.1024   6.1737

          k = 0.4000 0.2309 0.0000 ( 91380 PWs)   bands (ev):

   -22.2746 -13.6084  -7.6651  -6.5932  -6.3117  -5.9576  -5.5135  -5.4795
    -5.2401  -4.8939  -4.8921  -4.7496  -4.5310  -4.3779  -4.2592  -4.2254
    -4.2081  -4.1692  -4.1099  -4.0590  -3.9570  -3.9517  -3.9387  -3.8500
    -3.8118  -3.8048  -3.7606  -3.7580  -3.7356  -3.6887  -3.6385  -3.6296
    -3.5915  -3.5641  -3.3624  -3.3413  -3.3313  -3.3283  -3.2455  -3.2015
    -3.1232  -3.1165  -3.0646  -3.0619  -3.0175  -2.9790  -2.8785  -2.8691
    -2.8068  -2.7756  -2.7199  -2.6992  -2.6547  -2.6301  -2.6159  -2.5873
    -2.5829  -2.5089  -2.4732  -2.4010  -2.3849  -2.3407  -2.2842  -2.2326
    -2.2124  -2.1751  -2.1685  -2.1053  -2.0150  -1.9930  -1.9541  -1.9520
    -1.8847  -1.8385  -1.8339  -1.8265  -1.7614  -1.7197  -1.6843  -1.6825
    -1.6234  -1.6057  -1.5771  -1.5513  -1.5217  -1.5143  -1.4714  -1.4669
    -1.4508  -1.4470  -1.4107  -1.3990  -1.3693  -1.3574  -1.3094  -1.2973
    -1.2841  -1.2758  -1.2413  -1.2355  -1.1511  -1.0964  -1.0849  -1.0628
    -1.0287  -1.0212  -1.0023  -0.9396  -0.9043  -0.8584  -0.8450  -0.8274
    -0.7785  -0.7515  -0.7397  -0.7217  -0.6632  -0.5623  -0.5416  -0.5074
    -0.4763  -0.4566  -0.4172  -0.3862  -0.3809  -0.3366  -0.3179  -0.2980
    -0.2772  -0.2762  -0.2580  -0.2144  -0.1893  -0.1770  -0.1715  -0.0880
    -0.0294  -0.0117  -0.0074   0.0852   0.0944   0.1903   0.2241   0.2704
     0.2999   0.3558   0.3754   0.4525   0.4830   0.4884   0.5070   0.5474
     0.5763   0.6096   0.6218   0.6703   0.6897   0.7262   0.7804   0.8011
     0.8148   0.8304   0.8362   0.8770   0.9520   0.9843   0.9949   1.0840
     1.1085   1.1312   1.1818   1.2132   1.2310   1.2379   1.3035   1.3284
     1.3356   1.3765   1.4194   1.4231   1.5039   1.5206   1.5531   1.5565
     1.5638   1.5819   1.6162   1.6425   1.7498   1.7501   1.8007   1.8364
     1.8390   1.8890   1.9222   2.0011   2.0646   2.2258   2.4352   2.5844
     2.7351   2.8529   2.8863   3.1091   3.2664   3.4241   3.5737   3.8200
     4.0937   4.1063   4.2155   4.2617   4.3348   4.4551   4.5676   4.6519
     4.7108   5.2805   5.3942   5.6223   5.8195   6.0051   6.1310   6.4326

          k = 0.4000-0.6928 0.0000 ( 91304 PWs)   bands (ev):

   -22.2745 -13.6083  -7.6519  -6.3627  -6.2344  -6.1070  -5.6314  -5.4873
    -5.4292  -4.9817  -4.8681  -4.4716  -4.4245  -4.2907  -4.2711  -4.1765
    -4.1548  -4.0612  -4.0508  -4.0242  -3.9294  -3.9189  -3.9110  -3.8936
    -3.8635  -3.8368  -3.8061  -3.7483  -3.7157  -3.7003  -3.6824  -3.6600
    -3.5741  -3.5466  -3.4506  -3.4095  -3.3867  -3.3158  -3.2846  -3.2583
    -3.2375  -3.1127  -3.0924  -3.0635  -2.9884  -2.9461  -2.8748  -2.8566
    -2.8324  -2.7848  -2.7055  -2.6817  -2.6014  -2.5363  -2.5245  -2.4926
    -2.4711  -2.4505  -2.4177  -2.3783  -2.3478  -2.3092  -2.2988  -2.2608
    -2.2296  -2.2169  -2.1948  -2.1811  -2.1140  -2.1047  -2.0323  -1.9945
    -1.9610  -1.9491  -1.8536  -1.8288  -1.8114  -1.7859  -1.7585  -1.7380
    -1.7165  -1.6783  -1.6295  -1.6196  -1.5762  -1.5548  -1.5399  -1.5163
    -1.4995  -1.4089  -1.3993  -1.3921  -1.3816  -1.3604  -1.3098  -1.2363
    -1.2178  -1.1944  -1.1448  -1.1396  -1.1122  -1.1085  -1.0754  -1.0713
    -1.0574  -1.0270  -1.0129  -0.9891  -0.9606  -0.9531  -0.9287  -0.9253
    -0.9026  -0.8685  -0.8424  -0.8360  -0.6825  -0.6397  -0.5993  -0.5252
    -0.4834  -0.4611  -0.4456  -0.4228  -0.3950  -0.3822  -0.3636  -0.3358
    -0.2896  -0.2523  -0.2241  -0.2180  -0.1699  -0.1446  -0.0781  -0.0583
    -0.0343   0.0068   0.0549   0.1082   0.1868   0.2077   0.2545   0.2783
     0.2953   0.3038   0.3372   0.3691   0.3795   0.4120   0.4273   0.4684
     0.5033   0.5577   0.5781   0.5895   0.6081   0.6418   0.7009   0.7473
     0.7912   0.8639   0.8976   0.9825   1.0077   1.0343   1.0687   1.1260
     1.1690   1.2019   1.2510   1.2686   1.3289   1.3522   1.3734   1.3875
     1.4203   1.4291   1.4635   1.5221   1.5323   1.5453   1.5784   1.5905
     1.6122   1.6182   1.6931   1.7224   1.7541   1.8095   1.8335   1.8495
     1.8680   1.8952   1.9319   2.0385   2.0854   2.2231   2.7441   2.9926
     3.0179   3.2327   3.2343   3.3242   3.3751   3.4094   3.7411   3.9033
     4.0019   4.1305   4.4540   4.4668   4.5149   4.5774   4.7598   4.8896
     4.9608   5.0061   5.1890   5.3383   5.3701   5.8415   5.9820   6.0305

          k = 0.4000-0.4619 0.0000 ( 91304 PWs)   bands (ev):

   -22.2745 -13.6083  -7.6518  -6.3624  -6.2330  -6.1085  -5.6320  -5.4863
    -5.4302  -4.9813  -4.8688  -4.4710  -4.4256  -4.2904  -4.2712  -4.1764
    -4.1544  -4.0622  -4.0511  -4.0238  -3.9291  -3.9191  -3.9095  -3.8947
    -3.8627  -3.8382  -3.8063  -3.7487  -3.7150  -3.7010  -3.6835  -3.6609
    -3.5734  -3.5455  -3.4509  -3.4111  -3.3855  -3.3151  -3.2852  -3.2574
    -3.2381  -3.1131  -3.0893  -3.0629  -2.9868  -2.9470  -2.8750  -2.8543
    -2.8325  -2.7841  -2.7065  -2.6820  -2.6014  -2.5349  -2.5239  -2.4942
    -2.4732  -2.4513  -2.4182  -2.3786  -2.3468  -2.3093  -2.2983  -2.2611
    -2.2293  -2.2163  -2.1946  -2.1822  -2.1157  -2.1037  -2.0323  -1.9953
    -1.9588  -1.9524  -1.8563  -1.8293  -1.8104  -1.7836  -1.7586  -1.7360
    -1.7153  -1.6781  -1.6290  -1.6186  -1.5748  -1.5550  -1.5397  -1.5189
    -1.5019  -1.4072  -1.3990  -1.3925  -1.3827  -1.3628  -1.3123  -1.2331
    -1.2160  -1.1952  -1.1452  -1.1399  -1.1117  -1.1090  -1.0755  -1.0713
    -1.0570  -1.0271  -1.0126  -0.9902  -0.9597  -0.9524  -0.9295  -0.9253
    -0.9024  -0.8683  -0.8431  -0.8340  -0.6825  -0.6378  -0.5995  -0.5261
    -0.4843  -0.4607  -0.4453  -0.4230  -0.3944  -0.3829  -0.3648  -0.3356
    -0.2887  -0.2519  -0.2246  -0.2183  -0.1706  -0.1449  -0.0797  -0.0578
    -0.0338   0.0092   0.0533   0.1091   0.1878   0.2067   0.2541   0.2792
     0.2963   0.3040   0.3360   0.3694   0.3796   0.4106   0.4277   0.4678
     0.5026   0.5578   0.5775   0.5896   0.6074   0.6434   0.7029   0.7483
     0.7897   0.8638   0.8973   0.9802   1.0071   1.0343   1.0679   1.1273
     1.1684   1.2015   1.2518   1.2686   1.3296   1.3521   1.3738   1.3882
     1.4210   1.4290   1.4630   1.5208   1.5314   1.5466   1.5793   1.5900
     1.6121   1.6176   1.6932   1.7231   1.7547   1.8105   1.8329   1.8492
     1.8673   1.8951   1.9310   2.0400   2.0830   2.2258   2.7444   2.9930
     3.0173   3.2289   3.2350   3.3260   3.3758   3.4111   3.7430   3.9023
     4.0006   4.1302   4.4496   4.4714   4.5162   4.5753   4.7588   4.8897
     4.9614   5.0076   5.1941   5.3341   5.3663   5.8405   5.9782   6.0303

     the Fermi energy is     1.6236 ev

!    total energy              =  -27834.69908033 Ry

     total all-electron energy =  -1326945.839591 Ry
     estimated scf accuracy    <       0.00000090 Ry
     smearing contrib. (-TS)   =       0.00103909 Ry
     internal energy E=F+TS    =  -27834.70011942 Ry

     The total energy is F=E-TS. E is the sum of the following terms:
     one-electron contribution =  -28374.36306506 Ry
     hartree contribution      =   14487.10001893 Ry
     xc contribution           =    -907.19564724 Ry
     ewald contribution        =   12457.00133153 Ry
     one-center paw contrib.   =  -25497.24275758 Ry

     convergence has been achieved in  18 iterations

     negative rho (up, down):  1.408E-02 0.000E+00

     Forces acting on atoms (cartesian axes, Ry/au):

     atom    1 type  1   force =     0.00104020    0.00061033   -0.00475923
     atom    2 type  1   force =    -0.00000482   -0.00009108   -0.00393425
     atom    3 type  1   force =    -0.00108081    0.00057027   -0.00474295
     atom    4 type  1   force =    -0.00008229    0.00003584   -0.00393631
     atom    5 type  1   force =     0.00004827    0.00002564   -0.00394273
     atom    6 type  1   force =    -0.00000948   -0.00007823   -0.00321500
     atom    7 type  1   force =    -0.00005346   -0.00121209   -0.00475308
     atom    8 type  1   force =    -0.00007082    0.00004339   -0.00321601
     atom    9 type  1   force =     0.00006517    0.00005291   -0.00323631
     atom   10 type  1   force =    -0.00133411   -0.00078790    0.00540118
     atom   11 type  1   force =     0.00126087   -0.00082521    0.00530986
     atom   12 type  1   force =     0.00006118    0.00007093    0.00025425
     atom   13 type  1   force =    -0.00007175    0.00147550    0.00528412
     atom   14 type  1   force =    -0.00118351   -0.00071279    0.00575734
     atom   15 type  1   force =     0.00121697   -0.00072216    0.00602396
     atom   16 type  1   force =     0.00010328    0.00000758    0.00022429
     atom   17 type  1   force =     0.00000875    0.00139896    0.00600112
     atom   18 type  1   force =    -0.00015920   -0.00008434    0.00030493
     atom   19 type  1   force =     0.00014274   -0.00011067    0.00006943
     atom   20 type  1   force =     0.00017991    0.00004199   -0.00025661
     atom   21 type  1   force =    -0.00003793   -0.00011398    0.00011053
     atom   22 type  1   force =     0.00017883    0.00005309    0.00002819
     atom   23 type  1   force =    -0.00010327    0.00001436    0.00014252
     atom   24 type  1   force =     0.00008747    0.00004289   -0.00004781
     atom   25 type  1   force =    -0.00000879    0.00003935   -0.00092159
     atom   26 type  1   force =    -0.00000218    0.00021271    0.00009932
     atom   27 type  1   force =     0.00012953    0.00015930    0.00003584
     atom   28 type  1   force =    -0.00032463   -0.00020220    0.00016896
     atom   29 type  1   force =     0.00005930    0.00055535   -0.00022268
     atom   30 type  1   force =     0.00043915   -0.00018572    0.00013278
     atom   31 type  1   force =     0.00037187   -0.00020695   -0.00032024
     atom   32 type  1   force =    -0.00019846   -0.00016863   -0.00038301
     atom   33 type  1   force =    -0.00010688    0.00012203   -0.00006928
     atom   34 type  1   force =     0.00007552    0.00049610    0.00011853
     atom   35 type  1   force =     0.00012358   -0.00011460   -0.00004486
     atom   36 type  1   force =     0.00001813    0.00007033   -0.00004928
     atom   37 type  2   force =     0.00013430    0.00010922    0.00179004
     atom   38 type  2   force =     0.00014760   -0.00005735    0.03607547
     atom   39 type  3   force =    -0.00106027   -0.00053417   -0.03528145

     Total force =     0.050534     Total SCF correction =     0.002880

     negative rho (up, down):  1.408E-02 0.000E+00

     negative rho (up, down):  1.408E-02 0.000E+00

     negative rho (up, down):  1.408E-02 0.000E+00

     negative rho (up, down):  1.408E-02 0.000E+00

     negative rho (up, down):  1.408E-02 0.000E+00

     negative rho (up, down):  1.408E-02 0.000E+00

     negative rho (up, down):  1.408E-02 0.000E+00

     negative rho (up, down):  1.408E-02 0.000E+00

     negative rho (up, down):  1.408E-02 0.000E+00

     negative rho (up, down):  1.408E-02 0.000E+00

     negative rho (up, down):  1.408E-02 0.000E+00

     negative rho (up, down):  1.408E-02 0.000E+00

     negative rho (up, down):  1.408E-02 0.000E+00

     negative rho (up, down):  1.408E-02 0.000E+00

     negative rho (up, down):  1.408E-02 0.000E+00

     negative rho (up, down):  1.408E-02 0.000E+00

     negative rho (up, down):  1.408E-02 0.000E+00

     negative rho (up, down):  1.408E-02 0.000E+00

     negative rho (up, down):  1.408E-02 0.000E+00

     negative rho (up, down):  1.408E-02 0.000E+00

     negative rho (up, down):  1.408E-02 0.000E+00

     negative rho (up, down):  1.408E-02 0.000E+00

     negative rho (up, down):  1.408E-02 0.000E+00

     negative rho (up, down):  1.408E-02 0.000E+00

     negative rho (up, down):  1.408E-02 0.000E+00

     negative rho (up, down):  1.408E-02 0.000E+00

     negative rho (up, down):  1.408E-02 0.000E+00

     negative rho (up, down):  1.408E-02 0.000E+00

     negative rho (up, down):  1.408E-02 0.000E+00

     negative rho (up, down):  1.408E-02 0.000E+00

     negative rho (up, down):  1.408E-02 0.000E+00

     negative rho (up, down):  1.408E-02 0.000E+00

     negative rho (up, down):  1.408E-02 0.000E+00

     negative rho (up, down):  1.408E-02 0.000E+00
 BEEFens 2000 ensemble energies
             -0.606985106464384E+02
             -0.362167253888936E+01
             -0.158568547672911E+02
              0.429725171654126E+02
             -0.221308436559185E+02
             -0.205602854317993E+02
             -0.352218729947788E+02
             -0.865444294334324E+02
             -0.465951711489603E+02
             -0.473636223108012E+02
             -0.369544153868888E+02
              0.225017788643308E+01
              0.406556453109081E+01
              0.766749340830222E+01
              0.265789692981934E+01
              0.475244102097568E+02
             -0.209187238285582E+02
             -0.230984753121801E+02
              0.192930194662940E+02
             -0.112471059995237E+03
              0.536751469989613E+02
             -0.290264870333361E+02
             -0.334615296941952E+01
             -0.114285697503649E+02
             -0.888788567223753E+01
             -0.467648233307531E+01
              0.883505098546763E+02
             -0.186633597796885E+02
             -0.902873606406172E+01
             -0.518670855049672E+02
              0.816845591951596E+02
             -0.188038942783243E+02
             -0.375306778724031E+02
              0.249829119038243E+02
             -0.284583494187910E+01
              0.163749327114065E+02
             -0.487991530760945E+01
              0.108504806211113E+02
              0.287877426059530E+02
             -0.103390458325216E+03
              0.558692238557285E+02
              0.142385956676131E+02
             -0.167196437778279E+01
             -0.362067456570976E+02
              0.123213292910550E+02
             -0.146545766721560E+02
              0.398525812438305E+02
              0.365270025133823E+02
             -0.308761219613023E+02
             -0.275338229674190E+02
             -0.328530333330750E+02
             -0.352178348783699E+02
              0.135777319742764E+02
             -0.491332236103261E+02
              0.115474042939975E+02
              0.623476276193902E+02
              0.635390462992875E+02
              0.356175945725766E+02
              0.154397462024853E+02
              0.270326380687522E+02
              0.891914895813277E+02
              0.213320680514812E+02
             -0.549052552624986E+02
             -0.157421346988681E+02
             -0.235927962849926E+02
              0.630436695357306E+02
             -0.774436468977072E+02
             -0.672322602219685E+02
             -0.259119656664658E+02
             -0.640255125337455E+01
             -0.471734104921253E+02
              0.270846872096747E+02
              0.801358783788430E+01
              0.867430229386679E+01
             -0.397379458450898E+02
             -0.347097617157411E+02
             -0.542033505590622E+02
              0.391079651762662E+02
             -0.296004531086946E+02
              0.264975006583083E+02
             -0.713229839598251E+01
             -0.318476562482970E+02
             -0.577252310640417E+02
             -0.176966284919660E+02
             -0.905997209825921E+01
             -0.125121318179325E+02
              0.412440694492593E+02
              0.682707478547977E+02
             -0.385732106468501E+02
             -0.795419132486683E+02
             -0.219850350174181E+02
              0.111618760732871E+03
             -0.592679644694176E+02
              0.356495093816899E+02
             -0.957090168120124E+01
             -0.664027826761849E+02
              0.254636181147308E+02
              0.398749069462795E+02
             -0.198904971881386E+02
              0.400771042510855E+02
             -0.296487060604404E+02
             -0.478005754423897E+02
              0.866018124060928E+02
              0.454415708704526E+02
              0.337110936384834E+02
              0.146650989610665E+02
              0.205501736266954E+02
              0.857253225534614E+02
             -0.256826108536846E+02
              0.788216918621066E+01
             -0.142532620003192E+03
              0.181540104004592E+02
             -0.716940897575979E+02
              0.151028435701931E+02
              0.204690517950953E+02
             -0.332921725010648E+02
             -0.557797095957142E+02
              0.657446568918795E+01
             -0.304282550726667E+02
              0.307869294454210E+02
             -0.530297954107070E+02
              0.174047879425200E+01
             -0.357208332765605E+02
             -0.424506389686337E+01
             -0.107860936608614E+01
              0.180751390380832E+02
              0.143360415296524E+01
             -0.653381486431408E+01
              0.590382175554747E+02
              0.908851625528375E+02
              0.484379867750098E+02
              0.831624106771278E+02
             -0.115216827119164E+02
              0.143479741693486E+02
              0.541570563613495E+02
             -0.111566369049340E+02
             -0.736174211846649E+02
             -0.383961748259664E+02
             -0.522064337177986E+02
             -0.276913695353625E+02
              0.327446615021222E+02
             -0.116862404856713E+03
             -0.187429812455811E+02
              0.414234012818277E+02
             -0.386543621714820E+02
             -0.365997957505493E+02
              0.544057356865947E+02
              0.401022622697412E+02
             -0.354270214640235E+02
              0.137017583642929E+02
             -0.273256325953984E+02
              0.343391494268523E+02
              0.447402123609351E+01
              0.211633127717898E+02
             -0.885554030380616E+02
             -0.480644668096943E+02
             -0.994968926578281E+01
              0.325294850083996E+01
             -0.366808934174642E+02
              0.106081645341583E+03
             -0.231388451145299E+02
             -0.399067181343907E+02
              0.389288722972203E+02
             -0.494798219148847E+02
             -0.363303940717050E+02
              0.324971713100618E+02
              0.124457366585443E+02
              0.164542565347201E+02
              0.116284724353586E+02
             -0.132949356208545E+02
              0.225662686492417E+02
              0.590686895928309E+02
             -0.312110532979206E+02
              0.162499275164753E+02
              0.935104370077958E+02
              0.340921722197498E+02
             -0.730488087860499E+01
             -0.188563843957450E+02
              0.153442254532179E+03
             -0.163881940644149E+02
              0.363323464451933E+02
              0.194228847147312E+02
              0.362337831805108E+02
              0.892757804900625E+02
              0.543491879563618E+02
             -0.240864936903546E+01
              0.227687762046741E+02
              0.485069387820103E+02
              0.363830389704941E+02
             -0.525647449773645E+02
              0.936601788801803E+02
             -0.826097812754028E+02
             -0.198634399058502E+02
              0.583414317979618E+02
              0.670596914032186E+01
              0.790558161122908E+01
              0.341431026405195E+02
              0.299592031643143E+02
              0.353967492353274E+02
             -0.638189836369168E+02
              0.289008355330736E+01
             -0.297839912985808E+02
             -0.874112304516512E+01
             -0.145413654725485E+01
             -0.720735396591178E+01
             -0.414536852037480E+01
              0.859870041668700E+02
             -0.101251380643114E+02
             -0.276636547587044E+02
             -0.497553588290902E+01
              0.139945997428150E+02
             -0.564284038754860E+02
             -0.406895031057564E+02
             -0.382431356030867E+02
             -0.630672833926806E+02
             -0.169802862678995E+02
             -0.447813488073031E+02
              0.163578199931058E+02
             -0.241835359142696E+01
             -0.104335643143927E+02
             -0.935221336791611E+01
              0.808996644035147E+01
             -0.243496265847321E+02
              0.689722277400276E+02
             -0.807365084810098E+02
             -0.141183895141648E+02
             -0.174362346597396E+02
              0.182160269106596E+02
              0.214217534985532E+02
             -0.464085795899005E+02
             -0.202340141074877E+02
              0.441087613325772E+02
             -0.276518381051678E+02
              0.187027783133761E+02
              0.383320561221299E+02
             -0.323005605989033E+01
              0.114232167147359E+03
             -0.230797782484254E+02
             -0.341358501741719E+02
              0.580926301603125E+01
             -0.228176739710298E+02
              0.527889541119586E+02
             -0.336967890335931E+02
              0.106414712758949E+02
              0.641549135412731E+02
             -0.126412970162525E+02
              0.120321400325460E+03
              0.125952108992174E+03
             -0.650219100159138E+02
              0.590918056675762E+02
              0.166288227616091E+02
             -0.517951490466422E+02
              0.216530077578082E+02
              0.353641463223566E+02
              0.362577864553757E+02
              0.135720653206903E+01
              0.159452384315687E+02
              0.695870063744776E+02
             -0.247099713147398E+02
              0.181530566071262E+02
              0.739862306212777E+02
             -0.372918607881600E+02
             -0.129309423714516E+02
              0.508577798774964E+02
              0.297506843182512E+02
              0.781072680128415E+02
              0.222502861996996E+02
              0.621714177455129E+01
              0.280658560715255E+02
              0.383394802588749E+02
             -0.471550513731480E+02
              0.328814791135852E+01
              0.129229355599943E+02
              0.113712836329025E+02
              0.220509679848431E+02
             -0.574990979450884E+02
              0.366563763317845E+02
             -0.444333138722947E+02
             -0.347521711856099E+02
              0.177789004889789E+02
             -0.181822364793579E+02
              0.555157905856461E+02
             -0.256913017583913E+02
              0.266855763726545E+02
              0.368630676724541E+02
              0.829898130110915E+02
              0.575144327470539E+02
              0.461893563839484E+02
             -0.106264337946501E+02
             -0.389279587295232E+01
             -0.332243702348355E+02
              0.750879272202162E+02
              0.797695873461043E+02
              0.361995115510692E+02
             -0.191867356146384E+02
              0.512279181381322E+02
             -0.163332242018280E+02
              0.215289873506273E+02
              0.614633147924538E+02
              0.215230443162042E+01
             -0.104417619084420E+02
             -0.283561101465791E+02
             -0.511429014565299E+02
              0.945989047775749E+02
              0.439526194082429E+02
             -0.559138541412724E+02
             -0.961855828091967E+01
              0.250232534223500E+02
             -0.998270659867362E+01
              0.592425107690131E+02
              0.152326174485499E+02
              0.799812277875345E+02
              0.279368730163461E+02
             -0.264589279567402E+02
              0.249532738032219E+02
             -0.501844034533809E+01
             -0.324271764383369E+02
              0.133400526444522E+02
              0.206172893456595E+02
              0.933199214130552E+02
              0.798027197894422E+02
              0.551170929231818E+02
              0.731613518995093E+02
              0.800088865583376E+01
             -0.273964276943517E+02
              0.163321379072876E+02
             -0.368369845845703E+02
             -0.476308295452179E+02
             -0.564160205224242E+02
             -0.266561787394158E+02
             -0.109781238417351E+03
             -0.291308785830618E+02
             -0.837698680467203E+02
              0.210066182853691E+02
             -0.477382524920144E+02
              0.396731946338921E+02
             -0.941689581933704E+02
             -0.330381447030311E+02
              0.549521074673035E+02
              0.207908851349045E+02
             -0.830960625843652E+02
              0.631953042395921E+02
             -0.256805252934512E+02
              0.512744772018266E+02
             -0.243068925894671E+02
             -0.751810280535595E+02
              0.112042021211187E+02
             -0.611676218316361E+02
             -0.168790319140487E+02
             -0.146642078076669E+01
              0.418739470200791E+02
              0.127094465708757E+03
             -0.462230854669778E+02
             -0.362931314813641E+02
             -0.961434641900610E+00
             -0.130570840998943E+02
             -0.823186895758226E+02
             -0.597302391190026E+02
              0.517767857914174E+02
             -0.289472748541585E+02
              0.169093899731967E+02
             -0.489813219085157E+02
             -0.131850743934666E+02
             -0.437609031844752E+02
              0.566092737756307E+02
              0.151610173083455E+02
             -0.231778485506534E+02
             -0.126719354150639E+02
              0.666208327370349E+01
             -0.620178502472527E+01
              0.442014324397348E+02
             -0.252253555320550E+02
              0.272030199271535E+01
              0.339388950828022E+02
              0.171754003228001E+02
             -0.159532053031778E+02
              0.156394902172077E+03
              0.537973730090908E+02
              0.115337597382725E+01
              0.161976566226590E+02
             -0.615112756444731E+02
              0.315145173258946E+02
             -0.722144172333190E+02
             -0.252085642863591E+02
             -0.522936802866822E+02
             -0.220171704746429E+02
              0.569423280095627E+02
             -0.537343011794532E+02
              0.160583908386227E+02
             -0.407413378711362E+01
              0.389259460927411E+01
             -0.434405913775339E+02
             -0.478790783649315E+02
             -0.397675064228349E+01
             -0.425850534508464E+02
             -0.217508692136225E+02
             -0.438723842449306E+02
             -0.119507788281707E+02
             -0.359302350388048E+02
             -0.516979119726160E+02
              0.213079375554285E+02
             -0.209746822810604E+02
              0.187754523251302E+02
              0.976562688264416E+01
             -0.738377501697745E+02
             -0.548705946921457E+02
             -0.397958836550311E+02
              0.354712301327891E+02
              0.273008529645588E+01
             -0.627312174365682E+02
              0.585982017892683E+02
             -0.401409521731835E+02
              0.544936681266875E+02
             -0.289604867421500E+02
             -0.446387134624238E+02
              0.299042724671573E+02
             -0.658126356331710E+02
             -0.380399041055121E+02
              0.673431809777289E+02
              0.204072303552811E+02
             -0.359929076875037E+02
              0.489616020592134E+02
             -0.174048303221456E+02
             -0.322889896424887E+02
             -0.302062468667787E+02
             -0.500970973394291E+02
              0.249326685870466E+02
             -0.933751941036433E+02
             -0.841146020957661E+02
             -0.733726526013425E+01
             -0.307053755580007E+02
             -0.575814825968730E+02
              0.722319570698758E+02
              0.131609981056935E+03
             -0.361632910093036E+02
             -0.254746431719633E+01
             -0.637706927776285E+02
              0.651068804828725E+02
              0.170715579194582E+02
             -0.181419669581176E+02
             -0.410451634791265E+02
              0.148845924459117E+02
             -0.586748241146072E+02
             -0.197982622905388E+02
             -0.905580331946626E+02
              0.337111103814484E+02
              0.169333355907569E+02
              0.185929805794501E+01
             -0.703263842195020E+01
             -0.329388018606664E+02
             -0.756970144241484E+01
              0.125576104437635E+03
             -0.199291930078995E+02
             -0.437433586986777E+02
             -0.684314564682204E+02
              0.109191491274389E+02
             -0.342172415303823E+02
              0.588955965148786E+01
              0.261559022594809E+02
              0.102162305429309E+02
              0.277857921567227E+02
              0.119727453065859E+02
              0.630152408133507E+02
              0.317356504287146E+02
             -0.326629006671413E+02
              0.355263279855251E+02
              0.379886638208015E+02
              0.120990447242203E+02
              0.487507079214710E+02
             -0.224560621169249E+02
              0.766403764011339E+02
              0.172174106547859E+02
             -0.272262480754106E+02
             -0.723459360604857E+01
             -0.186502219183220E+02
              0.262366364196355E+02
             -0.234945488818285E+02
             -0.855222309576789E-01
             -0.848448241265999E+01
              0.810474483656757E+02
              0.500300409716775E+02
             -0.688021679997293E+02
             -0.473968345826921E+01
             -0.556126191157397E+02
             -0.159924374664142E+02
             -0.268446756550541E+02
              0.374635260560376E+01
              0.579276986882038E+00
             -0.257572715625268E+02
              0.811754676317005E+01
             -0.602949296157233E+01
             -0.128839836023467E+02
              0.859688725267040E+02
              0.182190349743615E+02
             -0.807314937997028E+02
             -0.458971478538884E+02
              0.945320732344807E+02
              0.277984592826223E+02
             -0.106913574091507E+02
              0.104624401305973E+03
             -0.195349829199404E+02
             -0.123281296345021E+02
             -0.537482856164456E+01
              0.107364888686902E+02
              0.272305439315860E+02
              0.781636164146397E+01
              0.305594467315120E+02
             -0.188368878384314E+02
             -0.303544776897770E+02
             -0.418098689577191E+02
             -0.477239480341228E+02
              0.464572550811863E+02
              0.126975029145137E+02
              0.387849800511035E+02
              0.133536445397787E+02
              0.856154679988804E+02
              0.156481288007578E+02
             -0.846747849777587E+02
             -0.334722072174164E+02
              0.134197724596232E+02
             -0.303100251719901E+02
              0.626923310373985E+02
             -0.885932755812291E+01
              0.148992593370195E+02
              0.497421633307709E+02
             -0.707717866089479E+02
              0.149857250757144E+03
              0.208780626662735E+02
              0.271588120030766E+02
              0.347735616711843E+02
              0.103888272545926E+02
             -0.158426017913274E+01
              0.358918782010252E+02
             -0.357221543705076E+02
              0.773588552198798E+02
              0.685072443874797E+02
             -0.406248393204109E+02
              0.149541086338058E+02
              0.670628355188085E+02
             -0.224229468795418E+02
              0.154303871338606E+02
              0.435863671341628E+02
              0.422786530495237E+02
             -0.785441597176849E+02
             -0.153023450840426E+02
             -0.356777002083341E+02
             -0.148265511485630E+01
             -0.764334578829034E+01
             -0.549779267469262E+01
             -0.181207836741301E+02
             -0.293708637278855E+02
              0.629926022460067E+01
              0.112043634748531E+02
              0.536045964477172E+02
             -0.390364041563619E+02
              0.374176238798443E+02
              0.438678338025136E+02
             -0.187227840635363E+02
              0.873343763715942E+02
             -0.698433574747472E+02
             -0.103268000317788E+03
             -0.658002609320238E+01
             -0.268415372104505E+01
              0.387813396948900E+01
              0.789925063680443E+02
             -0.107398686376845E+02
              0.416837143360319E+02
              0.443530305871967E+02
              0.385709701415459E+02
             -0.995155754006487E+01
              0.628459332814961E+02
             -0.133733708336545E+02
             -0.307387394205463E+02
             -0.480242365863136E+02
              0.585595954925429E+01
              0.370220284989858E+02
             -0.605326296875674E+01
              0.393687145129584E+02
             -0.177307503761830E+01
              0.656057090596372E+02
              0.187825790957900E+02
              0.999255371561186E+01
             -0.122086646037055E+02
              0.332571950305033E+02
              0.362927429413864E+02
              0.233170178092075E+02
             -0.509274227415347E+00
             -0.550869186107417E+02
              0.260904103593920E+02
              0.175316652089715E+02
              0.403189931446283E+02
              0.272553492303566E+02
              0.372738254786990E+02
             -0.604450660691577E+01
              0.250855192394924E+02
             -0.298709582830384E+02
             -0.197331596090282E+01
             -0.569829300661273E+02
             -0.308281853053887E+02
              0.379046439061642E+02
             -0.936431306344562E+02
              0.294885551561613E+02
              0.184243250465331E+02
              0.840714415108214E+02
             -0.301400560834705E+02
              0.329490712123451E+02
             -0.137970472230484E+02
             -0.464325536945657E+02
             -0.762692048840490E+02
             -0.522989632570727E+01
             -0.860495466294458E+02
              0.200300659855347E+02
             -0.247708285380611E+02
              0.305938743689283E+02
              0.236864411154672E+02
             -0.241025899729876E+02
             -0.265227910237782E+02
              0.391246804410106E+02
             -0.588496054281638E+02
             -0.116627660813740E+02
             -0.196333730589553E+02
              0.212588807198233E+02
             -0.897286838937788E+01
              0.363991241835782E+01
             -0.201018731516925E+02
              0.559331364401472E+02
             -0.439228805795472E+02
              0.789359510257634E+01
              0.585674986579182E+02
             -0.323388733578067E+02
              0.359387643925527E+01
             -0.885616546100937E+01
             -0.670238963835194E+02
             -0.483532830589079E+02
             -0.864362610834600E+01
              0.240804705614041E+02
              0.302437215048401E+02
              0.859345991930161E+01
             -0.414136166254968E+01
              0.152276279181719E+02
             -0.440557223482611E+02
              0.335447234478511E+01
             -0.531465035998369E+02
             -0.324998914052647E+02
              0.474974123828965E+02
             -0.295421708985367E+02
              0.622615766804195E+02
             -0.214584154247079E+02
              0.354208938356452E+02
              0.241903972165800E+02
             -0.644561866979397E+02
             -0.280933344927805E+02
              0.932862609231594E+01
             -0.371801980924111E+02
             -0.339863955581150E+02
             -0.830548955739932E+02
             -0.539870598622829E+02
             -0.510906589932860E+02
             -0.415836286335229E+02
             -0.979335939151355E+00
              0.993154466303778E+01
              0.991581123402852E+00
              0.153020769282402E+02
             -0.549820478860149E+02
              0.141814376876515E+02
              0.256406105742840E+02
             -0.667329943657082E+02
             -0.702777105452558E+02
             -0.431564801577766E+02
             -0.171703964751471E+02
              0.178861501386951E+02
              0.457358012117049E+01
             -0.426606652913733E+02
              0.366954013685428E+02
             -0.216130068467074E+02
              0.517922200290355E+02
             -0.887920019959797E+02
              0.597840451102267E+02
             -0.208296713270924E+01
             -0.368551156212370E+02
             -0.216704049727915E+02
              0.472335847393001E+01
              0.374780454893961E+02
             -0.756988238625539E+02
             -0.121005118615055E+02
             -0.216840965795814E+02
              0.511789209497265E+02
              0.865487806903207E+02
             -0.965808113158276E+02
              0.944930426258139E+02
              0.468486242671276E+02
             -0.726075486283678E+02
             -0.367099104049972E+02
              0.752380965058733E+02
              0.632663822203779E+02
             -0.180991322885947E+02
             -0.463492950143080E+01
              0.730534332380323E+01
              0.649332042463414E+02
             -0.508607991100777E+02
              0.158775879872126E+02
             -0.472039811990753E+01
              0.348340812413861E+02
             -0.747661189528471E+02
             -0.650710817552142E+01
             -0.351660303900359E+02
              0.461015872875405E+02
              0.469308865378536E+02
             -0.862433374172754E+02
             -0.487542213943423E+02
             -0.256581985062149E+02
             -0.339346181149821E+02
             -0.109553411381128E+02
             -0.243344950797454E+02
              0.427660932832839E+02
              0.401556298429288E+02
             -0.568306933116895E+01
             -0.416544026256488E+02
             -0.850977829691421E+02
              0.443301307514497E+02
             -0.523901856453680E+02
             -0.312986032449205E+02
              0.547104603834862E+01
             -0.322621436403537E+02
             -0.398380071141759E+02
             -0.240149956124599E+02
             -0.385284847778705E+02
             -0.271161939375859E+02
             -0.482974062815569E+02
              0.564562917963320E+02
              0.638978441511431E+02
             -0.169617469141326E+01
             -0.261594005712639E+02
             -0.627776462522331E+01
              0.441459697851130E+02
             -0.868816262597153E+02
             -0.146393044363943E+02
              0.524314554521667E+02
              0.663815290424469E+02
             -0.244977888666976E+02
              0.916435595721578E+01
              0.523839021790431E+02
              0.198289715578124E+02
             -0.833034215969491E+01
             -0.453507771189385E+02
              0.280867938836230E+02
             -0.352901218851416E+02
             -0.165285457666706E+02
             -0.153039862257788E+02
             -0.200537397012954E+02
              0.194798304532439E+02
              0.800920324271580E+02
              0.189678824309706E+01
              0.535544317166620E+01
             -0.888148437865638E+02
             -0.175869878532143E+02
             -0.353063621927674E+02
              0.279163211256054E+01
             -0.409761200605772E+02
              0.730675947768356E+02
              0.785415526690527E+02
              0.124165498325722E+02
             -0.141266517973046E+02
              0.143956871184052E+02
              0.260960715485189E+02
             -0.482379742546922E+02
             -0.873324313037176E+01
              0.137802118004541E+02
              0.164906749451670E+02
              0.563976422570750E+02
              0.422379753221433E+02
             -0.198132902230906E+02
              0.331513384265631E+02
             -0.968904307353839E+02
             -0.565230998290232E+00
              0.848276972185868E+02
[...]
              0.283790313154742E+02
              0.141936725685862E+03
              0.242233504388220E+02
              0.122581517108505E+02
             -0.464938032542777E+02
             -0.638572517860530E+02
             -0.189155387301590E+02
              0.329670540751275E+02
             -0.427020973249023E+01
              0.189721344365950E+02
              0.336341148859576E+02
             -0.587227408626838E+02
              0.222441056062378E+02
              0.583239567611428E+02
              0.553586598709571E+02
             -0.419716480167108E+01
             -0.139918787109571E+01
             -0.994636114953036E+01
             -0.482870054992975E+02
             -0.675272026338703E+02
              0.786311485537239E+02
             -0.522757450101568E+01
             -0.588476744362618E+02
              0.168473771939063E+01
             -0.205216996714064E+02
              0.939199985789375E+02
             -0.216624121877065E+02
             -0.353699266050290E+02
              0.335137077179857E+02
             -0.145663419853058E+02
              0.389751709505581E+02
             -0.242888730688588E+01
              0.101183963824285E+03
              0.489710400012150E+02
             -0.515982812546228E+01
             -0.322044587731142E+02
              0.232243942732353E+02
             -0.528891448909144E+02
             -0.128210432483946E+02
              0.586054409948770E+02
             -0.287855059086833E+02
             -0.438814202651840E+02
             -0.223242724715147E+02
              0.519191331227686E+02
              0.125093125520199E+02
             -0.849511375666196E+02
              0.303965752012600E+02
              0.152480802474628E+02
              0.575002608290993E+01
             -0.513840363508006E+02
             -0.379056215486588E+01
              0.323438433830964E+02
              0.513454308088193E+02
              0.632715635757002E+02
              0.228881213472992E+02
              0.772215760006361E+00
             -0.498054396682325E+02
             -0.510363958126417E+02
             -0.748824269078953E+02
             -0.611454443807452E+01
              0.309098763538670E+02
             -0.379775746696436E+01
              0.547365914570685E+02
             -0.318081628960778E+02
              0.166740272127460E+02
             -0.102260462773604E+02
             -0.289642136999002E+02
              0.585859395096768E+02
              0.793732561876800E+01
              0.604354996519138E+02
              0.508066730131088E+01
              0.265408791583224E+02
             -0.192911379410733E+02
              0.586614446775515E+02
             -0.111107011897280E+02
             -0.141968894894717E+00
             -0.790623775534553E+02
             -0.128569650169308E+02
              0.719670294697025E+02
              0.673866564406288E+02
              0.251830892446453E+02
             -0.130353699926736E+02
              0.341548914721830E+01
             -0.173350432007406E+02
             -0.199663643965170E+01
              0.908095705746235E+02
              0.122590214815489E+01
             -0.190257194160042E+02
             -0.110839995465604E+03
             -0.553533003467593E+02
             -0.375125421345413E+02
             -0.659223876918068E+02
             -0.555659788159005E+02
             -0.683142917177962E+02
             -0.447321616633140E+02
             -0.411536187321879E+02
             -0.452043173308138E+02
              0.483792102458533E+02
             -0.294803847132550E+02
             -0.996933923080924E+02
              0.419130577948252E+02
             -0.259947728635067E+02
             -0.791424285893678E+02
              0.944428819773187E+02
             -0.219675781783640E+02
              0.228471981995303E+02
              0.455603435050613E+02
             -0.140889435835987E+01
              0.254369294245429E+02
              0.469913660983991E+01
              0.411900984698278E+00
             -0.150536779904923E+02
             -0.715830175426180E+02
              0.133227467324693E+02
             -0.129506338176932E+03
              0.623978380680489E+02
             -0.440860287022005E+02
             -0.162792439212824E+02
             -0.158190788534886E+02
              0.710406074340077E+01
             -0.228027763307064E+02
              0.297475346133048E+02
             -0.520685893599646E+02
              0.367614550526991E+02
              0.370688658945082E+02
              0.168965756272057E+02
              0.100412001144538E+02
              0.197849712996365E+02
              0.620003600434171E+01
              0.310757267261119E+02
             -0.800804925660640E+01
             -0.591833396368938E+02
              0.757962962110122E+01
             -0.152469695778769E+02
             -0.192138673991724E+01
              0.506022302471754E+02
             -0.827422954457922E+02
             -0.151597735425469E+01
              0.565364737871903E+00
              0.995645788142093E+01
              0.318752333850771E+02
             -0.123728276011573E+02
              0.836299388469405E+02
              0.488471403029973E+02
             -0.183537907989290E+02
             -0.959910516128593E+01
              0.104572888362387E+01
              0.770120965413462E+02
             -0.586845286837264E+02
             -0.105839878627477E+03
              0.309291764470805E+02
             -0.163093714213118E+02
             -0.139259182505706E+02
              0.130573235878651E+02
              0.769059305020220E+02
              0.464569892856090E+02
             -0.153649279390846E+02
             -0.503073837025411E+02
             -0.547337020772487E+01
              0.306631693069274E+02
             -0.111426358126073E+02
             -0.756117558653709E+02
             -0.268191423703053E+01
             -0.890101267365545E+02
             -0.475683682330184E+02
              0.768522128954986E+02
             -0.483662230426322E+02
             -0.636597051267043E+02
             -0.514628538213124E+02
             -0.349769089921923E+02
              0.340868602208892E+02
              0.821858377073179E+02
             -0.354069924301803E+01
              0.276764112128674E+02
             -0.183632939030198E+02
             -0.694248223655253E+02
              0.465203528803219E+02
             -0.445030063702947E+02
              0.322194186608131E+02
              0.376750591586643E+02
             -0.653114252624198E+01
              0.391054092093658E+02
              0.438822001673046E+02
              0.100650214406688E+03
             -0.156438523683596E+02
             -0.455703950146620E+02
             -0.613120331251724E+02
             -0.123812336449349E+02
             -0.232447113757059E+02
              0.103112499259777E+03
             -0.449169431263595E+02
              0.105187957305000E+02
              0.975147090637176E+01
             -0.265025554645491E+02
             -0.798750195734457E+02
             -0.699144378863087E+01
              0.980224117779414E+02
              0.933906921376817E+01
              0.809812162063736E+01
             -0.526806544920285E+02
             -0.605890697192440E+02
             -0.559967725229880E+01
              0.500790063764158E+02
             -0.221823276934533E+02
              0.108048476463960E+03
             -0.435287452630960E+02
              0.146284068715249E+02
             -0.224790459248253E+02
             -0.718976113404253E+02
              0.166894242654843E+01
             -0.501780879616335E+02
             -0.761029967987045E+02
              0.613161328663080E+01
              0.236958210458295E+01
              0.514340474482233E+02
              0.187129343201877E+02
             -0.323641698311089E+02
              0.230194533255286E+02
             -0.810812447269495E+02
             -0.522328666031639E+02
              0.902194786854196E+02
              0.142833322779854E+02
             -0.188532746769031E+02
             -0.352806592731638E+02
             -0.269360063877400E+01
             -0.585738038428804E+01
              0.830011950700417E+02
              0.417760519855343E+02
             -0.166493524532352E+02
             -0.122354721200736E+02
             -0.427978516089639E+02
             -0.201099127581377E+02
             -0.670621650577898E+02
              0.459716862911573E+02
              0.546380379638831E+01
              0.145207294581246E+02
              0.155919707646901E+02
             -0.541985396709642E+00
             -0.168312196634114E+02
             -0.314226722231723E+01
             -0.100445727450208E+03
             -0.230172801238358E+02
             -0.762659066902711E+01
             -0.949617999956357E+01
              0.547167862224847E+02
              0.623850807199988E+02
              0.164829062102197E+02
             -0.971071205993863E+02
              0.647952612193901E+02
             -0.215062643143344E+02
             -0.377202097740437E+02
             -0.864539364386866E+02
             -0.387459254015093E+02
              0.564344974516948E+02
              0.243951055346035E+02
              0.511695530473673E+01
              0.292162682823825E+02
             -0.565179886430536E+02
             -0.422217575340180E+02
              0.515298600133049E+02
              0.387334862940131E+02
              0.519356161086943E+02
             -0.127655089060431E+01
              0.683459575002024E+01
              0.569776121711587E+02
              0.963184323073178E+02
             -0.300731520063036E+02
              0.322708529616775E+02
             -0.117733981594889E+02
             -0.412226373062276E+02
             -0.314246583054526E+02
             -0.299951596918403E+02
             -0.131435056442259E+02
             -0.523833199645686E+02
             -0.217595087750609E+02
             -0.141246114953422E+03
              0.369096148542486E+02
              0.206712656540448E+02
             -0.393091079084267E+01
             -0.380271110719857E+02
             -0.204536285384704E+02
             -0.526852073035015E+02
              0.151433991997768E+02
              0.820473819344952E+02
             -0.252340557258386E+02
             -0.162993445426766E+02
              0.238116841004024E+02
             -0.489351069113611E+02
              0.881018322546541E+02
              0.154631206461287E+02
              0.226849834700064E+02
              0.490608933160812E+02
              0.324972583960857E+01
              0.542319685523237E+02
              0.142888169196082E+02
             -0.106935539099636E+02
              0.732513452214403E+01
              0.833884068003840E+00
              0.727888604267665E+02
              0.101105699164406E+02
              0.120248482201836E+02
             -0.129984075966782E+02
              0.132348403180860E+02
             -0.911605866886575E+02
             -0.326057081217351E+02
             -0.457401321060483E+02
              0.485747699277129E+02
             -0.291049810348899E+02
             -0.659123321910703E+02
              0.538543953963731E+02
             -0.122160556508766E+02
              0.440413949349161E+02
             -0.899151886629853E+02
              0.232523462281918E+02
              0.859815750494451E+01
              0.582066397771098E+01
             -0.830901302461450E+01
             -0.903237206269955E+01
              0.479567646067381E+02
              0.199673926125359E+01
             -0.475021181751345E+02
             -0.176004048413430E+02
              0.277081472987082E+02
             -0.117986511318242E+03
             -0.930455508776005E+02
              0.397556820923432E+01
              0.117446468211531E+02
             -0.413013907986978E+02
             -0.390731121452291E+01
              0.112193334521219E+03
              0.307001754122964E+02
             -0.571954176084464E+02
              0.925781030362879E+01
             -0.964559779045797E+01
              0.105513457339946E+02
             -0.337574189746217E+02
              0.195182955157544E+02
              0.284813269079680E+02
             -0.299825039731240E+01
              0.108213151102117E+03
             -0.140594237857774E+02
             -0.316141722130933E+02
              0.142607986296255E+02
              0.466800484318516E+02
             -0.356169376178047E+02
             -0.318580738968640E+01
              0.965060862697010E+02
             -0.466258406736631E+01
              0.621945830423453E+02
              0.135460304109285E+02
             -0.905229934644717E+01
             -0.305774422451323E+02
              0.567181600526434E+02
             -0.514323225677671E+02
             -0.221972104083005E+01
             -0.169961312041891E+02
             -0.405531438491536E+02
              0.185000051029088E+02
              0.239054697373298E+02
              0.116428784985652E+02
              0.721863276672025E+00
             -0.384508750766597E+02
              0.215746631512991E+02
             -0.675380540280045E+01
             -0.246858615701171E+02
             -0.210842335756938E+02
              0.203803702841831E+02
             -0.597712194399071E+01
             -0.349252915558776E+02
             -0.106650918301588E+03
              0.102844244185111E+02
              0.249271094894968E+02
             -0.387194615187877E+02
             -0.210936510301664E+02
              0.807277072501298E+02
              0.648256006470436E+01
              0.310513467765240E+02
              0.388624875089076E+01
              0.321802340795299E+02
              0.646507301847936E+01
             -0.373131918671174E+02
             -0.226692260808792E+01
              0.878180995263313E+01
              0.273689209505562E+02
              0.782612546486183E+02
              0.507693510512830E+02
              0.169508626922095E+00
              0.169066512329306E+02
              0.613407921660684E+02
              0.235897944065250E+02
             -0.753480071214087E+02
             -0.273820897855526E+02
              0.151306952672521E+02
              0.561977678776066E+01
              0.255226022198882E+02
             -0.548161738539089E+02
              0.902605519090767E+01
              0.385812834289354E+02
              0.498309826086585E+02
             -0.435233654885953E+02
             -0.695115726544202E+01
             -0.207600885760172E+01
             -0.133697078181405E+02
             -0.366116798717195E+02
             -0.215629503518734E+02
             -0.197348848829414E+01
              0.791919382427443E+01
              0.421480026588640E+02
             -0.308442331492896E+02
              0.826494967410326E+02
              0.327719611396155E+02
              0.219632873073070E+02
              0.332929680610954E+02
              0.323636341248752E+02
              0.345949046841804E+02
              0.537423264999678E+02
             -0.433990489723021E+02
              0.619858920844512E+02
             -0.112285868808161E+03
              0.307568994910819E+02
             -0.106586728763251E+03
              0.855195434057462E+02
              0.690749696541242E+02
             -0.110036674978945E+02
             -0.493642164729899E+02
             -0.429638664649551E+02
             -0.624032790402589E+02
             -0.628847538112275E+02
              0.551970915282092E+02
              0.405724949691042E+02
              0.236980591388689E+02
              0.374383246303878E+02
              0.402999589547291E+02
             -0.382246319269627E+02
             -0.198115083126881E+02
              0.586845296959640E+02
             -0.115990431679787E+02
              0.551948153558383E+02
              0.699516247192065E+02
             -0.553149696857910E+01
             -0.706481137054473E+02
             -0.935719165551177E+00
             -0.246127234559917E+01
             -0.882676413594766E+01
             -0.179164558080572E+01
             -0.653423453823370E+02
             -0.211429559167385E+02
              0.536811579026717E+01
              0.895512092695978E+01
              0.468971973530658E+02
             -0.397759151749901E+02
              0.658344529156649E+02
             -0.425564897896326E+02
              0.210134491717348E+02
              0.350400807204585E+02
 
 BEEF-vdW xc energy contributions
           1 :   -783.494326536705     
           2 :    719.972343769330     
           3 :   -609.927779250001     
           4 :    480.234435018388     
           5 :   -358.270745236207     
           6 :    263.859147188634     
           7 :   -204.732669738055     
           8 :    176.469154993916     
           9 :   -166.472629683521     
          10 :    160.111648988303     
          11 :   -146.514740077898     
          12 :    121.824263977387     
          13 :   -89.0613739885131     
          14 :    55.2384614154531     
          15 :   -27.3826552196235     
          16 :    9.26141428559583     
          17 :  -8.941451468638206E-002
          18 :   -4.52053323355528     
          19 :    10.0744948788443     
          20 :   -20.4874240356033     
          21 :    36.3880296323368     
          22 :   -55.1153423185148     
          23 :    72.2424946870223     
          24 :   -83.7908479977028     
          25 :    88.0437579350811     
          26 :   -86.1675591891255     
          27 :    81.4426178296899     
          28 :   -77.5669103829476     
          29 :    76.8992046284610     
          30 :   -79.4718297468602     
          31 :   -85.8199845173318     
          32 :   -65.8110985745627     

     Writing output data file ./pwscf.save/
 
     init_run     :    316.65s CPU    321.36s WALL (       1 calls)
     electrons    :  12025.65s CPU  12152.22s WALL (       1 calls)
     forces       :     98.60s CPU     99.97s WALL (       1 calls)

     Called by init_run:
     wfcinit      :    268.80s CPU    272.44s WALL (       1 calls)
     potinit      :     44.63s CPU     44.96s WALL (       1 calls)
     hinit0       :      1.35s CPU      1.37s WALL (       1 calls)

     Called by electrons:
     c_bands      :  10012.01s CPU  10108.71s WALL (      19 calls)
     sum_band     :   1347.57s CPU   1360.77s WALL (      19 calls)
     v_of_rho     :    103.40s CPU    107.74s WALL (      19 calls)
     newd         :     29.94s CPU     42.54s WALL (      19 calls)
     PAW_pot      :    131.94s CPU    131.94s WALL (      19 calls)
     mix_rho      :    446.18s CPU    446.83s WALL (      19 calls)
     vdW_kernel   :     33.63s CPU     33.63s WALL (       1 calls)

     Called by c_bands:
     init_us_2    :     76.22s CPU     76.53s WALL (     520 calls)
     cegterg      :   9258.53s CPU   9354.90s WALL (     247 calls)

     Called by *egterg:
     cdiaghg      :     77.91s CPU     77.98s WALL (    1207 calls)
     h_psi        :   5861.43s CPU   5894.97s WALL (    1233 calls)
     s_psi        :   1011.65s CPU   1011.67s WALL (    1233 calls)
     g_psi        :     16.95s CPU     16.97s WALL (     973 calls)

     Called by h_psi:
     h_psi:calbec :    944.42s CPU    944.63s WALL (    1233 calls)
     vloc_psi     :   3879.87s CPU   3880.78s WALL (    1233 calls)
     add_vuspsi   :   1010.29s CPU   1010.30s WALL (    1233 calls)

     General routines
     calbec       :   1385.74s CPU   1385.98s WALL (    1532 calls)
     fft          :     48.87s CPU     48.88s WALL (    3159 calls)
     ffts         :    143.63s CPU    143.66s WALL (   10438 calls)
     fftw         :   4010.66s CPU   4011.16s WALL (  324676 calls)
 
     Parallel routines
 
     PWSCF        :      3h29m CPU      3h31m WALL

 
   This run was terminated on:  19:57: 2  20May2022            

=------------------------------------------------------------------------------=
   JOB DONE.
=------------------------------------------------------------------------------=
