
     Program PWSCF v.6.7MaX starts on  3Jan2023 at 22:28:24 

     This program is part of the open-source Quantum ESPRESSO suite
     for quantum simulation of materials; please cite
         "P. Giannozzi et al., J. Phys.:Condens. Matter 21 395502 (2009);
         "P. Giannozzi et al., J. Phys.:Condens. Matter 29 465901 (2017);
          URL http://www.quantum-espresso.org", 
     in publications or presentations arising from this work. More details at
     http://www.quantum-espresso.org/quote

     Parallel version (MPI), running on     1 processors

     MPI processes distributed on     1 nodes
     Reading input from cco-bi-ensemble.in
Warning: card &CELL ignored
Warning: card / ignored

     Current dimensions of program PWSCF are:
     Max number of different atomic species (ntypx) = 10
     Max number of k-points (npk) =  40000
     Max angular momentum in pseudopotentials (lmaxx) =  3
     file Pt.pbe-n-kjpaw_psl.1.0.0.UPF: wavefunction(s)  6S 5D renormalized
     file C.pbe-n-kjpaw_psl.1.0.0.UPF: wavefunction(s)  2S 2P renormalized
     file O.pbe-nl-kjpaw_psl.1.0.0.UPF: wavefunction(s)  2S 2P renormalized

     **************************************************************************
     Initializing libbeef V0.1.2 with the BEEF-vdW functional.
     Citation: Wellendorff et al., PRB 85, 235149 (2012).
     **************************************************************************


     IMPORTANT: XC functional enforced from input :
     Exchange-correlation= BEEF-VDW
                           (   1   4  43  14   2   0   0)
     Any further DFT definition will be discarded
     Please, verify this is what you really want


     Subspace diagonalization in iterative solution of the eigenvalue problem:
     a serial algorithm will be used

 
     G-vector sticks info
     --------------------
     sticks:   dense  smooth     PW     G-vecs:    dense   smooth      PW
     Sum        4267    4267   1159               717931   717931  101081
 


     bravais-lattice index     =            0
     lattice parameter (alat)  =      16.0349  a.u.
     unit-cell volume          =   11430.8092 (a.u.)^3
     number of atoms/cell      =           39
     number of atomic types    =            3
     number of electrons       =       374.00
     number of Kohn-Sham states=          224
     kinetic-energy cutoff     =      60.0000  Ry
     charge density cutoff     =     240.0000  Ry
     scf convergence threshold =      1.0E-06
     mixing beta               =       0.7000
     number of iterations used =            8  local-TF  mixing
     Exchange-correlation= BEEF-VDW
                           (   1   4  43  14   2   0   0)

     celldm(1)=  16.034858  celldm(2)=   0.000000  celldm(3)=   0.000000
     celldm(4)=   0.000000  celldm(5)=   0.000000  celldm(6)=   0.000000

     crystal axes: (cart. coord. in units of alat)
               a(1) = (   1.000000   0.000000   0.000000 )  
               a(2) = (   0.500000   0.866025   0.000000 )  
               a(3) = (   0.000000   0.000000   3.201482 )  

     reciprocal axes: (cart. coord. in units 2 pi/alat)
               b(1) = (  1.000000 -0.577350  0.000000 )  
               b(2) = (  0.000000  1.154701  0.000000 )  
               b(3) = (  0.000000  0.000000  0.312355 )  


     PseudoPot. # 1 for Pt read from file:
     /users/bkreitz1/quantum-espresso/potentials/Pt.pbe-n-kjpaw_psl.1.0.0.UPF
     MD5 check sum: 04dc8a03c51ece93fc7b5889c2958091
     Pseudo is Projector augmented-wave + core cor, Zval = 10.0
     Generated using 'atomic' code by A. Dal Corso  v.6.7MaX
     Shape of augmentation charge: PSQ
     Using radial grid of 1277 points,  6 beta functions with: 
                l(1) =   0
                l(2) =   0
                l(3) =   1
                l(4) =   1
                l(5) =   2
                l(6) =   2
     Q(r) pseudized with 0 coefficients 


     PseudoPot. # 2 for C  read from file:
     /users/bkreitz1/quantum-espresso/potentials/C.pbe-n-kjpaw_psl.1.0.0.UPF
     MD5 check sum: a169b0ebad56f5ec0d79c4633f80bf22
     Pseudo is Projector augmented-wave + core cor, Zval =  4.0
     Generated using 'atomic' code by A. Dal Corso  v.6.7MaX
     Shape of augmentation charge: PSQ
     Using radial grid of 1073 points,  4 beta functions with: 
                l(1) =   0
                l(2) =   0
                l(3) =   1
                l(4) =   1
     Q(r) pseudized with 0 coefficients 


     PseudoPot. # 3 for O  read from file:
     /users/bkreitz1/quantum-espresso/potentials/O.pbe-nl-kjpaw_psl.1.0.0.UPF
     MD5 check sum: eef08af8b58d9ec80f8fdb78829eb7cf
     Pseudo is Projector augmented-wave + core cor, Zval =  6.0
     Generated using 'atomic' code by A. Dal Corso  v.6.7MaX
     Shape of augmentation charge: PSQ
     Using radial grid of 1095 points,  4 beta functions with: 
                l(1) =   0
                l(2) =   0
                l(3) =   1
                l(4) =   1
     Q(r) pseudized with 0 coefficients 


     atomic species   valence    mass     pseudopotential
        Pt            10.00   195.08400     Pt( 1.00)
        C              4.00    12.01100     C ( 1.00)
        O              6.00    15.99900     O ( 1.00)

     No symmetry found



   Cartesian axes

     site n.     atom                  positions (alat units)
         1           Pt  tau(   1) = (   0.0000000   0.0000000   1.0017346  )
         2           Pt  tau(   2) = (   0.3333333   0.0000000   1.0017346  )
         3           Pt  tau(   3) = (   0.6666667   0.0000000   1.0017346  )
         4           Pt  tau(   4) = (   0.1666667   0.2886751   1.0017346  )
         5           Pt  tau(   5) = (   0.5000000   0.2886751   1.0017346  )
         6           Pt  tau(   6) = (   0.8333333   0.2886751   1.0017346  )
         7           Pt  tau(   7) = (   0.3333333   0.5773503   1.0017346  )
         8           Pt  tau(   8) = (   0.6666667   0.5773503   1.0017346  )
         9           Pt  tau(   9) = (   1.0000000   0.5773503   1.0017346  )
        10           Pt  tau(  10) = (   0.1666667   0.0962250   1.2739001  )
        11           Pt  tau(  11) = (   0.5000000   0.0962250   1.2739001  )
        12           Pt  tau(  12) = (   0.8333333   0.0962250   1.2739001  )
        13           Pt  tau(  13) = (   0.3333333   0.3849002   1.2739001  )
        14           Pt  tau(  14) = (   0.6666667   0.3849002   1.2739001  )
        15           Pt  tau(  15) = (   1.0000000   0.3849002   1.2739001  )
        16           Pt  tau(  16) = (   0.5000000   0.6735753   1.2739001  )
        17           Pt  tau(  17) = (   0.8333333   0.6735753   1.2739001  )
        18           Pt  tau(  18) = (   1.1666667   0.6735753   1.2739001  )
        19           Pt  tau(  19) = (  -0.0014647   0.1951642   1.5457624  )
        20           Pt  tau(  20) = (   0.3347310   0.1951648   1.5457593  )
        21           Pt  tau(  21) = (   0.6666220   0.1934190   1.5463206  )
        22           Pt  tau(  22) = (   0.1666323   0.4823275   1.5426629  )
        23           Pt  tau(  23) = (   0.4997559   0.4813905   1.5444474  )
        24           Pt  tau(  24) = (   0.8334996   0.4813975   1.5444532  )
        25           Pt  tau(  25) = (   0.3314114   0.7716021   1.5468015  )
        26           Pt  tau(  26) = (   0.6666429   0.7715954   1.5393840  )
        27           Pt  tau(  27) = (   1.0018775   0.7716076   1.5468204  )
        28           Pt  tau(  28) = (   0.0039400   0.0003032   1.8165097  )
        29           Pt  tau(  29) = (   0.3292546   0.0003057   1.8165017  )
        30           Pt  tau(  30) = (   0.6665909  -0.0091037   1.8373579  )
        31           Pt  tau(  31) = (   0.1665974   0.2907454   1.8181309  )
        32           Pt  tau(  32) = (   0.4932578   0.2935180   1.8314527  )
        33           Pt  tau(  33) = (   0.8399395   0.2935103   1.8314046  )
        34           Pt  tau(  34) = (   0.3342784   0.5779029   1.8176678  )
        35           Pt  tau(  35) = (   0.6665920   0.5838240   1.8153628  )
        36           Pt  tau(  36) = (   0.9988990   0.5778936   1.8176854  )
        37           C   tau(  37) = (   0.6666096   0.2086353   1.9635793  )
        38           C   tau(  38) = (   0.6666881   0.0871313   2.0749794  )
        39           O   tau(  39) = (   0.6667637   0.0321493   2.2041313  )

     number of k points=    13  Marzari-Vanderbilt smearing, width (Ry)=  0.0200
                       cart. coord. in units 2pi/alat
        k(    1) = (   0.0000000   0.0000000   0.0000000), wk =   0.0800000
        k(    2) = (   0.0000000   0.2309401   0.0000000), wk =   0.1600000
        k(    3) = (   0.0000000   0.4618802   0.0000000), wk =   0.1600000
        k(    4) = (   0.2000000  -0.1154701   0.0000000), wk =   0.1600000
        k(    5) = (   0.2000000   0.1154701   0.0000000), wk =   0.1600000
        k(    6) = (   0.2000000   0.3464102   0.0000000), wk =   0.1600000
        k(    7) = (   0.2000000  -0.5773503   0.0000000), wk =   0.1600000
        k(    8) = (   0.2000000  -0.3464102   0.0000000), wk =   0.1600000
        k(    9) = (   0.4000000  -0.2309401   0.0000000), wk =   0.1600000
        k(   10) = (   0.4000000  -0.0000000   0.0000000), wk =   0.1600000
        k(   11) = (   0.4000000   0.2309401   0.0000000), wk =   0.1600000
        k(   12) = (   0.4000000  -0.6928203   0.0000000), wk =   0.1600000
        k(   13) = (   0.4000000  -0.4618802   0.0000000), wk =   0.1600000

     Dense  grid:   717931 G-vectors     FFT dimensions: (  80,  80, 256)

     Estimated max dynamical RAM per process >       8.67 GB

     Check: negative core charge=   -0.000002

     Initial potential from superposition of free atoms

     starting charge  373.99381, renormalised to  374.00000

     negative rho (up, down):  1.279E-02 0.000E+00


     %%%%%%%%%%%%%%%%%%%%%%%%%%%%%%%%%%%%%%%%%%%%%%%%%%%%%%%%%%%%%%%%%%%%%%%%
     %                                                                      %
     % You are using vdW-DF, which was implemented by the Thonhauser group. %
     % Please cite the following two papers that made this development      %
     % possible and the two reviews that describe the various versions:     %
     %                                                                      %
     %   T. Thonhauser et al., PRL 115, 136402 (2015).                      %
     %   T. Thonhauser et al., PRB 76, 125112 (2007).                       %
     %   K. Berland et al., Rep. Prog. Phys. 78, 066501 (2015).             %
     %   D.C. Langreth et al., J. Phys.: Condens. Matter 21, 084203 (2009). %
     %                                                                      %
     %                                                                      %
     % If you are calculating the stress with vdW-DF, please also cite:     %
     %                                                                      %
     %   R. Sabatini et al., J. Phys.: Condens. Matter 24, 424209 (2012).   %
     %                                                                      %
     %%%%%%%%%%%%%%%%%%%%%%%%%%%%%%%%%%%%%%%%%%%%%%%%%%%%%%%%%%%%%%%%%%%%%%%%


     Starting wfcs are  336 randomized atomic wfcs
     Checking if some PAW data can be deallocated... 

     total cpu time spent up to now is      339.5 secs

     Self-consistent Calculation

     iteration #  1     ecut=    60.00 Ry     beta= 0.70
     Davidson diagonalization with overlap
     ethr =  1.00E-02,  avg # of iterations =  2.0

     Threshold (ethr) on eigenvalues was too large:
     Diagonalizing with lowered threshold

     Davidson diagonalization with overlap
     ethr =  7.57E-04,  avg # of iterations =  2.8

     negative rho (up, down):  1.970E-02 0.000E+00

     total cpu time spent up to now is     1659.4 secs

     total energy              =  -27834.27762190 Ry
     estimated scf accuracy    <       3.07063515 Ry

     iteration #  2     ecut=    60.00 Ry     beta= 0.70
     Davidson diagonalization with overlap
     ethr =  8.21E-04,  avg # of iterations =  2.0

     negative rho (up, down):  2.025E-02 0.000E+00

     total cpu time spent up to now is     2266.0 secs

     total energy              =  -27834.54915875 Ry
     estimated scf accuracy    <       0.95378973 Ry

     iteration #  3     ecut=    60.00 Ry     beta= 0.70
     Davidson diagonalization with overlap
     ethr =  2.55E-04,  avg # of iterations =  2.0

     negative rho (up, down):  2.040E-02 0.000E+00

     total cpu time spent up to now is     2882.8 secs

     total energy              =  -27834.63143214 Ry
     estimated scf accuracy    <       0.33877861 Ry

     iteration #  4     ecut=    60.00 Ry     beta= 0.70
     Davidson diagonalization with overlap
     c_bands:  1 eigenvalues not converged
     ethr =  9.06E-05,  avg # of iterations = 12.2

     negative rho (up, down):  1.940E-02 0.000E+00

     total cpu time spent up to now is     3653.8 secs

     total energy              =  -27834.66943365 Ry
     estimated scf accuracy    <       0.09576212 Ry

     iteration #  5     ecut=    60.00 Ry     beta= 0.70
     Davidson diagonalization with overlap
     ethr =  2.56E-05,  avg # of iterations =  8.4

     negative rho (up, down):  1.807E-02 0.000E+00

     total cpu time spent up to now is     4491.0 secs

     total energy              =  -27834.68701663 Ry
     estimated scf accuracy    <       0.05653624 Ry

     iteration #  6     ecut=    60.00 Ry     beta= 0.70
     Davidson diagonalization with overlap
     ethr =  1.51E-05,  avg # of iterations =  2.0

     negative rho (up, down):  1.643E-02 0.000E+00

     total cpu time spent up to now is     5087.7 secs

     total energy              =  -27834.68956572 Ry
     estimated scf accuracy    <       0.00485167 Ry

     iteration #  7     ecut=    60.00 Ry     beta= 0.70
     Davidson diagonalization with overlap
     c_bands:  2 eigenvalues not converged
     c_bands:  1 eigenvalues not converged
     c_bands:  1 eigenvalues not converged
     c_bands:  1 eigenvalues not converged
     c_bands:  1 eigenvalues not converged
     c_bands:  1 eigenvalues not converged
     ethr =  1.30E-06,  avg # of iterations = 17.6

     negative rho (up, down):  1.536E-02 0.000E+00

     total cpu time spent up to now is     6192.5 secs

     total energy              =  -27834.69170854 Ry
     estimated scf accuracy    <       0.00150126 Ry

     iteration #  8     ecut=    60.00 Ry     beta= 0.70
     Davidson diagonalization with overlap
     ethr =  4.01E-07,  avg # of iterations =  4.6

     negative rho (up, down):  1.472E-02 0.000E+00

     total cpu time spent up to now is     6914.2 secs

     total energy              =  -27834.69198460 Ry
     estimated scf accuracy    <       0.00049147 Ry

     iteration #  9     ecut=    60.00 Ry     beta= 0.70
     Davidson diagonalization with overlap
     ethr =  1.31E-07,  avg # of iterations =  4.0

     negative rho (up, down):  1.439E-02 0.000E+00

     total cpu time spent up to now is     7594.7 secs

     total energy              =  -27834.69207800 Ry
     estimated scf accuracy    <       0.00008444 Ry

     iteration # 10     ecut=    60.00 Ry     beta= 0.70
     Davidson diagonalization with overlap
     ethr =  2.26E-08,  avg # of iterations =  4.5

     negative rho (up, down):  1.413E-02 0.000E+00

     total cpu time spent up to now is     8484.6 secs

     total energy              =  -27834.69211234 Ry
     estimated scf accuracy    <       0.00004521 Ry

     iteration # 11     ecut=    60.00 Ry     beta= 0.70
     Davidson diagonalization with overlap
     ethr =  1.21E-08,  avg # of iterations =  1.9

     negative rho (up, down):  1.385E-02 0.000E+00

     total cpu time spent up to now is     9064.5 secs

     total energy              =  -27834.69211590 Ry
     estimated scf accuracy    <       0.00002627 Ry

     iteration # 12     ecut=    60.00 Ry     beta= 0.70
     Davidson diagonalization with overlap
     ethr =  7.02E-09,  avg # of iterations =  1.9

     negative rho (up, down):  1.373E-02 0.000E+00

     total cpu time spent up to now is     9657.4 secs

     total energy              =  -27834.69211705 Ry
     estimated scf accuracy    <       0.00002043 Ry

     iteration # 13     ecut=    60.00 Ry     beta= 0.70
     Davidson diagonalization with overlap
     ethr =  5.46E-09,  avg # of iterations =  1.1

     negative rho (up, down):  1.366E-02 0.000E+00

     total cpu time spent up to now is    10203.1 secs

     total energy              =  -27834.69211782 Ry
     estimated scf accuracy    <       0.00001206 Ry

     iteration # 14     ecut=    60.00 Ry     beta= 0.70
     Davidson diagonalization with overlap
     ethr =  3.22E-09,  avg # of iterations =  1.3

     negative rho (up, down):  1.366E-02 0.000E+00

     total cpu time spent up to now is    10761.8 secs

     total energy              =  -27834.69211816 Ry
     estimated scf accuracy    <       0.00000349 Ry

     iteration # 15     ecut=    60.00 Ry     beta= 0.70
     Davidson diagonalization with overlap
     ethr =  9.32E-10,  avg # of iterations =  3.1

     negative rho (up, down):  1.368E-02 0.000E+00

     total cpu time spent up to now is    11406.8 secs

     total energy              =  -27834.69211853 Ry
     estimated scf accuracy    <       0.00000126 Ry

     iteration # 16     ecut=    60.00 Ry     beta= 0.70
     Davidson diagonalization with overlap
     ethr =  3.37E-10,  avg # of iterations =  4.1

     negative rho (up, down):  1.375E-02 0.000E+00

     total cpu time spent up to now is    12047.4 secs

     End of self-consistent calculation

          k = 0.0000 0.0000 0.0000 ( 89695 PWs)   bands (ev):

   -21.2488 -13.5999  -7.5663  -7.0684  -5.8709  -5.5861  -5.3232  -5.3213
    -4.7658  -4.7565  -4.7212  -4.7201  -4.7116  -4.6533  -4.6456  -4.5895
    -4.2051  -4.1929  -4.1719  -4.1690  -4.1394  -4.1171  -3.8892  -3.8205
    -3.7521  -3.7446  -3.7334  -3.6121  -3.5442  -3.5404  -3.5069  -3.4871
    -3.4870  -3.4188  -3.3836  -3.3551  -3.3151  -3.3151  -3.3090  -3.2480
    -3.2434  -3.2411  -3.2291  -3.1817  -3.1800  -3.0465  -2.9022  -2.7601
    -2.7117  -2.6705  -2.6509  -2.6506  -2.6134  -2.5909  -2.5879  -2.5410
    -2.4729  -2.4025  -2.3975  -2.3094  -2.2524  -2.1338  -1.9381  -1.9188
    -1.8985  -1.8902  -1.8498  -1.8256  -1.7810  -1.7647  -1.6874  -1.6612
    -1.6519  -1.6506  -1.6364  -1.6286  -1.6204  -1.6104  -1.5887  -1.5818
    -1.5782  -1.5418  -1.5340  -1.5276  -1.4928  -1.4834  -1.4408  -1.4200
    -1.4095  -1.3770  -1.2713  -1.2610  -1.2423  -1.2365  -1.2146  -1.1884
    -1.1835  -1.1810  -1.1491  -1.1253  -1.1208  -1.0874  -1.0794  -1.0015
    -0.9999  -0.9603  -0.9602  -0.9567  -0.8552  -0.8433  -0.8335  -0.8001
    -0.7841  -0.7446  -0.6350  -0.4380  -0.3955  -0.3864  -0.3766  -0.3598
    -0.3143  -0.3103  -0.3028  -0.2852  -0.1842  -0.1618  -0.1364  -0.1282
    -0.0982  -0.0704  -0.0469  -0.0396  -0.0238  -0.0148   0.0757   0.1066
     0.1697   0.1801   0.1861   0.2399   0.3601   0.3715   0.4106   0.4204
     0.4243   0.4367   0.4822   0.4883   0.5501   0.5698   0.6496   0.6527
     0.6737   0.6891   0.6891   0.7863   0.8085   0.8392   0.8508   0.8517
     0.8755   0.8759   0.8917   0.8926   0.9172   0.9175   0.9231   0.9329
     0.9410   0.9912   0.9957   1.0035   1.0522   1.0527   1.1000   1.1121
     1.1124   1.1535   1.1547   1.1873   1.2386   1.2391   1.2511   1.2643
     1.2648   1.2904   1.3028   1.3256   1.3426   1.3745   1.3833   1.3939
     1.3989   1.5277   1.5306   1.6387   1.6441   1.6597   1.6806   1.6823
     1.7090   1.7969   1.9577   2.2373   2.5039   2.5528   2.5685   2.5833
     3.0699   3.0781   4.4098   4.8377   4.8763   4.9009   4.9272   5.1254
     5.7443   5.8448   6.3021   6.4766   6.4906   6.5281   6.5444   6.5941

          k = 0.0000 0.2309 0.0000 ( 89720 PWs)   bands (ev):

   -21.2488 -13.5993  -7.5436  -6.9389  -5.7701  -5.5814  -5.3091  -5.3035
    -5.1687  -4.8192  -4.8024  -4.6176  -4.5521  -4.5083  -4.4597  -4.4535
    -4.2807  -4.2282  -4.1465  -4.1016  -4.0993  -4.0580  -3.8343  -3.7887
    -3.7451  -3.7051  -3.6579  -3.6566  -3.5851  -3.5794  -3.5515  -3.4860
    -3.4846  -3.4444  -3.4026  -3.3753  -3.3632  -3.3428  -3.2952  -3.2874
    -3.1792  -3.1336  -3.1168  -3.0801  -3.0500  -3.0104  -2.9065  -2.8282
    -2.7839  -2.7527  -2.7346  -2.7122  -2.6754  -2.5651  -2.5594  -2.4946
    -2.4500  -2.4004  -2.3914  -2.3284  -2.3260  -2.1833  -2.0907  -2.0333
    -1.9989  -1.9889  -1.9803  -1.9418  -1.9139  -1.8863  -1.8631  -1.8179
    -1.7948  -1.7592  -1.7259  -1.6985  -1.6735  -1.6543  -1.5990  -1.5559
    -1.5233  -1.5113  -1.4828  -1.4817  -1.4530  -1.4335  -1.4115  -1.3963
    -1.3835  -1.3424  -1.2891  -1.2859  -1.2712  -1.2621  -1.2337  -1.2280
    -1.1888  -1.1611  -1.1193  -1.1132  -1.0893  -1.0762  -1.0700  -1.0464
    -1.0339  -1.0178  -1.0054  -0.9633  -0.9591  -0.8973  -0.8677  -0.8141
    -0.7822  -0.7501  -0.7338  -0.7176  -0.7147  -0.6723  -0.6720  -0.4996
    -0.4200  -0.3748  -0.3725  -0.3047  -0.2954  -0.2861  -0.2773  -0.2382
    -0.1332  -0.1251  -0.0835  -0.0559   0.0194   0.0248   0.0890   0.1013
     0.1189   0.1326   0.1835   0.1871   0.2536   0.2996   0.3163   0.3224
     0.3256   0.4145   0.4493   0.4521   0.4941   0.5294   0.5443   0.5562
     0.5965   0.6392   0.6770   0.6985   0.7199   0.7529   0.7644   0.8079
     0.8460   0.8898   0.9050   0.9325   0.9341   0.9633   0.9870   1.0370
     1.0662   1.1011   1.1463   1.1570   1.1737   1.1987   1.2250   1.2633
     1.2715   1.2953   1.3095   1.3300   1.3575   1.3752   1.4078   1.4099
     1.4873   1.4893   1.5376   1.5658   1.5827   1.6034   1.6266   1.6461
     1.6554   1.6733   1.6925   1.7788   1.8002   1.8209   1.9037   1.9053
     1.9622   2.0024   2.1412   2.2749   2.4188   2.7177   3.0782   3.1669
     3.3233   3.3465   4.2146   4.4779   4.6458   5.1062   5.2163   5.4043
     5.4284   5.5825   5.8914   5.9723   6.3121   6.4280   6.5080   6.6876

          k = 0.0000 0.4619 0.0000 ( 89740 PWs)   bands (ev):

   -21.2488 -13.5983  -7.5128  -6.5461  -5.9412  -5.6346  -5.4040  -5.2734
    -5.1371  -4.8502  -4.8379  -4.6889  -4.4718  -4.3509  -4.2327  -4.1950
    -4.1436  -4.1339  -4.0406  -3.9653  -3.9270  -3.9266  -3.9061  -3.8229
    -3.7663  -3.7552  -3.7199  -3.7156  -3.6859  -3.6484  -3.6239  -3.5736
    -3.5247  -3.4985  -3.3611  -3.3208  -3.3100  -3.3005  -3.2552  -3.1938
    -3.1496  -3.1225  -3.0703  -3.0470  -3.0366  -2.9524  -2.8851  -2.8466
    -2.8095  -2.7691  -2.7199  -2.6847  -2.6410  -2.6105  -2.5823  -2.5747
    -2.5595  -2.5117  -2.4151  -2.3793  -2.3711  -2.3360  -2.2388  -2.2121
    -2.1920  -2.1724  -2.1554  -2.0392  -2.0169  -1.9831  -1.9561  -1.9433
    -1.8566  -1.8393  -1.8213  -1.8058  -1.7982  -1.7006  -1.6688  -1.6665
    -1.6132  -1.5918  -1.5720  -1.5284  -1.5205  -1.5162  -1.4712  -1.4546
    -1.4358  -1.4296  -1.4006  -1.3680  -1.3511  -1.3165  -1.3165  -1.2951
    -1.2697  -1.2542  -1.2182  -1.2101  -1.1250  -1.0733  -1.0595  -1.0588
    -1.0245  -1.0230  -0.9946  -0.9329  -0.9271  -0.8692  -0.8298  -0.7850
    -0.7602  -0.7573  -0.7397  -0.7183  -0.6779  -0.5704  -0.5353  -0.5144
    -0.4810  -0.4631  -0.4119  -0.3882  -0.3791  -0.3405  -0.3120  -0.3022
    -0.2733  -0.2663  -0.2534  -0.2076  -0.1748  -0.1594  -0.1374  -0.0802
    -0.0192  -0.0022   0.0020   0.0989   0.1117   0.2025   0.2248   0.2543
     0.2999   0.3543   0.3953   0.4477   0.4724   0.4741   0.5205   0.5581
     0.5655   0.6065   0.6241   0.6807   0.6955   0.7415   0.7521   0.8062
     0.8234   0.8415   0.8563   0.8866   0.9511   0.9904   0.9961   1.0940
     1.1101   1.1237   1.2160   1.2175   1.2454   1.2481   1.3198   1.3381
     1.3404   1.3851   1.4295   1.4340   1.5070   1.5347   1.5512   1.5659
     1.5678   1.5908   1.6228   1.6590   1.7609   1.7698   1.8156   1.8436
     1.8592   1.9098   1.9918   2.0773   2.1155   2.2866   2.3740   2.6842
     2.7675   2.8699   2.9359   3.1255   3.3173   3.4521   3.5796   3.8253
     4.0966   4.1052   4.1944   4.2736   4.2993   4.4730   4.5568   4.7819
     4.8118   5.2788   5.3549   5.6330   5.7814   6.1540   6.2553   6.4659

          k = 0.2000-0.1155 0.0000 ( 89720 PWs)   bands (ev):

   -21.2488 -13.5994  -7.5314  -6.9423  -5.7725  -5.5712  -5.3882  -5.2897
    -5.1314  -4.8227  -4.7950  -4.6178  -4.5454  -4.5139  -4.4617  -4.4475
    -4.2892  -4.2549  -4.1276  -4.1036  -4.0847  -4.0546  -3.8742  -3.7881
    -3.7510  -3.6987  -3.6819  -3.6455  -3.5857  -3.5724  -3.5361  -3.4914
    -3.4810  -3.4634  -3.4047  -3.3835  -3.3619  -3.3460  -3.2957  -3.2843
    -3.1822  -3.1487  -3.0958  -3.0697  -3.0489  -2.9887  -2.8922  -2.8066
    -2.7670  -2.7509  -2.7337  -2.7179  -2.6644  -2.5800  -2.5541  -2.5043
    -2.4620  -2.4187  -2.3902  -2.3467  -2.2963  -2.1557  -2.0670  -2.0390
    -2.0141  -1.9816  -1.9732  -1.9340  -1.9127  -1.8843  -1.8583  -1.8189
    -1.8015  -1.7703  -1.7097  -1.6862  -1.6696  -1.6532  -1.6178  -1.5708
    -1.5348  -1.5064  -1.4854  -1.4756  -1.4503  -1.4331  -1.4237  -1.4070
    -1.3863  -1.3346  -1.2960  -1.2819  -1.2686  -1.2530  -1.2382  -1.2176
    -1.1817  -1.1729  -1.1329  -1.1095  -1.0932  -1.0824  -1.0683  -1.0498
    -1.0323  -1.0096  -1.0052  -0.9649  -0.9581  -0.8999  -0.8600  -0.8145
    -0.7844  -0.7478  -0.7347  -0.7162  -0.7138  -0.6939  -0.6592  -0.4913
    -0.4060  -0.3837  -0.3493  -0.3212  -0.3038  -0.2946  -0.2640  -0.2426
    -0.1547  -0.1297  -0.0840  -0.0479   0.0036   0.0316   0.0931   0.0995
     0.1180   0.1294   0.1781   0.2018   0.2384   0.2910   0.3095   0.3184
     0.3285   0.4014   0.4483   0.4567   0.4935   0.5209   0.5345   0.5800
     0.6142   0.6584   0.6828   0.6962   0.7135   0.7555   0.7673   0.8172
     0.8448   0.8887   0.9073   0.9188   0.9334   0.9731   0.9903   1.0222
     1.0563   1.1091   1.1308   1.1458   1.1807   1.2017   1.2211   1.2635
     1.2682   1.2938   1.3217   1.3298   1.3515   1.3765   1.4023   1.4089
     1.4880   1.5136   1.5384   1.5623   1.5898   1.6123   1.6316   1.6487
     1.6531   1.6702   1.6965   1.7764   1.8169   1.8236   1.8692   1.9013
     1.9815   2.0061   2.0783   2.3072   2.4574   2.6905   3.0925   3.1557
     3.3212   3.3585   4.1674   4.4652   4.7462   5.1374   5.2509   5.3138
     5.4927   5.5798   5.7365   5.9609   6.2942   6.4571   6.4946   6.6776

          k = 0.2000 0.1155 0.0000 ( 89720 PWs)   bands (ev):

   -21.2488 -13.5994  -7.5314  -6.9423  -5.7725  -5.5712  -5.3882  -5.2897
    -5.1313  -4.8228  -4.7951  -4.6178  -4.5454  -4.5138  -4.4618  -4.4476
    -4.2892  -4.2549  -4.1276  -4.1035  -4.0847  -4.0546  -3.8742  -3.7881
    -3.7510  -3.6987  -3.6820  -3.6456  -3.5857  -3.5723  -3.5361  -3.4914
    -3.4809  -3.4634  -3.4048  -3.3835  -3.3619  -3.3459  -3.2958  -3.2843
    -3.1821  -3.1487  -3.0958  -3.0697  -3.0489  -2.9888  -2.8922  -2.8067
    -2.7670  -2.7509  -2.7336  -2.7179  -2.6644  -2.5800  -2.5541  -2.5044
    -2.4621  -2.4187  -2.3902  -2.3466  -2.2964  -2.1558  -2.0670  -2.0390
    -2.0143  -1.9817  -1.9733  -1.9341  -1.9126  -1.8842  -1.8584  -1.8189
    -1.8014  -1.7703  -1.7098  -1.6862  -1.6698  -1.6532  -1.6177  -1.5704
    -1.5346  -1.5062  -1.4855  -1.4757  -1.4503  -1.4333  -1.4238  -1.4070
    -1.3864  -1.3344  -1.2958  -1.2819  -1.2689  -1.2532  -1.2382  -1.2176
    -1.1817  -1.1728  -1.1331  -1.1095  -1.0931  -1.0822  -1.0682  -1.0497
    -1.0323  -1.0096  -1.0052  -0.9650  -0.9582  -0.8999  -0.8599  -0.8144
    -0.7844  -0.7478  -0.7348  -0.7163  -0.7138  -0.6940  -0.6591  -0.4914
    -0.4060  -0.3836  -0.3493  -0.3213  -0.3038  -0.2945  -0.2640  -0.2426
    -0.1547  -0.1298  -0.0839  -0.0477   0.0036   0.0316   0.0928   0.0998
     0.1181   0.1294   0.1781   0.2018   0.2384   0.2911   0.3096   0.3184
     0.3285   0.4014   0.4484   0.4567   0.4935   0.5209   0.5346   0.5800
     0.6142   0.6583   0.6829   0.6961   0.7135   0.7555   0.7673   0.8172
     0.8448   0.8887   0.9073   0.9188   0.9333   0.9732   0.9902   1.0222
     1.0562   1.1091   1.1308   1.1459   1.1808   1.2017   1.2211   1.2635
     1.2682   1.2938   1.3216   1.3298   1.3516   1.3764   1.4024   1.4090
     1.4881   1.5136   1.5384   1.5623   1.5898   1.6122   1.6316   1.6485
     1.6530   1.6701   1.6964   1.7764   1.8168   1.8235   1.8692   1.9013
     1.9815   2.0061   2.0783   2.3071   2.4574   2.6902   3.0927   3.1558
     3.3213   3.3585   4.1676   4.4650   4.7460   5.1374   5.2507   5.3140
     5.4927   5.5800   5.7364   5.9610   6.2942   6.4571   6.4950   6.6774

          k = 0.2000 0.3464 0.0000 ( 89724 PWs)   bands (ev):

   -21.2488 -13.5986  -7.5063  -6.6781  -5.6619  -5.5874  -5.5295  -5.3643
    -5.2171  -5.1541  -4.4399  -4.4248  -4.3997  -4.3604  -4.3461  -4.3340
    -4.3020  -4.2533  -4.2084  -4.1681  -3.8840  -3.8440  -3.8361  -3.8191
    -3.7741  -3.7357  -3.7301  -3.6358  -3.6215  -3.5935  -3.5473  -3.5047
    -3.4891  -3.4749  -3.4455  -3.4006  -3.3627  -3.3498  -3.3094  -3.2777
    -3.2106  -3.1674  -3.1075  -2.9812  -2.9356  -2.8862  -2.8690  -2.8305
    -2.7981  -2.7698  -2.7351  -2.7069  -2.6659  -2.6226  -2.5645  -2.5411
    -2.4776  -2.4271  -2.3697  -2.3638  -2.3407  -2.3283  -2.2735  -2.1671
    -2.1154  -2.1051  -2.0779  -2.0432  -2.0041  -1.9848  -1.9472  -1.9325
    -1.8801  -1.8163  -1.8025  -1.7854  -1.7362  -1.7171  -1.7011  -1.6782
    -1.6109  -1.5581  -1.5435  -1.5329  -1.4770  -1.4602  -1.4432  -1.4263
    -1.4113  -1.3780  -1.3636  -1.3559  -1.3230  -1.3119  -1.2899  -1.2519
    -1.2368  -1.1902  -1.1640  -1.1416  -1.1105  -1.1006  -1.0882  -1.0655
    -1.0226  -1.0184  -0.9928  -0.9882  -0.9737  -0.9505  -0.9249  -0.9065
    -0.8733  -0.8086  -0.7893  -0.7370  -0.7098  -0.6716  -0.6249  -0.5548
    -0.5088  -0.4502  -0.4308  -0.3763  -0.3373  -0.3170  -0.2907  -0.2707
    -0.2539  -0.2257  -0.1759  -0.1556  -0.1312  -0.0785  -0.0364   0.0165
     0.0415   0.0760   0.1132   0.1248   0.1737   0.2319   0.2494   0.2925
     0.3136   0.3574   0.3670   0.4085   0.4433   0.4651   0.5059   0.5331
     0.5530   0.5999   0.6133   0.6415   0.6736   0.6887   0.6992   0.7384
     0.7786   0.7913   0.8498   0.8982   0.9659   1.0030   1.0961   1.1167
     1.1872   1.2051   1.2597   1.2786   1.2927   1.3299   1.3533   1.3655
     1.4011   1.4271   1.4404   1.4570   1.4755   1.4998   1.5119   1.5551
     1.5688   1.5924   1.6235   1.6516   1.6722   1.7133   1.8022   1.8430
     1.8721   1.8844   1.9225   1.9773   2.0494   2.0640   2.1135   2.3892
     2.5755   2.6122   2.6931   2.9879   3.1270   3.2093   3.4023   3.6931
     3.9018   3.9601   4.0471   4.1235   4.2669   4.7790   5.0828   5.2733
     5.3321   5.5185   5.6506   5.7342   5.9019   6.1117   6.1550   6.1745

          k = 0.2000-0.5774 0.0000 ( 89706 PWs)   bands (ev):

   -21.2488 -13.5981  -7.4928  -6.1990  -6.1376  -5.6227  -5.6050  -5.3284
    -5.2245  -4.8916  -4.8182  -4.4030  -4.3770  -4.2676  -4.2354  -4.1269
    -4.1080  -4.0267  -4.0015  -3.9932  -3.8972  -3.8904  -3.8724  -3.8533
    -3.8300  -3.7933  -3.7319  -3.7282  -3.6872  -3.6754  -3.6364  -3.5842
    -3.5409  -3.4563  -3.4317  -3.4024  -3.3697  -3.3059  -3.2884  -3.2480
    -3.2274  -3.1905  -3.0878  -3.0374  -2.9556  -2.9099  -2.8692  -2.8515
    -2.7871  -2.7389  -2.6927  -2.6783  -2.6077  -2.5214  -2.5120  -2.4830
    -2.4646  -2.4188  -2.3771  -2.3415  -2.3296  -2.3046  -2.2929  -2.2522
    -2.2220  -2.1902  -2.1802  -2.1514  -2.1104  -2.0702  -2.0363  -1.9823
    -1.9489  -1.9018  -1.8689  -1.8218  -1.7992  -1.7754  -1.7478  -1.7292
    -1.7077  -1.6900  -1.6470  -1.6024  -1.5899  -1.5460  -1.5378  -1.5228
    -1.4206  -1.3991  -1.3839  -1.3733  -1.3686  -1.3596  -1.3198  -1.2225
    -1.2129  -1.1813  -1.1406  -1.1254  -1.0998  -1.0890  -1.0683  -1.0502
    -1.0351  -1.0239  -1.0058  -0.9903  -0.9660  -0.9386  -0.9139  -0.9006
    -0.8992  -0.8557  -0.8491  -0.8036  -0.6882  -0.6335  -0.6051  -0.5128
    -0.4701  -0.4572  -0.4348  -0.4002  -0.3906  -0.3641  -0.3468  -0.3318
    -0.2918  -0.2436  -0.2171  -0.2096  -0.1523  -0.1126  -0.0905  -0.0505
    -0.0231   0.0178   0.0532   0.0935   0.1471   0.2155   0.2380   0.2661
     0.3056   0.3097   0.3430   0.3875   0.3957   0.4262   0.4322   0.4804
     0.5011   0.5661   0.5786   0.5814   0.6170   0.6557   0.6803   0.7514
     0.8129   0.8618   0.8925   1.0009   1.0113   1.0468   1.0786   1.1158
     1.1767   1.2082   1.2575   1.2748   1.3400   1.3535   1.3789   1.3907
     1.4307   1.4332   1.4667   1.5336   1.5365   1.5616   1.5818   1.6023
     1.6265   1.6319   1.7086   1.7303   1.7815   1.8222   1.8480   1.8631
     1.8882   1.9103   1.9301   2.0918   2.1626   2.3812   2.8137   3.0106
     3.0324   3.1751   3.2522   3.3137   3.3960   3.5024   3.7849   3.8905
     4.0499   4.1093   4.4206   4.4542   4.5719   4.6470   4.7571   4.8333
     4.9078   5.1182   5.1590   5.3020   5.5074   5.7281   5.9201   6.0488

          k = 0.2000-0.3464 0.0000 ( 89724 PWs)   bands (ev):

   -21.2488 -13.5986  -7.5063  -6.6781  -5.6619  -5.5874  -5.5295  -5.3643
    -5.2171  -5.1542  -4.4399  -4.4248  -4.3998  -4.3603  -4.3461  -4.3339
    -4.3020  -4.2533  -4.2084  -4.1681  -3.8841  -3.8440  -3.8363  -3.8191
    -3.7742  -3.7357  -3.7301  -3.6358  -3.6215  -3.5934  -3.5473  -3.5047
    -3.4890  -3.4748  -3.4454  -3.4006  -3.3628  -3.3497  -3.3095  -3.2776
    -3.2108  -3.1675  -3.1074  -2.9812  -2.9355  -2.8862  -2.8690  -2.8305
    -2.7981  -2.7698  -2.7351  -2.7068  -2.6659  -2.6226  -2.5645  -2.5412
    -2.4776  -2.4271  -2.3697  -2.3638  -2.3407  -2.3283  -2.2735  -2.1671
    -2.1153  -2.1049  -2.0778  -2.0430  -2.0041  -1.9848  -1.9472  -1.9323
    -1.8800  -1.8162  -1.8025  -1.7854  -1.7362  -1.7172  -1.7012  -1.6782
    -1.6108  -1.5583  -1.5435  -1.5330  -1.4770  -1.4603  -1.4431  -1.4263
    -1.4113  -1.3781  -1.3637  -1.3560  -1.3231  -1.3119  -1.2899  -1.2521
    -1.2371  -1.1901  -1.1640  -1.1417  -1.1105  -1.1005  -1.0881  -1.0655
    -1.0226  -1.0182  -0.9928  -0.9882  -0.9736  -0.9505  -0.9249  -0.9064
    -0.8735  -0.8086  -0.7893  -0.7369  -0.7099  -0.6717  -0.6250  -0.5548
    -0.5088  -0.4502  -0.4308  -0.3763  -0.3374  -0.3171  -0.2908  -0.2707
    -0.2539  -0.2257  -0.1759  -0.1557  -0.1311  -0.0784  -0.0364   0.0166
     0.0415   0.0760   0.1132   0.1247   0.1737   0.2320   0.2493   0.2924
     0.3136   0.3574   0.3670   0.4084   0.4433   0.4651   0.5058   0.5331
     0.5529   0.5999   0.6133   0.6416   0.6737   0.6887   0.6991   0.7385
     0.7785   0.7914   0.8498   0.8982   0.9659   1.0029   1.0961   1.1167
     1.1872   1.2052   1.2596   1.2786   1.2927   1.3299   1.3534   1.3654
     1.4011   1.4270   1.4404   1.4569   1.4755   1.4998   1.5120   1.5551
     1.5687   1.5924   1.6236   1.6516   1.6721   1.7132   1.8023   1.8432
     1.8723   1.8844   1.9226   1.9773   2.0494   2.0640   2.1135   2.3892
     2.5754   2.6121   2.6930   2.9881   3.1271   3.2095   3.4025   3.6931
     3.9018   3.9599   4.0471   4.1235   4.2670   4.7791   5.0829   5.2732
     5.3323   5.5185   5.6504   5.7345   5.9018   6.1117   6.1548   6.1743

          k = 0.4000-0.2309 0.0000 ( 89740 PWs)   bands (ev):

   -21.2488 -13.5986  -7.4799  -6.5578  -5.9574  -5.6184  -5.4556  -5.3075
    -5.1098  -4.8547  -4.8235  -4.6889  -4.4754  -4.3502  -4.2374  -4.2037
    -4.1454  -4.1292  -4.0115  -3.9973  -3.9356  -3.9195  -3.9068  -3.8258
    -3.8030  -3.7536  -3.7445  -3.7121  -3.7029  -3.6712  -3.6302  -3.5841
    -3.5642  -3.4834  -3.3501  -3.3253  -3.3130  -3.3072  -3.2440  -3.1656
    -3.1238  -3.0987  -3.0486  -3.0426  -2.9792  -2.9318  -2.8719  -2.8190
    -2.8019  -2.7481  -2.7130  -2.6812  -2.6639  -2.6114  -2.5822  -2.5763
    -2.5570  -2.5135  -2.4290  -2.3800  -2.3639  -2.3360  -2.2517  -2.2094
    -2.1808  -2.1587  -2.1464  -2.0630  -2.0075  -1.9827  -1.9641  -1.9249
    -1.8663  -1.8408  -1.8288  -1.8200  -1.7566  -1.7092  -1.6851  -1.6441
    -1.6274  -1.5993  -1.5560  -1.5365  -1.5124  -1.5030  -1.4660  -1.4510
    -1.4393  -1.4267  -1.4010  -1.3780  -1.3578  -1.3375  -1.3153  -1.2873
    -1.2708  -1.2516  -1.2187  -1.2117  -1.1245  -1.0818  -1.0692  -1.0538
    -1.0234  -1.0161  -0.9858  -0.9284  -0.8902  -0.8641  -0.8479  -0.7976
    -0.7733  -0.7560  -0.7477  -0.7253  -0.6945  -0.5970  -0.5140  -0.5097
    -0.4855  -0.4611  -0.4202  -0.3927  -0.3709  -0.3413  -0.3157  -0.2977
    -0.2819  -0.2786  -0.2546  -0.2112  -0.1791  -0.1713  -0.1466  -0.0697
    -0.0297  -0.0060   0.0057   0.0931   0.1279   0.1839   0.2328   0.2496
     0.3107   0.3640   0.3825   0.4387   0.4605   0.5009   0.5169   0.5567
     0.5874   0.6193   0.6318   0.6708   0.6916   0.7264   0.7782   0.8045
     0.8145   0.8431   0.8485   0.8748   0.9648   0.9910   1.0087   1.0892
     1.1197   1.1370   1.1834   1.2225   1.2440   1.2473   1.3088   1.3330
     1.3443   1.3874   1.4231   1.4330   1.5151   1.5362   1.5561   1.5617
     1.5687   1.5942   1.6264   1.6648   1.7587   1.7860   1.8206   1.8457
     1.8530   1.9082   1.9673   2.0664   2.0775   2.3074   2.4378   2.6729
     2.7704   2.8813   2.9139   3.1209   3.2985   3.4296   3.6064   3.8261
     4.0766   4.1227   4.2051   4.2711   4.3449   4.4719   4.6076   4.7690
     4.8544   5.2413   5.3641   5.5878   5.8270   5.9134   6.2089   6.4760

          k = 0.4000-0.0000 0.0000 ( 89724 PWs)   bands (ev):

   -21.2488 -13.5988  -7.4854  -6.6873  -5.6382  -5.6142  -5.5334  -5.4097
    -5.2189  -5.1316  -4.4398  -4.4330  -4.3957  -4.3655  -4.3463  -4.3316
    -4.2950  -4.2519  -4.2084  -4.1701  -3.8935  -3.8654  -3.8299  -3.8101
    -3.7631  -3.7276  -3.7146  -3.7014  -3.6236  -3.6133  -3.5703  -3.4972
    -3.4796  -3.4764  -3.4440  -3.4238  -3.3605  -3.3482  -3.3229  -3.2741
    -3.2197  -3.1962  -3.0247  -2.9491  -2.9072  -2.8902  -2.8607  -2.8081
    -2.7830  -2.7775  -2.7403  -2.6736  -2.6628  -2.5914  -2.5639  -2.5397
    -2.4933  -2.4096  -2.3892  -2.3684  -2.3548  -2.3240  -2.2791  -2.1641
    -2.1239  -2.1106  -2.0503  -2.0354  -2.0053  -1.9787  -1.9616  -1.9244
    -1.8707  -1.8524  -1.7876  -1.7478  -1.7326  -1.7159  -1.7109  -1.6627
    -1.6190  -1.5752  -1.5629  -1.5127  -1.4880  -1.4705  -1.4441  -1.4303
    -1.4007  -1.3842  -1.3677  -1.3548  -1.3302  -1.3130  -1.2901  -1.2728
    -1.2323  -1.1868  -1.1592  -1.1420  -1.1165  -1.1007  -1.0905  -1.0687
    -1.0219  -1.0154  -0.9923  -0.9818  -0.9758  -0.9416  -0.9249  -0.9176
    -0.8681  -0.8094  -0.7966  -0.7371  -0.6967  -0.6755  -0.6468  -0.5397
    -0.5123  -0.4776  -0.4312  -0.3812  -0.3517  -0.3003  -0.2925  -0.2687
    -0.2415  -0.2301  -0.1811  -0.1577  -0.1304  -0.1034  -0.0264   0.0086
     0.0308   0.0773   0.1086   0.1231   0.1797   0.2388   0.2639   0.2926
     0.3177   0.3394   0.3613   0.4259   0.4441   0.4623   0.5046   0.5468
     0.5607   0.6001   0.6113   0.6468   0.6776   0.6883   0.7059   0.7376
     0.7875   0.7986   0.8501   0.9013   0.9388   0.9938   1.1028   1.1415
     1.1655   1.2241   1.2534   1.2705   1.2972   1.3227   1.3598   1.3651
     1.4059   1.4242   1.4415   1.4535   1.4743   1.4968   1.5246   1.5541
     1.5725   1.5861   1.6208   1.6525   1.6820   1.7130   1.8152   1.8431
     1.8728   1.8911   1.9233   1.9729   2.0360   2.0556   2.1047   2.3442
     2.5796   2.5971   2.7150   2.9882   3.1700   3.2182   3.4130   3.6544
     3.9380   3.9838   4.0311   4.1028   4.2874   4.7930   5.0933   5.2433
     5.3817   5.4214   5.6204   5.7489   5.8954   6.0325   6.1531   6.2166

          k = 0.4000 0.2309 0.0000 ( 89740 PWs)   bands (ev):

   -21.2488 -13.5986  -7.4800  -6.5577  -5.9574  -5.6184  -5.4555  -5.3075
    -5.1098  -4.8547  -4.8236  -4.6889  -4.4753  -4.3502  -4.2374  -4.2037
    -4.1455  -4.1293  -4.0114  -3.9972  -3.9357  -3.9194  -3.9067  -3.8258
    -3.8029  -3.7537  -3.7446  -3.7120  -3.7028  -3.6711  -3.6303  -3.5841
    -3.5642  -3.4834  -3.3501  -3.3254  -3.3130  -3.3073  -3.2441  -3.1656
    -3.1239  -3.0987  -3.0487  -3.0427  -2.9792  -2.9318  -2.8719  -2.8191
    -2.8020  -2.7481  -2.7129  -2.6812  -2.6639  -2.6115  -2.5821  -2.5762
    -2.5570  -2.5135  -2.4290  -2.3801  -2.3639  -2.3361  -2.2519  -2.2095
    -2.1809  -2.1588  -2.1466  -2.0631  -2.0075  -1.9827  -1.9640  -1.9249
    -1.8662  -1.8408  -1.8289  -1.8199  -1.7564  -1.7091  -1.6847  -1.6440
    -1.6273  -1.5993  -1.5562  -1.5365  -1.5125  -1.5031  -1.4661  -1.4510
    -1.4394  -1.4267  -1.4009  -1.3778  -1.3578  -1.3377  -1.3152  -1.2874
    -1.2708  -1.2516  -1.2185  -1.2118  -1.1246  -1.0817  -1.0691  -1.0536
    -1.0232  -1.0161  -0.9855  -0.9283  -0.8901  -0.8641  -0.8478  -0.7975
    -0.7734  -0.7560  -0.7477  -0.7253  -0.6943  -0.5971  -0.5139  -0.5098
    -0.4854  -0.4612  -0.4202  -0.3928  -0.3711  -0.3414  -0.3158  -0.2977
    -0.2819  -0.2786  -0.2545  -0.2111  -0.1790  -0.1713  -0.1466  -0.0698
    -0.0297  -0.0058   0.0056   0.0932   0.1280   0.1840   0.2328   0.2496
     0.3107   0.3640   0.3825   0.4388   0.4605   0.5009   0.5169   0.5567
     0.5872   0.6192   0.6317   0.6707   0.6915   0.7263   0.7782   0.8045
     0.8145   0.8432   0.8485   0.8747   0.9647   0.9910   1.0087   1.0892
     1.1198   1.1370   1.1834   1.2225   1.2440   1.2473   1.3088   1.3330
     1.3444   1.3874   1.4233   1.4331   1.5151   1.5362   1.5561   1.5615
     1.5686   1.5942   1.6262   1.6646   1.7586   1.7859   1.8205   1.8456
     1.8528   1.9082   1.9674   2.0663   2.0775   2.3073   2.4380   2.6725
     2.7705   2.8813   2.9140   3.1209   3.2985   3.4297   3.6063   3.8259
     4.0766   4.1227   4.2052   4.2710   4.3449   4.4718   4.6075   4.7689
     4.8545   5.2413   5.3641   5.5878   5.8272   5.9135   6.2088   6.4762

          k = 0.4000-0.6928 0.0000 ( 89706 PWs)   bands (ev):

   -21.2488 -13.5983  -7.4722  -6.2159  -6.1436  -5.6481  -5.5477  -5.3626
    -5.2567  -4.8962  -4.7968  -4.4059  -4.3776  -4.2657  -4.2310  -4.1221
    -4.1031  -4.0351  -4.0034  -3.9838  -3.9075  -3.8982  -3.8744  -3.8534
    -3.8300  -3.8250  -3.7449  -3.7124  -3.6870  -3.6679  -3.6478  -3.6301
    -3.5471  -3.4924  -3.4272  -3.4098  -3.3781  -3.2978  -3.2624  -3.2387
    -3.2184  -3.1170  -3.0556  -3.0416  -2.9453  -2.9074  -2.8545  -2.8366
    -2.7922  -2.7470  -2.6964  -2.6656  -2.5931  -2.5382  -2.5155  -2.4896
    -2.4622  -2.4258  -2.3649  -2.3590  -2.3170  -2.3000  -2.2723  -2.2484
    -2.2168  -2.1982  -2.1705  -2.1650  -2.0969  -2.0802  -2.0258  -1.9767
    -1.9587  -1.9292  -1.8374  -1.8196  -1.7892  -1.7833  -1.7477  -1.7330
    -1.7211  -1.6844  -1.6418  -1.6021  -1.5832  -1.5465  -1.5405  -1.5045
    -1.4460  -1.3953  -1.3931  -1.3821  -1.3729  -1.3592  -1.3213  -1.2258
    -1.2114  -1.1726  -1.1368  -1.1309  -1.1016  -1.0955  -1.0713  -1.0597
    -1.0400  -1.0157  -1.0064  -0.9748  -0.9570  -0.9330  -0.9115  -0.9056
    -0.8946  -0.8618  -0.8398  -0.8267  -0.6914  -0.6320  -0.6139  -0.5365
    -0.4848  -0.4558  -0.4464  -0.4060  -0.3973  -0.3647  -0.3462  -0.3093
    -0.2682  -0.2479  -0.2220  -0.2153  -0.1476  -0.1326  -0.0711  -0.0492
    -0.0299   0.0098   0.0595   0.1037   0.1676   0.2017   0.2636   0.2743
     0.2994   0.3133   0.3407   0.3718   0.3959   0.4144   0.4393   0.4628
     0.5106   0.5644   0.5863   0.5892   0.6105   0.6548   0.6950   0.7300
     0.7881   0.8681   0.9010   0.9617   1.0236   1.0483   1.0795   1.1370
     1.1796   1.2054   1.2618   1.2823   1.3417   1.3496   1.3785   1.3986
     1.4287   1.4431   1.4761   1.5302   1.5397   1.5538   1.5884   1.5939
     1.6205   1.6361   1.7046   1.7296   1.7775   1.8258   1.8506   1.8646
     1.8789   1.9156   1.9541   2.0905   2.1895   2.3236   2.7803   3.0010
     3.0384   3.2204   3.2376   3.3199   3.4090   3.5088   3.7706   3.9048
     4.0352   4.1423   4.3937   4.5005   4.5576   4.6314   4.8009   4.8688
     4.9121   5.0109   5.2296   5.2957   5.4457   5.7650   5.9031   6.0440

          k = 0.4000-0.4619 0.0000 ( 89706 PWs)   bands (ev):

   -21.2488 -13.5983  -7.4722  -6.2159  -6.1436  -5.6481  -5.5477  -5.3627
    -5.2566  -4.8963  -4.7968  -4.4059  -4.3777  -4.2657  -4.2310  -4.1220
    -4.1031  -4.0351  -4.0035  -3.9838  -3.9075  -3.8982  -3.8745  -3.8533
    -3.8300  -3.8250  -3.7449  -3.7125  -3.6870  -3.6678  -3.6479  -3.6301
    -3.5471  -3.4924  -3.4271  -3.4099  -3.3780  -3.2978  -3.2623  -3.2386
    -3.2184  -3.1170  -3.0556  -3.0415  -2.9453  -2.9073  -2.8546  -2.8366
    -2.7922  -2.7469  -2.6964  -2.6655  -2.5932  -2.5383  -2.5155  -2.4897
    -2.4622  -2.4256  -2.3648  -2.3587  -2.3170  -2.3000  -2.2722  -2.2484
    -2.2168  -2.1981  -2.1705  -2.1650  -2.0969  -2.0801  -2.0258  -1.9767
    -1.9588  -1.9292  -1.8373  -1.8196  -1.7892  -1.7835  -1.7479  -1.7329
    -1.7213  -1.6843  -1.6417  -1.6021  -1.5832  -1.5465  -1.5405  -1.5045
    -1.4460  -1.3954  -1.3930  -1.3821  -1.3729  -1.3592  -1.3214  -1.2259
    -1.2113  -1.1726  -1.1368  -1.1308  -1.1016  -1.0957  -1.0714  -1.0598
    -1.0402  -1.0157  -1.0065  -0.9746  -0.9570  -0.9329  -0.9115  -0.9057
    -0.8947  -0.8619  -0.8399  -0.8267  -0.6916  -0.6320  -0.6140  -0.5365
    -0.4848  -0.4559  -0.4464  -0.4060  -0.3971  -0.3647  -0.3462  -0.3093
    -0.2681  -0.2479  -0.2220  -0.2153  -0.1477  -0.1326  -0.0711  -0.0492
    -0.0300   0.0099   0.0594   0.1037   0.1678   0.2018   0.2636   0.2743
     0.2993   0.3133   0.3408   0.3718   0.3960   0.4143   0.4393   0.4628
     0.5106   0.5644   0.5862   0.5892   0.6105   0.6548   0.6951   0.7297
     0.7880   0.8682   0.9010   0.9616   1.0237   1.0484   1.0795   1.1371
     1.1796   1.2054   1.2618   1.2824   1.3417   1.3496   1.3784   1.3986
     1.4286   1.4431   1.4761   1.5302   1.5397   1.5538   1.5884   1.5939
     1.6203   1.6360   1.7046   1.7295   1.7775   1.8259   1.8508   1.8647
     1.8790   1.9156   1.9542   2.0905   2.1893   2.3238   2.7803   3.0010
     3.0383   3.2203   3.2375   3.3199   3.4090   3.5088   3.7707   3.9050
     4.0352   4.1424   4.3936   4.5005   4.5577   4.6314   4.8015   4.8686
     4.9120   5.0108   5.2297   5.2957   5.4456   5.7650   5.9031   6.0442

     the Fermi energy is     1.6358 ev

!    total energy              =  -27834.69211854 Ry

     total all-electron energy =  -1326945.832629 Ry
     estimated scf accuracy    <       0.00000012 Ry
     smearing contrib. (-TS)   =       0.00217010 Ry
     internal energy E=F+TS    =  -27834.69428864 Ry

     The total energy is F=E-TS. E is the sum of the following terms:
     one-electron contribution =  -27432.70116012 Ry
     hartree contribution      =   14016.61237940 Ry
     xc contribution           =    -907.20568464 Ry
     ewald contribution        =   11985.84782149 Ry
     one-center paw contrib.   =  -25497.24764478 Ry

     convergence has been achieved in  16 iterations

     negative rho (up, down):  1.375E-02 0.000E+00

     Forces acting on atoms (cartesian axes, Ry/au):

     atom    1 type  1   force =    -0.00114230    0.00042644   -0.00469540
     atom    2 type  1   force =     0.00112831    0.00044780   -0.00469034
     atom    3 type  1   force =    -0.00000701   -0.00023363   -0.00384490
     atom    4 type  1   force =     0.00000349   -0.00079714   -0.00315709
     atom    5 type  1   force =     0.00013375    0.00011562   -0.00401013
     atom    6 type  1   force =    -0.00016290    0.00010557   -0.00403069
     atom    7 type  1   force =     0.00017194   -0.00004885   -0.00333525
     atom    8 type  1   force =    -0.00002515   -0.00171359   -0.00574017
     atom    9 type  1   force =    -0.00017309   -0.00004536   -0.00334208
     atom   10 type  1   force =    -0.00000563    0.00115537    0.00077097
     atom   11 type  1   force =    -0.00084094   -0.00056805    0.00848369
     atom   12 type  1   force =     0.00077746   -0.00057535    0.00846616
     atom   13 type  1   force =     0.00109537   -0.00029974    0.00690639
     atom   14 type  1   force =    -0.00004424    0.00144248    0.00469232
     atom   15 type  1   force =    -0.00112677   -0.00029453    0.00691579
     atom   16 type  1   force =    -0.00084947    0.00122574   -0.00150156
     atom   17 type  1   force =     0.00082081    0.00125209   -0.00148298
     atom   18 type  1   force =    -0.00002298    0.00291554    0.00834766
     atom   19 type  1   force =     0.00008999   -0.00004817   -0.00008499
     atom   20 type  1   force =    -0.00008158   -0.00003633   -0.00005528
     atom   21 type  1   force =    -0.00000101    0.00024010    0.00001630
     atom   22 type  1   force =    -0.00000198   -0.00029244   -0.00004005
     atom   23 type  1   force =    -0.00047569   -0.00015308   -0.00001129
     atom   24 type  1   force =     0.00047917   -0.00015097   -0.00003795
     atom   25 type  1   force =    -0.00040451    0.00003258   -0.00001817
     atom   26 type  1   force =    -0.00001842   -0.00026672   -0.00066649
     atom   27 type  1   force =     0.00035536    0.00002252   -0.00003280
     atom   28 type  1   force =    -0.00016885   -0.00004223    0.00008090
     atom   29 type  1   force =     0.00016673   -0.00003101    0.00008785
     atom   30 type  1   force =    -0.00000419   -0.00088236    0.00111042
     atom   31 type  1   force =     0.00001869   -0.00036336   -0.00000021
     atom   32 type  1   force =     0.00023197    0.00006091   -0.00000128
     atom   33 type  1   force =    -0.00028918    0.00005663    0.00003077
     atom   34 type  1   force =    -0.00047065   -0.00015269    0.00002788
     atom   35 type  1   force =    -0.00001463   -0.00071987   -0.00005295
     atom   36 type  1   force =     0.00049311   -0.00012865    0.00000617
     atom   37 type  2   force =     0.00076721   -0.00126363    0.00023899
     atom   38 type  2   force =    -0.00037422   -0.01282657    0.02309800
     atom   39 type  3   force =    -0.00002795    0.01243493   -0.02844820

     Total force =     0.040856     Total SCF correction =     0.001118

     negative rho (up, down):  1.375E-02 0.000E+00

     negative rho (up, down):  1.375E-02 0.000E+00

     negative rho (up, down):  1.375E-02 0.000E+00

     negative rho (up, down):  1.375E-02 0.000E+00

     negative rho (up, down):  1.375E-02 0.000E+00

     negative rho (up, down):  1.375E-02 0.000E+00

     negative rho (up, down):  1.375E-02 0.000E+00

     negative rho (up, down):  1.375E-02 0.000E+00

     negative rho (up, down):  1.375E-02 0.000E+00

     negative rho (up, down):  1.375E-02 0.000E+00

     negative rho (up, down):  1.375E-02 0.000E+00

     negative rho (up, down):  1.375E-02 0.000E+00

     negative rho (up, down):  1.375E-02 0.000E+00

     negative rho (up, down):  1.375E-02 0.000E+00

     negative rho (up, down):  1.375E-02 0.000E+00

     negative rho (up, down):  1.375E-02 0.000E+00

     negative rho (up, down):  1.375E-02 0.000E+00

     negative rho (up, down):  1.375E-02 0.000E+00

     negative rho (up, down):  1.375E-02 0.000E+00

     negative rho (up, down):  1.375E-02 0.000E+00

     negative rho (up, down):  1.375E-02 0.000E+00

     negative rho (up, down):  1.375E-02 0.000E+00

     negative rho (up, down):  1.375E-02 0.000E+00

     negative rho (up, down):  1.375E-02 0.000E+00

     negative rho (up, down):  1.375E-02 0.000E+00

     negative rho (up, down):  1.375E-02 0.000E+00

     negative rho (up, down):  1.375E-02 0.000E+00

     negative rho (up, down):  1.375E-02 0.000E+00

     negative rho (up, down):  1.375E-02 0.000E+00

     negative rho (up, down):  1.375E-02 0.000E+00

     negative rho (up, down):  1.375E-02 0.000E+00

     negative rho (up, down):  1.375E-02 0.000E+00

     negative rho (up, down):  1.375E-02 0.000E+00

     negative rho (up, down):  1.375E-02 0.000E+00
 BEEFens 2000 ensemble energies
             -0.606926358356137E+02
             -0.362425344680094E+01
             -0.158592662956952E+02
              0.429747657470642E+02
             -0.221292699297472E+02
             -0.205621271101684E+02
             -0.352191299901070E+02
             -0.865426452245670E+02
             -0.465979923991461E+02
             -0.473697831815502E+02
             -0.369533219026829E+02
              0.224433179390795E+01
              0.406408211802867E+01
              0.767065232313740E+01
              0.266099714051705E+01
              0.475215297023209E+02
             -0.209232507748913E+02
             -0.231048669688701E+02
              0.192879910670780E+02
             -0.112466269750476E+03
              0.536746377155490E+02
             -0.290268949586977E+02
             -0.334969803614466E+01
             -0.114308488502044E+02
             -0.888987879462729E+01
             -0.468172815561229E+01
              0.883473856542536E+02
             -0.186586494305153E+02
             -0.903316495691024E+01
             -0.518631805243884E+02
              0.816879940006029E+02
             -0.188104592047958E+02
             -0.375328991478161E+02
              0.249868708450282E+02
             -0.284793744402521E+01
              0.163689742123269E+02
             -0.488008234471766E+01
              0.108529999633603E+02
              0.287767314578520E+02
             -0.103393139464378E+03
              0.558682181060033E+02
              0.142356800926812E+02
             -0.166778168638160E+01
             -0.362103540684455E+02
              0.123197283378877E+02
             -0.146539038959669E+02
              0.398521349720625E+02
              0.365256456216463E+02
             -0.308786876496606E+02
             -0.275331006085356E+02
             -0.328503807572237E+02
             -0.352124607146332E+02
              0.135665984209784E+02
             -0.491352629289909E+02
              0.115480962878140E+02
              0.623411041947175E+02
              0.635336339987665E+02
              0.356164193104911E+02
              0.154425704745465E+02
              0.270279852561674E+02
              0.891845740956506E+02
              0.213374806498288E+02
             -0.549059864736803E+02
             -0.157410422153976E+02
             -0.235904945951821E+02
              0.630445374811974E+02
             -0.774472416029972E+02
             -0.672271569868677E+02
             -0.259055359926985E+02
             -0.639087516503957E+01
             -0.471772070810819E+02
              0.270825511660210E+02
              0.801138487537276E+01
              0.867327776228944E+01
             -0.397323698576829E+02
             -0.347113578173548E+02
             -0.541989775837286E+02
              0.391142104738319E+02
             -0.296002713825932E+02
              0.264882665804977E+02
             -0.712581858254265E+01
             -0.318482093707111E+02
             -0.577327209357635E+02
             -0.176972051008173E+02
             -0.905948322248537E+01
             -0.125188193902065E+02
              0.412401787091826E+02
              0.682596344905419E+02
             -0.385702499016969E+02
             -0.795444104600561E+02
             -0.219817228891904E+02
              0.111619611204141E+03
             -0.592635253746624E+02
              0.356487745988679E+02
             -0.957089725212325E+01
             -0.664016555315114E+02
              0.254613460634767E+02
              0.398770475426402E+02
             -0.198890119611815E+02
              0.400741085118332E+02
             -0.296465422711499E+02
             -0.477955208229349E+02
              0.865952353518912E+02
              0.454446348533622E+02
              0.337163284756304E+02
              0.146666835779230E+02
              0.205472234580403E+02
              0.857211835832184E+02
             -0.256781613725227E+02
              0.788066747979016E+01
             -0.142528014741668E+03
              0.181585978621436E+02
             -0.716928025249735E+02
              0.151028349796525E+02
              0.204691665645237E+02
             -0.332874548660634E+02
             -0.557809123529689E+02
              0.657627839312568E+01
             -0.304226506986169E+02
              0.307857286764523E+02
             -0.530283955017893E+02
              0.174434664877822E+01
             -0.357178517669047E+02
             -0.424795037505766E+01
             -0.108699863329241E+01
              0.180683092318250E+02
              0.143402291185873E+01
             -0.653376331391951E+01
              0.590312314660031E+02
              0.908813382918719E+02
              0.484350135917942E+02
              0.831679616139693E+02
             -0.115205604001844E+02
              0.143543768390552E+02
              0.541596606999767E+02
             -0.111645683911813E+02
             -0.736152669853369E+02
             -0.383903206086735E+02
             -0.522027070575342E+02
             -0.276899077981914E+02
              0.327396536392096E+02
             -0.116857253077166E+03
             -0.187442641055924E+02
              0.414219787133431E+02
             -0.386497934317459E+02
             -0.366028403003045E+02
              0.543951980647837E+02
              0.401000559277809E+02
             -0.354267448441093E+02
              0.136901798997097E+02
             -0.273232054875075E+02
              0.343390729042198E+02
              0.447659563003111E+01
              0.211627660725521E+02
             -0.885534447836651E+02
             -0.480624997981033E+02
             -0.994827191935065E+01
              0.325662636044598E+01
             -0.366792071363411E+02
              0.106070671119410E+03
             -0.231424998172500E+02
             -0.399037524801933E+02
              0.389332185854526E+02
             -0.494816745117137E+02
             -0.363244017878108E+02
              0.324890870125316E+02
              0.124419710597222E+02
              0.164475375613727E+02
              0.116229536627962E+02
             -0.132936516067432E+02
              0.225662872211594E+02
              0.590653704182191E+02
             -0.312146385324372E+02
              0.162456661619882E+02
              0.935052102597414E+02
              0.340911657520953E+02
             -0.730808933945059E+01
             -0.188558300393252E+02
              0.153437245358468E+03
             -0.163852392914729E+02
              0.363265828642170E+02
              0.194196110442511E+02
              0.362370663865844E+02
              0.892740519545674E+02
              0.543481478717885E+02
             -0.241141310153265E+01
              0.227674105320244E+02
              0.485045924033450E+02
              0.363896527526397E+02
             -0.525643133110470E+02
              0.936521890633172E+02
             -0.826059149381818E+02
             -0.198696425451739E+02
              0.583411508722027E+02
              0.669835382150090E+01
              0.790352724112176E+01
              0.341467987010596E+02
              0.299574072979473E+02
              0.353990918841827E+02
             -0.638176042895649E+02
              0.289058284543216E+01
             -0.297814694679005E+02
             -0.874719961719127E+01
             -0.145240581804342E+01
             -0.720596719717446E+01
             -0.414612109411894E+01
              0.859827528135528E+02
             -0.101241892495402E+02
             -0.276664559492076E+02
             -0.497489288577995E+01
              0.139914222594448E+02
             -0.564280976956044E+02
             -0.406794593344915E+02
             -0.382404040097600E+02
             -0.630683258688069E+02
             -0.169817084631025E+02
             -0.447802135812458E+02
              0.163637533286113E+02
             -0.242189244872267E+01
             -0.104336921236956E+02
             -0.935401163541547E+01
              0.808991525841617E+01
             -0.243533687682635E+02
              0.689651240824583E+02
             -0.807313015655886E+02
             -0.141195667839469E+02
             -0.174359196519058E+02
              0.182123853134217E+02
              0.214143951504306E+02
             -0.464046851005039E+02
             -0.202390489854082E+02
              0.441048650645183E+02
             -0.276498649967857E+02
              0.187013722680935E+02
              0.383308432137988E+02
             -0.323153842475324E+01
              0.114233183522632E+03
             -0.230865343163999E+02
             -0.341362856275559E+02
              0.581463040730182E+01
             -0.228137045664425E+02
              0.527885586077106E+02
             -0.336862994973878E+02
              0.106335809826478E+02
              0.641646987298965E+02
             -0.126422811170878E+02
              0.120318980115883E+03
              0.125954226419096E+03
             -0.650181387717575E+02
              0.590894191843354E+02
              0.166216802765184E+02
             -0.517914902777962E+02
              0.216536868190565E+02
              0.353576166983919E+02
              0.362532810669165E+02
              0.135818313764554E+01
              0.159321345049982E+02
              0.695794058746508E+02
             -0.247069112092181E+02
              0.181492736245478E+02
              0.739893424566226E+02
             -0.372907817329750E+02
             -0.129249898669901E+02
              0.508517724109412E+02
              0.297469556348717E+02
              0.781067583816978E+02
              0.222402523393297E+02
              0.621322729700677E+01
              0.280640140051628E+02
              0.383342076172885E+02
             -0.471444245558002E+02
              0.328433804159141E+01
              0.129142727735265E+02
              0.113748971195428E+02
              0.220468257577511E+02
             -0.574935421697880E+02
              0.366575137311254E+02
             -0.444333097869008E+02
             -0.347496754905860E+02
              0.177725285486160E+02
             -0.181803479975505E+02
              0.555112154456488E+02
             -0.257016250669713E+02
              0.266862332916518E+02
              0.368593841095631E+02
              0.829883224197152E+02
              0.575121690771552E+02
              0.461842933725380E+02
             -0.106345274566300E+02
             -0.389063552798046E+01
             -0.332221676386042E+02
              0.750793808617444E+02
              0.797652503460664E+02
              0.361997639506496E+02
             -0.191841201710109E+02
              0.512272628386280E+02
             -0.163371586620569E+02
              0.215336962493196E+02
              0.614550671418432E+02
              0.215533001605095E+01
             -0.104388291608784E+02
             -0.283564744667689E+02
             -0.511336787990251E+02
              0.945984977301146E+02
              0.439453869591177E+02
             -0.559104029079485E+02
             -0.962031699674782E+01
              0.250246805085180E+02
             -0.998320195646392E+01
              0.592395429641202E+02
              0.152335588289061E+02
              0.799759995028794E+02
              0.279313365998085E+02
             -0.264677278811664E+02
              0.249607313082342E+02
             -0.501694931067726E+01
             -0.324326332170267E+02
              0.133415291471615E+02
              0.206200153601651E+02
              0.933099736579942E+02
              0.798000387751337E+02
              0.551094391081411E+02
              0.731597638488149E+02
              0.799588886118727E+01
             -0.273973479685274E+02
              0.163313192281259E+02
             -0.368347918855375E+02
             -0.476248925669122E+02
             -0.564205396180068E+02
             -0.266532519222710E+02
             -0.109773189279534E+03
             -0.291265751104058E+02
             -0.837672217518026E+02
              0.210054049489891E+02
             -0.477355361016904E+02
              0.396643461255250E+02
             -0.941591850427354E+02
             -0.330379298470876E+02
              0.549575781047133E+02
              0.207930519050086E+02
             -0.830918407899879E+02
              0.631981429325733E+02
             -0.256785436471336E+02
              0.512698960108546E+02
             -0.243111853710524E+02
             -0.751841785725338E+02
              0.112005242120624E+02
             -0.611653427600251E+02
             -0.168828249590273E+02
             -0.145989312967541E+01
              0.418757812638724E+02
              0.127086679656695E+03
             -0.462239912231443E+02
             -0.362945982602290E+02
             -0.954487250453496E+00
             -0.130595508228800E+02
             -0.823186805762145E+02
             -0.597267030367616E+02
              0.517788606490719E+02
             -0.289499944327125E+02
              0.169046672511530E+02
             -0.489779447989013E+02
             -0.131810563110571E+02
             -0.437570658793005E+02
              0.566075189709763E+02
              0.151674555017890E+02
             -0.231756311799168E+02
             -0.126661363613044E+02
              0.665881139755903E+01
             -0.620161307717342E+01
              0.442030526143756E+02
             -0.252225008504230E+02
              0.271223944723283E+01
              0.339374331748050E+02
              0.171778158635907E+02
             -0.159464338716782E+02
              0.156390111310722E+03
              0.537880158814898E+02
              0.115399375346752E+01
              0.161952098162749E+02
             -0.615072670549748E+02
              0.315102386967749E+02
             -0.722116693280401E+02
             -0.252057529950057E+02
             -0.522905513878067E+02
             -0.220140581145274E+02
              0.569384131073294E+02
             -0.537324809654151E+02
              0.160537310513510E+02
             -0.407154567665475E+01
              0.389359392075121E+01
             -0.434386743453214E+02
             -0.478778031020688E+02
             -0.396450135402733E+01
             -0.425927192280578E+02
             -0.217573051192427E+02
             -0.438685152077185E+02
             -0.119534691138563E+02
             -0.359283630162362E+02
             -0.516997316667818E+02
              0.213105042499498E+02
             -0.209766220408773E+02
              0.187707300070426E+02
              0.976735788289974E+01
             -0.738353247303313E+02
             -0.548719846636886E+02
             -0.397879255674958E+02
              0.354750230912296E+02
              0.273214390036799E+01
             -0.627312509959473E+02
              0.585944632546171E+02
             -0.401402725291031E+02
              0.544896753763651E+02
             -0.289567764533898E+02
             -0.446370107408702E+02
              0.299068864535101E+02
             -0.658123037171078E+02
             -0.380434727486473E+02
              0.673379989805931E+02
              0.204033984922685E+02
             -0.359854926780280E+02
              0.489539425569436E+02
             -0.174050734502745E+02
             -0.322892334442513E+02
             -0.302062519281856E+02
             -0.500921185847302E+02
              0.249262067757580E+02
             -0.933700897020814E+02
             -0.841130343829029E+02
             -0.733966512256893E+01
             -0.307043777135077E+02
             -0.575729588955723E+02
              0.722267863801981E+02
              0.131601665989206E+03
             -0.361693312662823E+02
             -0.254560656477514E+01
             -0.637682395446203E+02
              0.651049965010417E+02
              0.170693954282974E+02
             -0.181357649193877E+02
             -0.410445743527467E+02
              0.148873808040863E+02
             -0.586755766898517E+02
             -0.198001670912834E+02
             -0.905577748420706E+02
              0.337099927058088E+02
              0.169325608702032E+02
              0.186004704697893E+01
             -0.702589557322858E+01
             -0.329310965602097E+02
             -0.756547890261675E+01
              0.125566409863625E+03
             -0.199305942742886E+02
             -0.437387339815600E+02
             -0.684262506192956E+02
              0.109180666285319E+02
             -0.342132220583465E+02
              0.588711627743976E+01
              0.261547613488877E+02
              0.102126942513667E+02
              0.277819032343119E+02
              0.119683388556258E+02
              0.630126180563771E+02
              0.317414464378039E+02
             -0.326604617637193E+02
              0.355224466408917E+02
              0.379847389469484E+02
              0.120979946539821E+02
              0.487469514265787E+02
             -0.224504661813044E+02
              0.766329734781484E+02
              0.172097452540775E+02
             -0.272241919304945E+02
             -0.723165712854536E+01
             -0.186509440252919E+02
              0.262393604148825E+02
             -0.235019789679725E+02
             -0.789573807552131E-01
             -0.848442039948202E+01
              0.810489773963491E+02
              0.500264808470396E+02
             -0.688050088648525E+02
             -0.473217570897486E+01
             -0.556105009361472E+02
             -0.159952440797182E+02
             -0.268390556879313E+02
              0.374574247521207E+01
              0.576295392903116E+00
             -0.257518735914769E+02
              0.811312958940044E+01
             -0.602749778258968E+01
             -0.128836505995924E+02
              0.859665377042834E+02
              0.182227642978027E+02
             -0.807284959604971E+02
             -0.458968061270452E+02
              0.945250003375179E+02
              0.277986579814084E+02
             -0.106890812130248E+02
              0.104622727859981E+03
             -0.195394184836885E+02
             -0.123291017651495E+02
             -0.536823207263399E+01
              0.107342293881018E+02
              0.272264455146288E+02
              0.781239315481290E+01
              0.305550966946757E+02
             -0.188403978719553E+02
             -0.303457220622991E+02
             -0.418098826990940E+02
             -0.477233231423579E+02
              0.464564338320080E+02
              0.126962219957058E+02
              0.387814846121687E+02
              0.133513955809635E+02
              0.856104158111495E+02
              0.156450659090659E+02
             -0.846706424131897E+02
             -0.334682655931339E+02
              0.134231849839930E+02
             -0.303049530549758E+02
              0.626854732423500E+02
             -0.886324849434800E+01
              0.149019449756451E+02
              0.497361398656015E+02
             -0.707693581740456E+02
              0.149848966048122E+03
              0.208742921120909E+02
              0.271547284240809E+02
              0.347704461852817E+02
              0.103894162647259E+02
             -0.158722596066286E+01
              0.358897171568353E+02
             -0.357168488359804E+02
              0.773551775965929E+02
              0.685019105554282E+02
             -0.406219375780099E+02
              0.149503454628348E+02
              0.670606516395612E+02
             -0.224223583197429E+02
              0.154253173488008E+02
              0.435898761911470E+02
              0.422802265618462E+02
             -0.785419173779434E+02
             -0.153061530643741E+02
             -0.356817605295774E+02
             -0.148328710758381E+01
             -0.763426245899836E+01
             -0.550080666418501E+01
             -0.181257341538997E+02
             -0.293664217939443E+02
              0.629291462081093E+01
              0.112085110783893E+02
              0.536011898792323E+02
             -0.390320430214989E+02
              0.374111373394808E+02
              0.438606326942098E+02
             -0.187282650513146E+02
              0.873404171009230E+02
             -0.698407583982653E+02
             -0.103267032073865E+03
             -0.657879970985502E+01
             -0.268880470094314E+01
              0.387733889491722E+01
              0.789884506053477E+02
             -0.107416442824635E+02
              0.416815949265749E+02
              0.443437186912963E+02
              0.385705627280490E+02
             -0.994827342477822E+01
              0.628462029552850E+02
             -0.133752060317455E+02
             -0.307358215511022E+02
             -0.480237688634327E+02
              0.585067470302667E+01
              0.370222698618399E+02
             -0.605563932427057E+01
              0.393690754433431E+02
             -0.177976372484153E+01
              0.656083572379513E+02
              0.187898446259622E+02
              0.999317492324660E+01
             -0.122052894595193E+02
              0.332590528975038E+02
              0.362943409788734E+02
              0.233194194701878E+02
             -0.508804112555026E+00
             -0.550801767999640E+02
              0.260933581595791E+02
              0.175318110993408E+02
              0.403188796147093E+02
              0.272584605440736E+02
              0.372710062188822E+02
             -0.604245619876045E+01
              0.250789977625224E+02
             -0.298643546006504E+02
             -0.197207706688403E+01
             -0.569819412223218E+02
             -0.308296402873456E+02
              0.379013318057737E+02
             -0.936395765095371E+02
              0.294922289534179E+02
              0.184207718128575E+02
              0.840658681332562E+02
             -0.301457830812737E+02
              0.329430102784218E+02
             -0.137977578040125E+02
             -0.464326272633728E+02
             -0.762701901366107E+02
             -0.522618092428199E+01
             -0.860435588572209E+02
              0.200323700153592E+02
             -0.247700240431131E+02
              0.305913366223609E+02
              0.236787929635714E+02
             -0.240995540567336E+02
             -0.265156835330421E+02
              0.391234574581173E+02
             -0.588422499427160E+02
             -0.116622132862233E+02
             -0.196356155525865E+02
              0.212507831711668E+02
             -0.897811589896037E+01
              0.364545301896271E+01
             -0.201044229541796E+02
              0.559348813938997E+02
             -0.439098412765377E+02
              0.789833777716171E+01
              0.585658583476217E+02
             -0.323361912008720E+02
              0.359178706379109E+01
             -0.885822566842444E+01
             -0.670267870091194E+02
             -0.483585565965697E+02
             -0.864805924483063E+01
              0.240773437598292E+02
              0.302408424351067E+02
              0.858950423523635E+01
             -0.414135751684751E+01
              0.152342161158048E+02
             -0.440560797685126E+02
              0.335990754712162E+01
             -0.531369718986928E+02
             -0.324967709191442E+02
              0.474972261301534E+02
             -0.295400595781758E+02
              0.622564385006211E+02
             -0.214509966090789E+02
              0.354236986747777E+02
              0.241895774805360E+02
             -0.644538014900968E+02
             -0.280965151317838E+02
              0.932567426314870E+01
             -0.371768947651762E+02
             -0.339826090606468E+02
             -0.830492788191982E+02
             -0.539862879062305E+02
             -0.510947628116434E+02
             -0.415826227789105E+02
             -0.974557505656264E+00
              0.992962327943795E+01
              0.984799130455315E+00
              0.152989217025367E+02
             -0.549797732595805E+02
              0.141801922166263E+02
              0.256282124796376E+02
             -0.667275345416810E+02
             -0.702752139470175E+02
             -0.431505476618958E+02
             -0.171658937348989E+02
              0.178922487426848E+02
              0.457414694245313E+01
             -0.426631223247970E+02
              0.367002860797309E+02
             -0.216058305101902E+02
              0.517873591050007E+02
             -0.887899643377864E+02
              0.597799553778074E+02
             -0.207837551824231E+01
             -0.368472227659174E+02
             -0.216750101198748E+02
              0.472620839862290E+01
              0.374763087547196E+02
             -0.756971125738922E+02
             -0.121032384336169E+02
             -0.216833815220621E+02
              0.511796380567822E+02
              0.865430791808328E+02
             -0.965730691636609E+02
              0.944903445623315E+02
              0.468514641625083E+02
             -0.726048136241411E+02
             -0.367119921482587E+02
              0.752293794188174E+02
              0.632615220781156E+02
             -0.180925895004041E+02
             -0.463225949974338E+01
              0.730055343361653E+01
              0.649269189009884E+02
             -0.508563124886262E+02
              0.158813029442755E+02
             -0.472205076851198E+01
              0.348343258327134E+02
             -0.747650908564722E+02
             -0.651095183620527E+01
             -0.351678864559982E+02
              0.460977155711244E+02
              0.469282020317559E+02
             -0.862378277713171E+02
             -0.487581193919946E+02
             -0.256562490534698E+02
             -0.339285957779363E+02
             -0.109593654507272E+02
             -0.243363162848063E+02
              0.427603549908345E+02
              0.401552602447657E+02
             -0.568851624785174E+01
             -0.416533509814127E+02
             -0.850879854798858E+02
              0.443196900855711E+02
             -0.523908268888187E+02
             -0.312908912622651E+02
              0.547073542868563E+01
             -0.322606213176173E+02
             -0.398403162829338E+02
             -0.240092580924931E+02
             -0.385204252555936E+02
             -0.271203073443511E+02
             -0.482965431098328E+02
              0.564594166548026E+02
              0.638983139559496E+02
             -0.169052546813725E+01
             -0.261606838710630E+02
             -0.627376606438111E+01
              0.441411660872466E+02
             -0.868810675450084E+02
             -0.146430755885157E+02
              0.524292592295690E+02
              0.663738867131197E+02
             -0.244945509517341E+02
              0.916672135494071E+01
              0.523793921228430E+02
              0.198241793192299E+02
             -0.833884964953120E+01
             -0.453497841434620E+02
              0.280849422874404E+02
             -0.352909869287961E+02
             -0.165341274826692E+02
             -0.153019806763537E+02
             -0.200543139579303E+02
              0.194756337110982E+02
              0.800815334048134E+02
              0.189595404761479E+01
              0.535662537470023E+01
             -0.888105923543883E+02
             -0.175844956074752E+02
             -0.353104775789868E+02
              0.279737078085236E+01
             -0.409674654684455E+02
              0.730600573494588E+02
              0.785405290774972E+02
              0.124179938392280E+02
             -0.141188370835633E+02
              0.143910518749818E+02
              0.261020949111679E+02
             -0.482335396852685E+02
             -0.873094896979046E+01
              0.137722693724535E+02
              0.164928329890432E+02
              0.563976834570828E+02
              0.422433835723245E+02
             -0.198138397892126E+02
              0.331522598849141E+02
             -0.968841010590509E+02
             -0.570189243244513E+00
              0.848227633149241E+02
              0.914210566097302E+01
              0.141940952613459E+01
              0.335680345958716E+02
             -0.298436019020108E+02
              0.959796438805833E+02
             -0.120447915510327E+02
              0.870771120543282E+02
              0.380448666684015E+02
             -0.392872994133483E+02
              0.315061416988915E+02
             -0.333936830502507E+02
             -0.718766157270961E+02
             -0.654508665963868E+01
             -0.542904282188289E+02
             -0.548498528746954E+02
             -0.683135197823239E+01
              0.295241990771833E+02
[...]
              0.283741646580459E+02
              0.141936179334331E+03
              0.242165570737993E+02
              0.122585561275861E+02
             -0.464970161180673E+02
             -0.638635121687920E+02
             -0.189124428653743E+02
              0.329594169869617E+02
             -0.427119501149082E+01
              0.189662236481664E+02
              0.336323619354050E+02
             -0.587279943582877E+02
              0.222437974406164E+02
              0.583296156614490E+02
              0.553626540259530E+02
             -0.419676702361335E+01
             -0.140346144318278E+01
             -0.994370719900584E+01
             -0.482874997487869E+02
             -0.675222266049174E+02
              0.786365293621539E+02
             -0.522889779377741E+01
             -0.588517419156437E+02
              0.168201156028854E+01
             -0.205169665799915E+02
              0.939147393325816E+02
             -0.216596987849275E+02
             -0.353661618840408E+02
              0.335044014933983E+02
             -0.145659504214501E+02
              0.389748554563555E+02
             -0.243570130845387E+01
              0.101184391464796E+03
              0.489671377168749E+02
             -0.516352057694596E+01
             -0.322047733254080E+02
              0.232210093168379E+02
             -0.528904980561087E+02
             -0.128248994309470E+02
              0.586016889668625E+02
             -0.287863228244486E+02
             -0.438839055747577E+02
             -0.223219549071353E+02
              0.519178004019030E+02
              0.125128071974865E+02
             -0.849466646894562E+02
              0.303913708522195E+02
              0.152541382423371E+02
              0.574680781684711E+01
             -0.513796980389295E+02
             -0.379484157635090E+01
              0.323456062977712E+02
              0.513455123733976E+02
              0.632662166365898E+02
              0.228850068373484E+02
              0.778400675871524E+00
             -0.497966724269122E+02
             -0.510312282569002E+02
             -0.748850390888905E+02
             -0.611430705020291E+01
              0.309050179550896E+02
             -0.379218960780014E+01
              0.547355708862771E+02
             -0.318075861306534E+02
              0.166790147217436E+02
             -0.102163992275601E+02
             -0.289605449746106E+02
              0.585789276448094E+02
              0.793591812354873E+01
              0.604318781563294E+02
              0.507665780896741E+01
              0.265442917536742E+02
             -0.192888750658473E+02
              0.586620953593021E+02
             -0.111021162258916E+02
             -0.145809423810071E+00
             -0.790577860732553E+02
             -0.128565176765017E+02
              0.719631373675205E+02
              0.673870447998485E+02
              0.251826773829653E+02
             -0.130352576595028E+02
              0.341039639875970E+01
             -0.173296528732239E+02
             -0.198747925350381E+01
              0.908019442286068E+02
              0.121996577035168E+01
             -0.190267001034410E+02
             -0.110842021596056E+03
             -0.553595246807585E+02
             -0.375083140031360E+02
             -0.659274322737510E+02
             -0.555637274333995E+02
             -0.683115409269743E+02
             -0.447319439055718E+02
             -0.411551656954304E+02
             -0.452010517872726E+02
              0.483752686733538E+02
             -0.294834026429618E+02
             -0.996997596124053E+02
              0.419089880311961E+02
             -0.259940167588682E+02
             -0.791435732899643E+02
              0.944373590976979E+02
             -0.219656135551736E+02
              0.228479091272240E+02
              0.455561524108564E+02
             -0.141819528271367E+01
              0.254318515234341E+02
              0.469221459212372E+01
              0.410382041796534E+00
             -0.150490587063365E+02
             -0.715773989846844E+02
              0.133172660946172E+02
             -0.129505867882423E+03
              0.623870511087488E+02
             -0.440847992382892E+02
             -0.162751215071435E+02
             -0.158179744046525E+02
              0.709966405477586E+01
             -0.228028822972030E+02
              0.297488597331267E+02
             -0.520677794908427E+02
              0.367617769993644E+02
              0.370606860114351E+02
              0.169044677982071E+02
              0.100363233040866E+02
              0.197836757477081E+02
              0.619896612619522E+01
              0.310769898869676E+02
             -0.800949111391566E+01
             -0.591713979063057E+02
              0.758008606752236E+01
             -0.152454670431811E+02
             -0.192060983003927E+01
              0.505911245372440E+02
             -0.827387748450434E+02
             -0.151730274255220E+01
              0.562967024540228E+00
              0.995267948479636E+01
              0.318791806601438E+02
             -0.123753971488542E+02
              0.836277178476691E+02
              0.488515609947146E+02
             -0.183540100003431E+02
             -0.960398181815117E+01
              0.104072805115635E+01
              0.770094122500535E+02
             -0.586844590573650E+02
             -0.105833457885196E+03
              0.309229388486855E+02
             -0.163069724859322E+02
             -0.139181607918439E+02
              0.130598970780273E+02
              0.769068096984834E+02
              0.464582770557240E+02
             -0.153673407461980E+02
             -0.503034870900359E+02
             -0.546920810718977E+01
              0.306636379323875E+02
             -0.111389751017679E+02
             -0.756044673827409E+02
             -0.267789013171449E+01
             -0.890048418013924E+02
             -0.475632595722881E+02
              0.768477452919763E+02
             -0.483617311223003E+02
             -0.636569925746886E+02
             -0.514594046130896E+02
             -0.349744207135133E+02
              0.340766954128130E+02
              0.821775497801676E+02
             -0.353460410754025E+01
              0.276782093793499E+02
             -0.183574879653050E+02
             -0.694234626688846E+02
              0.465173073404198E+02
             -0.444995421970972E+02
              0.322205391843742E+02
              0.376781296439639E+02
             -0.652611630580122E+01
              0.391115026781582E+02
              0.438829000060721E+02
              0.100638889250073E+03
             -0.156460211496207E+02
             -0.455620101375702E+02
             -0.613118878120977E+02
             -0.123804897772476E+02
             -0.232343121154350E+02
              0.103113918277512E+03
             -0.449122526601132E+02
              0.105175604683191E+02
              0.975397778328312E+01
             -0.265058744972918E+02
             -0.798670499378926E+02
             -0.698912907087100E+01
              0.980163413524423E+02
              0.933094542800447E+01
              0.809654816877338E+01
             -0.526729633202947E+02
             -0.605896389875202E+02
             -0.559451565629026E+01
              0.500820721278886E+02
             -0.221794006886292E+02
              0.108046606692700E+03
             -0.435163048351315E+02
              0.146278850060669E+02
             -0.224863401890557E+02
             -0.718933530551604E+02
              0.167008930982092E+01
             -0.501725289607125E+02
             -0.760981131812018E+02
              0.612906917376301E+01
              0.237417756057098E+01
              0.514319133705432E+02
              0.187107801463242E+02
             -0.323616035876863E+02
              0.230206910925806E+02
             -0.810707040487756E+02
             -0.522344708913622E+02
              0.902150318466985E+02
              0.142910135994522E+02
             -0.188546685982490E+02
             -0.352823680649779E+02
             -0.269507183041401E+01
             -0.585351849266692E+01
              0.829874408948688E+02
              0.417703473335461E+02
             -0.166532643644314E+02
             -0.122376649416060E+02
             -0.427945192658479E+02
             -0.201139568312733E+02
             -0.670639555894555E+02
              0.459681920465109E+02
              0.546283474870810E+01
              0.145230831957961E+02
              0.155865855110849E+02
             -0.540069110981516E+00
             -0.168273654975743E+02
             -0.315014844532862E+01
             -0.100439291698563E+03
             -0.230203732774614E+02
             -0.762292626280794E+01
             -0.949707224048180E+01
              0.547256879531598E+02
              0.623793346241849E+02
              0.164790713869924E+02
             -0.971019852829656E+02
              0.647959551313241E+02
             -0.215058324334444E+02
             -0.377220665303670E+02
             -0.864533148693120E+02
             -0.387465190216426E+02
              0.564254772470367E+02
              0.243888175105624E+02
              0.511380831150331E+01
              0.292135063483848E+02
             -0.565138022874513E+02
             -0.422165820437422E+02
              0.515267769157667E+02
              0.387322391259829E+02
              0.519386728262255E+02
             -0.128455076004707E+01
              0.683465910215511E+01
              0.569734559300169E+02
              0.963166468709746E+02
             -0.300767301584686E+02
              0.322705973446803E+02
             -0.117602789762450E+02
             -0.412190384890537E+02
             -0.314232494977739E+02
             -0.299894871322405E+02
             -0.131431425915824E+02
             -0.523841427926467E+02
             -0.217632498319002E+02
             -0.141244074158266E+03
              0.369037240671974E+02
              0.206676786854089E+02
             -0.392855942681463E+01
             -0.380329988172518E+02
             -0.204587886695376E+02
             -0.526829412533153E+02
              0.151431040479445E+02
              0.820456549856011E+02
             -0.252278588773345E+02
             -0.162992011734194E+02
              0.238154491726341E+02
             -0.489268946306873E+02
              0.880983728051051E+02
              0.154651237333667E+02
              0.226850707422981E+02
              0.490653750187618E+02
              0.325437052507959E+01
              0.542312476497923E+02
              0.142877116692310E+02
             -0.106976456524471E+02
              0.732838861443244E+01
              0.838607174865274E+00
              0.727886639436185E+02
              0.101073029184930E+02
              0.120212657667785E+02
             -0.129949483833281E+02
              0.132309958430420E+02
             -0.911546679951123E+02
             -0.326114582705393E+02
             -0.457349646524372E+02
              0.485788076795755E+02
             -0.291014614249571E+02
             -0.659113845338404E+02
              0.538565697140446E+02
             -0.122140851938441E+02
              0.440426504772507E+02
             -0.899152085466930E+02
              0.232596179185486E+02
              0.860132026836132E+01
              0.581935344217618E+01
             -0.830436001941865E+01
             -0.903217484455536E+01
              0.479490051548911E+02
              0.199413247062103E+01
             -0.474988832016271E+02
             -0.175943789919390E+02
              0.277112216691849E+02
             -0.117979401928931E+03
             -0.930486897280510E+02
              0.397477670120765E+01
              0.117399669266997E+02
             -0.412945755287879E+02
             -0.390928316099831E+01
              0.112189602263817E+03
              0.307094733184770E+02
             -0.571931217933720E+02
              0.925908406736266E+01
             -0.964415364703883E+01
              0.105464998805055E+02
             -0.337544351429166E+02
              0.195116722483058E+02
              0.284830535152054E+02
             -0.300346081335931E+01
              0.108210156482631E+03
             -0.140585408658056E+02
             -0.316138896124667E+02
              0.142571372057745E+02
              0.466708177967878E+02
             -0.356176637601317E+02
             -0.318876883237716E+01
              0.964986575281079E+02
             -0.465776716164453E+01
              0.621919347096962E+02
              0.135453794793581E+02
             -0.905809442718166E+01
             -0.305807354935812E+02
              0.567245110832631E+02
             -0.514298057242519E+02
             -0.221849848388723E+01
             -0.169905473225926E+02
             -0.405540505357780E+02
              0.184988452728016E+02
              0.239012866268960E+02
              0.116471445462003E+02
              0.717716920996168E+00
             -0.384506283904381E+02
              0.215789165717465E+02
             -0.675088577324726E+01
             -0.246890146743854E+02
             -0.210863371398270E+02
              0.203833865603181E+02
             -0.597943447969408E+01
             -0.349235727910012E+02
             -0.106643179162243E+03
              0.102837289863029E+02
              0.249303729522590E+02
             -0.387178864739647E+02
             -0.210903356921001E+02
              0.807248591471920E+02
              0.647686037298223E+01
              0.310514923522310E+02
              0.388649412863933E+01
              0.321809051585248E+02
              0.646309503558098E+01
             -0.373155022611730E+02
             -0.225733185667278E+01
              0.878410914492702E+01
              0.273641928127618E+02
              0.782660979630301E+02
              0.507644740576280E+02
              0.167540406789328E+00
              0.169041960090601E+02
              0.613368424270243E+02
              0.235898285905847E+02
             -0.753484315725314E+02
             -0.273761690186036E+02
              0.151318932757378E+02
              0.562085969585138E+01
              0.255265130297015E+02
             -0.548134191924419E+02
              0.903177172777468E+01
              0.385774551336287E+02
              0.498287147930873E+02
             -0.435253769603862E+02
             -0.695745570832503E+01
             -0.207784592058164E+01
             -0.133674946823131E+02
             -0.366169705469184E+02
             -0.215673217109369E+02
             -0.196475739764112E+01
              0.791423039810962E+01
              0.421446161943758E+02
             -0.308461711595709E+02
              0.826444054882385E+02
              0.327775252108261E+02
              0.219640504126248E+02
              0.332869330193181E+02
              0.323667667757956E+02
              0.345865086652292E+02
              0.537410186898244E+02
             -0.433963684130184E+02
              0.619831797488704E+02
             -0.112276886407393E+03
              0.307555922986829E+02
             -0.106584811860935E+03
              0.855168175051301E+02
              0.690734669263851E+02
             -0.110050736227357E+02
             -0.493616081815827E+02
             -0.429570197719879E+02
             -0.624016385239937E+02
             -0.628802014382101E+02
              0.551950444032242E+02
              0.405751109527157E+02
              0.236995227139130E+02
              0.374404035140365E+02
              0.402944017033078E+02
             -0.382199269328169E+02
             -0.198111522645886E+02
              0.586841919166279E+02
             -0.115990032464401E+02
              0.551910837964751E+02
              0.699486379751523E+02
             -0.552985996491312E+01
             -0.706435803990523E+02
             -0.939764759022523E+00
             -0.245649385934149E+01
             -0.882826361189996E+01
             -0.179138287663625E+01
             -0.653401825396825E+02
             -0.211502114151965E+02
              0.536358073909119E+01
              0.894800520147840E+01
              0.468954092260942E+02
             -0.397745068992737E+02
              0.658363913250283E+02
             -0.425575955847589E+02
              0.210093291920788E+02
              0.350388017829866E+02
 
 BEEF-vdW xc energy contributions
           1 :   -783.509993299042     
           2 :    720.021622461951     
           3 :   -610.012683556187     
           4 :    480.339082702034     
           5 :   -358.373592234015     
           6 :    263.938976787820     
           7 :   -204.774748395207     
           8 :    176.466559973679     
           9 :   -166.425177425888     
          10 :    160.025493153339     
          11 :   -146.402223992062     
          12 :    121.704330218486     
          13 :   -88.9583695753432     
          14 :    55.1745937460274     
          15 :   -27.3683088301984     
          16 :    9.29050768778393     
          17 :  -0.141098242330827     
          18 :   -4.47383242594492     
          19 :    10.0534475150967     
          20 :   -20.4944408137476     
          21 :    36.4070917026052     
          22 :   -55.1217354603015     
          23 :    72.2153545641080     
          24 :   -83.7230779031811     
          25 :    87.9439288261990     
          26 :   -86.0522531039668     
          27 :    81.3288656430706     
          28 :   -77.4699476017985     
          29 :    76.8293350497001     
          30 :   -79.4312040145721     
          31 :   -85.8226834867609     
          32 :   -65.8226209699250     

     Writing output data file ./pwscf.save/
 
     init_run     :    334.75s CPU    339.26s WALL (       1 calls)
     electrons    :  11603.47s CPU  11707.99s WALL (       1 calls)
     forces       :     99.97s CPU    101.21s WALL (       1 calls)

     Called by init_run:
     wfcinit      :    286.13s CPU    289.57s WALL (       1 calls)
     potinit      :     45.33s CPU     45.69s WALL (       1 calls)
     hinit0       :      1.31s CPU      1.36s WALL (       1 calls)

     Called by electrons:
     c_bands      :   9684.43s CPU   9764.24s WALL (      17 calls)
     sum_band     :   1300.90s CPU   1312.08s WALL (      17 calls)
     v_of_rho     :    113.22s CPU    116.72s WALL (      17 calls)
     newd         :     26.92s CPU     37.26s WALL (      17 calls)
     PAW_pot      :    113.42s CPU    113.42s WALL (      17 calls)
     mix_rho      :    410.81s CPU    411.40s WALL (      17 calls)
     vdW_kernel   :     33.46s CPU     33.47s WALL (       1 calls)

     Called by c_bands:
     init_us_2    :     67.19s CPU     67.45s WALL (     468 calls)
     cegterg      :   9004.09s CPU   9083.55s WALL (     221 calls)

     Called by *egterg:
     cdiaghg      :     90.72s CPU     90.75s WALL (    1190 calls)
     h_psi        :   5821.08s CPU   5849.95s WALL (    1216 calls)
     s_psi        :    961.45s CPU    961.52s WALL (    1216 calls)
     g_psi        :     15.18s CPU     15.19s WALL (     982 calls)

     Called by h_psi:
     h_psi:calbec :    885.43s CPU    885.63s WALL (    1216 calls)
     vloc_psi     :   3951.80s CPU   3953.32s WALL (    1216 calls)
     add_vuspsi   :    960.41s CPU    960.54s WALL (    1216 calls)

     General routines
     calbec       :   1295.30s CPU   1295.55s WALL (    1489 calls)
     fft          :     45.26s CPU     45.28s WALL (    3037 calls)
     ffts         :    130.77s CPU    130.80s WALL (    9204 calls)
     fftw         :   4001.13s CPU   4002.14s WALL (  295844 calls)
 
     Parallel routines
 
     PWSCF        :      3h23m CPU      3h25m WALL

 
   This run was terminated on:   1:53:28   4Jan2023            

=------------------------------------------------------------------------------=
   JOB DONE.
=------------------------------------------------------------------------------=
