
     Program PWSCF v.6.7MaX starts on 26Sep2022 at 21: 8:17 

     This program is part of the open-source Quantum ESPRESSO suite
     for quantum simulation of materials; please cite
         "P. Giannozzi et al., J. Phys.:Condens. Matter 21 395502 (2009);
         "P. Giannozzi et al., J. Phys.:Condens. Matter 29 465901 (2017);
          URL http://www.quantum-espresso.org", 
     in publications or presentations arising from this work. More details at
     http://www.quantum-espresso.org/quote

     Parallel version (MPI), running on     1 processors

     MPI processes distributed on     1 nodes
     Reading input from ch-ensemble.in
Warning: card &CELL ignored
Warning: card / ignored

     Current dimensions of program PWSCF are:
     Max number of different atomic species (ntypx) = 10
     Max number of k-points (npk) =  40000
     Max angular momentum in pseudopotentials (lmaxx) =  3
     file Pt.pbe-n-kjpaw_psl.1.0.0.UPF: wavefunction(s)  6S 5D renormalized
     file C.pbe-n-kjpaw_psl.1.0.0.UPF: wavefunction(s)  2S 2P renormalized
     file H.pbe-kjpaw_psl.1.0.0.UPF: wavefunction(s)  1S renormalized

     **************************************************************************
     Initializing libbeef V0.1.2 with the BEEF-vdW functional.
     Citation: Wellendorff et al., PRB 85, 235149 (2012).
     **************************************************************************


     IMPORTANT: XC functional enforced from input :
     Exchange-correlation= BEEF-VDW
                           (   1   4  43  14   2   0   0)
     Any further DFT definition will be discarded
     Please, verify this is what you really want


     Subspace diagonalization in iterative solution of the eigenvalue problem:
     a serial algorithm will be used

 
     G-vector sticks info
     --------------------
     sticks:   dense  smooth     PW     G-vecs:    dense   smooth      PW
     Sum        4267    4267   1159               693275   693275   97693
 


     bravais-lattice index     =            0
     lattice parameter (alat)  =      16.0349  a.u.
     unit-cell volume          =   11036.8291 (a.u.)^3
     number of atoms/cell      =           38
     number of atomic types    =            3
     number of electrons       =       365.00
     number of Kohn-Sham states=          220
     kinetic-energy cutoff     =      60.0000  Ry
     charge density cutoff     =     240.0000  Ry
     scf convergence threshold =      1.0E-06
     mixing beta               =       0.7000
     number of iterations used =            8  local-TF  mixing
     Exchange-correlation= BEEF-VDW
                           (   1   4  43  14   2   0   0)

     celldm(1)=  16.034858  celldm(2)=   0.000000  celldm(3)=   0.000000
     celldm(4)=   0.000000  celldm(5)=   0.000000  celldm(6)=   0.000000

     crystal axes: (cart. coord. in units of alat)
               a(1) = (   1.000000   0.000000   0.000000 )  
               a(2) = (   0.500000   0.866025   0.000000 )  
               a(3) = (   0.000000   0.000000   3.091138 )  

     reciprocal axes: (cart. coord. in units 2 pi/alat)
               b(1) = (  1.000000 -0.577350  0.000000 )  
               b(2) = (  0.000000  1.154701  0.000000 )  
               b(3) = (  0.000000  0.000000  0.323505 )  


     PseudoPot. # 1 for Pt read from file:
     /users/bkreitz1/quantum-espresso/potentials/Pt.pbe-n-kjpaw_psl.1.0.0.UPF
     MD5 check sum: 04dc8a03c51ece93fc7b5889c2958091
     Pseudo is Projector augmented-wave + core cor, Zval = 10.0
     Generated using 'atomic' code by A. Dal Corso  v.6.7MaX
     Shape of augmentation charge: PSQ
     Using radial grid of 1277 points,  6 beta functions with: 
                l(1) =   0
                l(2) =   0
                l(3) =   1
                l(4) =   1
                l(5) =   2
                l(6) =   2
     Q(r) pseudized with 0 coefficients 


     PseudoPot. # 2 for C  read from file:
     /users/bkreitz1/quantum-espresso/potentials/C.pbe-n-kjpaw_psl.1.0.0.UPF
     MD5 check sum: a169b0ebad56f5ec0d79c4633f80bf22
     Pseudo is Projector augmented-wave + core cor, Zval =  4.0
     Generated using 'atomic' code by A. Dal Corso  v.6.7MaX
     Shape of augmentation charge: PSQ
     Using radial grid of 1073 points,  4 beta functions with: 
                l(1) =   0
                l(2) =   0
                l(3) =   1
                l(4) =   1
     Q(r) pseudized with 0 coefficients 


     PseudoPot. # 3 for H  read from file:
     /users/bkreitz1/quantum-espresso/potentials/H.pbe-kjpaw_psl.1.0.0.UPF
     MD5 check sum: ae98473e6dc62675f0d0baffdab24f65
     Pseudo is Projector augmented-wave, Zval =  1.0
     Generated using 'atomic' code by A. Dal Corso  v.6.7MaX
     Shape of augmentation charge: PSQ
     Using radial grid of  929 points,  2 beta functions with: 
                l(1) =   0
                l(2) =   0
     Q(r) pseudized with 0 coefficients 


     atomic species   valence    mass     pseudopotential
        Pt            10.00   195.08400     Pt( 1.00)
        C              4.00    12.01100     C ( 1.00)
        H              1.00     1.00800     H ( 1.00)

     No symmetry found



   Cartesian axes

     site n.     atom                  positions (alat units)
         1           Pt  tau(   1) = (   0.0000000   0.0000000   1.0017346  )
         2           Pt  tau(   2) = (   0.3333333   0.0000000   1.0017346  )
         3           Pt  tau(   3) = (   0.6666667   0.0000000   1.0017346  )
         4           Pt  tau(   4) = (   0.1666667   0.2886751   1.0017346  )
         5           Pt  tau(   5) = (   0.5000000   0.2886751   1.0017346  )
         6           Pt  tau(   6) = (   0.8333333   0.2886751   1.0017346  )
         7           Pt  tau(   7) = (   0.3333333   0.5773503   1.0017346  )
         8           Pt  tau(   8) = (   0.6666667   0.5773503   1.0017346  )
         9           Pt  tau(   9) = (   1.0000000   0.5773503   1.0017346  )
        10           Pt  tau(  10) = (   0.1666667   0.0962250   1.2739001  )
        11           Pt  tau(  11) = (   0.5000000   0.0962250   1.2739001  )
        12           Pt  tau(  12) = (   0.8333333   0.0962250   1.2739001  )
        13           Pt  tau(  13) = (   0.3333333   0.3849002   1.2739001  )
        14           Pt  tau(  14) = (   0.6666667   0.3849002   1.2739001  )
        15           Pt  tau(  15) = (   1.0000000   0.3849002   1.2739001  )
        16           Pt  tau(  16) = (   0.5000000   0.6735753   1.2739001  )
        17           Pt  tau(  17) = (   0.8333333   0.6735753   1.2739001  )
        18           Pt  tau(  18) = (   1.1666667   0.6735753   1.2739001  )
        19           Pt  tau(  19) = (   0.0008186   0.1919474   1.5463096  )
        20           Pt  tau(  20) = (   0.3324788   0.1919534   1.5463410  )
        21           Pt  tau(  21) = (   0.6666532   0.1923290   1.5424430  )
        22           Pt  tau(  22) = (   0.1666449   0.4794399   1.5448648  )
        23           Pt  tau(  23) = (   0.4998900   0.4811699   1.5424474  )
        24           Pt  tau(  24) = (   0.8334239   0.4811745   1.5424505  )
        25           Pt  tau(  25) = (   0.3347344   0.7706037   1.5448656  )
        26           Pt  tau(  26) = (   0.6666457   0.7707552   1.5463086  )
        27           Pt  tau(  27) = (   0.9985349   0.7706163   1.5448649  )
        28           Pt  tau(  28) = (  -0.0047599  -0.0027565   1.8339498  )
        29           Pt  tau(  29) = (   0.3378870  -0.0027134   1.8340480  )
        30           Pt  tau(  30) = (   0.6665918  -0.0001044   1.8170154  )
        31           Pt  tau(  31) = (   0.1666006   0.2939524   1.8340586  )
        32           Pt  tau(  32) = (   0.5031603   0.2904896   1.8165886  )
        33           Pt  tau(  33) = (   0.8300709   0.2904928   1.8165719  )
        34           Pt  tau(  34) = (   0.3332138   0.5773233   1.8170199  )
        35           Pt  tau(  35) = (   0.6666187   0.5736031   1.8165722  )
        36           Pt  tau(  36) = (   1.0000078   0.5773458   1.8170364  )
        37           C   tau(  37) = (   0.1664730   0.0960882   1.9614857  )
        38           H   tau(  38) = (   0.1663966   0.0960324   2.0915451  )

     number of k points=    13  Marzari-Vanderbilt smearing, width (Ry)=  0.0200
                       cart. coord. in units 2pi/alat
        k(    1) = (   0.0000000   0.0000000   0.0000000), wk =   0.0800000
        k(    2) = (   0.0000000   0.2309401   0.0000000), wk =   0.1600000
        k(    3) = (   0.0000000   0.4618802   0.0000000), wk =   0.1600000
        k(    4) = (   0.2000000  -0.1154701   0.0000000), wk =   0.1600000
        k(    5) = (   0.2000000   0.1154701   0.0000000), wk =   0.1600000
        k(    6) = (   0.2000000   0.3464102   0.0000000), wk =   0.1600000
        k(    7) = (   0.2000000  -0.5773503   0.0000000), wk =   0.1600000
        k(    8) = (   0.2000000  -0.3464102   0.0000000), wk =   0.1600000
        k(    9) = (   0.4000000  -0.2309401   0.0000000), wk =   0.1600000
        k(   10) = (   0.4000000  -0.0000000   0.0000000), wk =   0.1600000
        k(   11) = (   0.4000000   0.2309401   0.0000000), wk =   0.1600000
        k(   12) = (   0.4000000  -0.6928203   0.0000000), wk =   0.1600000
        k(   13) = (   0.4000000  -0.4618802   0.0000000), wk =   0.1600000

     Dense  grid:   693275 G-vectors     FFT dimensions: (  80,  80, 250)

     Estimated max dynamical RAM per process >       8.28 GB

     Initial potential from superposition of free atoms

     starting charge  364.99384, renormalised to  365.00000

     negative rho (up, down):  1.222E-02 0.000E+00


     %%%%%%%%%%%%%%%%%%%%%%%%%%%%%%%%%%%%%%%%%%%%%%%%%%%%%%%%%%%%%%%%%%%%%%%%
     %                                                                      %
     % You are using vdW-DF, which was implemented by the Thonhauser group. %
     % Please cite the following two papers that made this development      %
     % possible and the two reviews that describe the various versions:     %
     %                                                                      %
     %   T. Thonhauser et al., PRL 115, 136402 (2015).                      %
     %   T. Thonhauser et al., PRB 76, 125112 (2007).                       %
     %   K. Berland et al., Rep. Prog. Phys. 78, 066501 (2015).             %
     %   D.C. Langreth et al., J. Phys.: Condens. Matter 21, 084203 (2009). %
     %                                                                      %
     %                                                                      %
     % If you are calculating the stress with vdW-DF, please also cite:     %
     %                                                                      %
     %   R. Sabatini et al., J. Phys.: Condens. Matter 24, 424209 (2012).   %
     %                                                                      %
     %%%%%%%%%%%%%%%%%%%%%%%%%%%%%%%%%%%%%%%%%%%%%%%%%%%%%%%%%%%%%%%%%%%%%%%%


     Starting wfcs are  329 randomized atomic wfcs
     Checking if some PAW data can be deallocated... 

     total cpu time spent up to now is      317.1 secs

     Self-consistent Calculation

     iteration #  1     ecut=    60.00 Ry     beta= 0.70
     Davidson diagonalization with overlap
     ethr =  1.00E-02,  avg # of iterations =  2.0

     Threshold (ethr) on eigenvalues was too large:
     Diagonalizing with lowered threshold

     Davidson diagonalization with overlap
     ethr =  5.27E-04,  avg # of iterations =  5.3

     negative rho (up, down):  1.665E-02 0.000E+00

     total cpu time spent up to now is     1620.4 secs

     total energy              =  -27774.16937587 Ry
     estimated scf accuracy    <       2.19939723 Ry

     iteration #  2     ecut=    60.00 Ry     beta= 0.70
     Davidson diagonalization with overlap
     ethr =  6.03E-04,  avg # of iterations =  2.0

     negative rho (up, down):  1.487E-02 0.000E+00

     total cpu time spent up to now is     2176.8 secs

     total energy              =  -27774.36963468 Ry
     estimated scf accuracy    <       0.95523031 Ry

     iteration #  3     ecut=    60.00 Ry     beta= 0.70
     Davidson diagonalization with overlap
     ethr =  2.62E-04,  avg # of iterations =  2.6

     negative rho (up, down):  1.250E-02 0.000E+00

     total cpu time spent up to now is     2739.2 secs

     total energy              =  -27774.43843380 Ry
     estimated scf accuracy    <       0.30354039 Ry

     iteration #  4     ecut=    60.00 Ry     beta= 0.70
     Davidson diagonalization with overlap
     ethr =  8.32E-05,  avg # of iterations =  9.1

     negative rho (up, down):  1.021E-02 0.000E+00

     total cpu time spent up to now is     3435.4 secs

     total energy              =  -27774.47224232 Ry
     estimated scf accuracy    <       0.09944340 Ry

     iteration #  5     ecut=    60.00 Ry     beta= 0.70
     Davidson diagonalization with overlap
     c_bands:  1 eigenvalues not converged
     ethr =  2.72E-05,  avg # of iterations =  8.3

     negative rho (up, down):  8.156E-03 0.000E+00

     total cpu time spent up to now is     4165.6 secs

     total energy              =  -27774.48823139 Ry
     estimated scf accuracy    <       0.05908511 Ry

     iteration #  6     ecut=    60.00 Ry     beta= 0.70
     Davidson diagonalization with overlap
     ethr =  1.62E-05,  avg # of iterations =  2.0

     negative rho (up, down):  6.818E-03 0.000E+00

     total cpu time spent up to now is     4729.3 secs

     total energy              =  -27774.49111799 Ry
     estimated scf accuracy    <       0.00678188 Ry

     iteration #  7     ecut=    60.00 Ry     beta= 0.70
     Davidson diagonalization with overlap
     c_bands:  1 eigenvalues not converged
     c_bands:  1 eigenvalues not converged
     c_bands:  1 eigenvalues not converged
     ethr =  1.86E-06,  avg # of iterations = 15.1

     negative rho (up, down):  6.376E-03 0.000E+00

     total cpu time spent up to now is     5732.7 secs

     total energy              =  -27774.49377178 Ry
     estimated scf accuracy    <       0.00245427 Ry

     iteration #  8     ecut=    60.00 Ry     beta= 0.70
     Davidson diagonalization with overlap
     ethr =  6.72E-07,  avg # of iterations =  2.5

     negative rho (up, down):  6.313E-03 0.000E+00

     total cpu time spent up to now is     6327.2 secs

     total energy              =  -27774.49406384 Ry
     estimated scf accuracy    <       0.00087537 Ry

     iteration #  9     ecut=    60.00 Ry     beta= 0.70
     Davidson diagonalization with overlap
     ethr =  2.40E-07,  avg # of iterations =  3.1

     negative rho (up, down):  6.555E-03 0.000E+00

     total cpu time spent up to now is     6905.2 secs

     total energy              =  -27774.49414181 Ry
     estimated scf accuracy    <       0.00052404 Ry

     iteration # 10     ecut=    60.00 Ry     beta= 0.70
     Davidson diagonalization with overlap
     ethr =  1.44E-07,  avg # of iterations =  1.8

     negative rho (up, down):  7.069E-03 0.000E+00

     total cpu time spent up to now is     7451.5 secs

     total energy              =  -27774.49416057 Ry
     estimated scf accuracy    <       0.00033603 Ry

     iteration # 11     ecut=    60.00 Ry     beta= 0.70
     Davidson diagonalization with overlap
     ethr =  9.21E-08,  avg # of iterations =  2.5

     negative rho (up, down):  8.659E-03 0.000E+00

     total cpu time spent up to now is     8009.4 secs

     total energy              =  -27774.49415820 Ry
     estimated scf accuracy    <       0.00019957 Ry

     iteration # 12     ecut=    60.00 Ry     beta= 0.70
     Davidson diagonalization with overlap
     ethr =  5.47E-08,  avg # of iterations =  3.1

     negative rho (up, down):  9.148E-03 0.000E+00

     total cpu time spent up to now is     8579.1 secs

     total energy              =  -27774.49416785 Ry
     estimated scf accuracy    <       0.00010774 Ry

     iteration # 13     ecut=    60.00 Ry     beta= 0.70
     Davidson diagonalization with overlap
     ethr =  2.95E-08,  avg # of iterations =  2.0

     negative rho (up, down):  1.109E-02 0.000E+00

     total cpu time spent up to now is     9131.5 secs

     total energy              =  -27774.49416986 Ry
     estimated scf accuracy    <       0.00005591 Ry

     iteration # 14     ecut=    60.00 Ry     beta= 0.70
     Davidson diagonalization with overlap
     ethr =  1.53E-08,  avg # of iterations =  2.0

     negative rho (up, down):  1.107E-02 0.000E+00

     total cpu time spent up to now is     9703.5 secs

     total energy              =  -27774.49417771 Ry
     estimated scf accuracy    <       0.00002341 Ry

     iteration # 15     ecut=    60.00 Ry     beta= 0.70
     Davidson diagonalization with overlap
     ethr =  6.41E-09,  avg # of iterations =  2.5

     negative rho (up, down):  1.232E-02 0.000E+00

     total cpu time spent up to now is    10315.9 secs

     total energy              =  -27774.49417587 Ry
     estimated scf accuracy    <       0.00001178 Ry

     iteration # 16     ecut=    60.00 Ry     beta= 0.70
     Davidson diagonalization with overlap
     ethr =  3.23E-09,  avg # of iterations =  2.3

     negative rho (up, down):  1.288E-02 0.000E+00

     total cpu time spent up to now is    10919.4 secs

     total energy              =  -27774.49417611 Ry
     estimated scf accuracy    <       0.00000274 Ry

     iteration # 17     ecut=    60.00 Ry     beta= 0.70
     Davidson diagonalization with overlap
     ethr =  7.51E-10,  avg # of iterations =  5.3

     negative rho (up, down):  1.304E-02 0.000E+00

     total cpu time spent up to now is    11844.0 secs

     End of self-consistent calculation

          k = 0.0000 0.0000 0.0000 ( 86595 PWs)   bands (ev):

   -10.5005  -6.8022  -5.6146  -5.1466  -4.4786  -4.4783  -4.4413  -4.4081
    -4.3834  -4.3833  -4.3682  -4.2035  -4.0709  -4.0708  -3.8622  -3.8459
    -3.8458  -3.7802  -3.6978  -3.6976  -3.4056  -3.4055  -3.3946  -3.2787
    -3.2239  -3.2238  -3.1803  -3.1802  -3.1783  -3.0675  -3.0569  -3.0566
    -2.9769  -2.9768  -2.9596  -2.9155  -2.8949  -2.8948  -2.8894  -2.8595
    -2.8595  -2.5285  -2.4181  -2.4168  -2.3227  -2.3225  -2.3150  -2.2881
    -2.2496  -2.2495  -2.2367  -2.1782  -2.1781  -2.0794  -2.0793  -2.0469
    -1.9427  -1.9425  -1.5959  -1.5956  -1.5368  -1.5144  -1.5143  -1.4702
    -1.4423  -1.3588  -1.3587  -1.3261  -1.3187  -1.3186  -1.3142  -1.3001
    -1.2798  -1.2650  -1.2650  -1.2261  -1.2260  -1.2161  -1.2030  -1.2029
    -1.1360  -1.1355  -1.1166  -1.1020  -1.1013  -1.1009  -0.9220  -0.9062
    -0.9061  -0.8719  -0.8719  -0.8696  -0.8546  -0.8545  -0.7916  -0.7915
    -0.7781  -0.6857  -0.6857  -0.6454  -0.6413  -0.6155  -0.5403  -0.5402
    -0.5060  -0.5055  -0.4934  -0.4786  -0.4195  -0.4187  -0.3503  -0.0559
    -0.0556  -0.0247   0.0195   0.0196   0.0354   0.0357   0.0384   0.0583
     0.1648   0.1648   0.2183   0.2184   0.2264   0.2627   0.2628   0.3085
     0.3256   0.3694   0.4773   0.4774   0.5121   0.5127   0.5661   0.5663
     0.7161   0.7530   0.7531   0.7774   0.8085   0.8087   0.8509   0.8513
     0.9204   0.9205   0.9665   0.9969   1.0148   1.0212   1.0214   1.1219
     1.1222   1.1552   1.1898   1.1898   1.2092   1.2093   1.2130   1.2206
     1.2390   1.2409   1.2410   1.3139   1.3141   1.3316   1.3318   1.3372
     1.4082   1.4083   1.4217   1.4256   1.4257   1.4689   1.4689   1.5156
     1.5650   1.5679   1.5680   1.5745   1.5746   1.6261   1.6503   1.6503
     1.6879   1.6880   1.7135   1.7224   1.7731   1.8608   1.8610   1.9700
     1.9781   1.9782   2.0151   2.0152   2.0349   2.5384   2.5387   2.6317
     2.8529   2.8880   2.8880   2.9200   4.0102   4.0104   4.8801   5.1959
     5.1960   5.2131   5.7091   5.7098   6.3000   6.8047   6.8091   6.8093
     6.8415   6.8452   6.9716   6.9717

          k = 0.0000 0.2309 0.0000 ( 86616 PWs)   bands (ev):

   -10.4973  -6.6584  -5.5027  -5.0993  -4.9106  -4.5503  -4.5208  -4.3015
    -4.2536  -4.2019  -4.1811  -4.1496  -4.0325  -3.9961  -3.9433  -3.8024
    -3.7789  -3.7626  -3.6497  -3.6093  -3.4608  -3.3634  -3.3333  -3.3310
    -3.2541  -3.2479  -3.2180  -3.1623  -3.1590  -3.0984  -3.0829  -3.0626
    -3.0334  -3.0221  -2.9580  -2.9567  -2.8308  -2.8258  -2.7528  -2.7278
    -2.7047  -2.5476  -2.4777  -2.4695  -2.4204  -2.4198  -2.3893  -2.3767
    -2.2743  -2.2671  -2.2353  -2.1451  -2.1365  -2.0544  -2.0469  -2.0078
    -1.9538  -1.9379  -1.7695  -1.6900  -1.6840  -1.6481  -1.6352  -1.5970
    -1.5504  -1.5456  -1.5241  -1.5052  -1.4713  -1.4206  -1.3866  -1.3513
    -1.3386  -1.3143  -1.2957  -1.2349  -1.2227  -1.2096  -1.1374  -1.1348
    -1.1177  -1.0866  -1.0675  -1.0524  -1.0281  -0.9929  -0.9590  -0.9466
    -0.9142  -0.8995  -0.8793  -0.8694  -0.8518  -0.8200  -0.7878  -0.7795
    -0.7465  -0.7412  -0.7103  -0.6886  -0.6795  -0.6351  -0.5999  -0.5920
    -0.5753  -0.5212  -0.4902  -0.4851  -0.4590  -0.4263  -0.4246  -0.3920
    -0.3919  -0.2731  -0.2290  -0.1761  -0.0585  -0.0279   0.0012   0.0291
     0.0317   0.0545   0.0713   0.1370   0.2283   0.2911   0.3130   0.3245
     0.3775   0.3870   0.4077   0.4215   0.4384   0.4581   0.4794   0.4977
     0.6167   0.6433   0.6490   0.6636   0.6890   0.7507   0.7911   0.8358
     0.8367   0.8636   0.8812   0.9428   0.9511   1.0057   1.0156   1.0327
     1.0474   1.0899   1.1090   1.1701   1.1726   1.2158   1.2268   1.2358
     1.2550   1.2948   1.3608   1.3877   1.3914   1.4444   1.4775   1.5175
     1.5240   1.5395   1.5660   1.5742   1.5853   1.6438   1.6514   1.6555
     1.6809   1.6949   1.7322   1.7365   1.8138   1.8389   1.8779   1.9017
     1.9285   1.9356   1.9596   1.9880   2.0017   2.0209   2.0593   2.0994
     2.1447   2.1952   2.2576   2.2989   2.3185   2.3736   2.5675   2.6987
     2.9973   3.2839   3.5137   3.5847   3.9053   4.0904   4.6899   4.9821
     5.2121   5.5014   5.6607   5.8125   5.9926   5.9990   6.5063   6.6458
     6.7419   6.9663   7.0580   7.0947

          k = 0.0000 0.4619 0.0000 ( 86644 PWs)   bands (ev):

   -10.4920  -6.2446  -5.6241  -5.2660  -4.8964  -4.5796  -4.5715  -4.4215
    -4.1804  -4.0492  -3.9547  -3.9531  -3.9030  -3.8170  -3.7877  -3.7261
    -3.6178  -3.6173  -3.5835  -3.5126  -3.4773  -3.4672  -3.4208  -3.4017
    -3.3706  -3.3410  -3.3092  -3.2925  -3.2331  -3.2120  -3.0142  -2.9978
    -2.9812  -2.9680  -2.8925  -2.8507  -2.7552  -2.7501  -2.7331  -2.7184
    -2.6382  -2.5766  -2.5736  -2.5055  -2.4370  -2.3993  -2.3741  -2.3472
    -2.3037  -2.2926  -2.2409  -2.2299  -2.2174  -2.1907  -2.0813  -2.0468
    -2.0414  -1.9783  -1.9282  -1.8797  -1.8415  -1.8192  -1.8055  -1.7973
    -1.6670  -1.6382  -1.6141  -1.5742  -1.5738  -1.4990  -1.4983  -1.4798
    -1.3870  -1.3602  -1.3496  -1.3046  -1.2624  -1.2622  -1.2133  -1.1921
    -1.1674  -1.1424  -1.1189  -1.1089  -1.0993  -1.0849  -1.0788  -1.0540
    -1.0452  -0.9743  -0.9568  -0.9261  -0.8981  -0.8957  -0.8621  -0.8390
    -0.7868  -0.7567  -0.7186  -0.7059  -0.6754  -0.6576  -0.6428  -0.6059
    -0.5797  -0.5502  -0.4921  -0.4475  -0.4383  -0.4045  -0.3615  -0.3074
    -0.2718  -0.2191  -0.1578  -0.1564  -0.1488  -0.0971  -0.0537  -0.0397
    -0.0312   0.0069   0.0347   0.0621   0.0666   0.0966   0.1090   0.1126
     0.1428   0.2028   0.2610   0.2644   0.3175   0.3471   0.4095   0.4223
     0.4677   0.5521   0.5536   0.6254   0.6415   0.6793   0.7575   0.7613
     0.8296   0.8330   0.8795   0.9009   0.9082   0.9339   0.9745   0.9762
     1.0013   1.0781   1.0805   1.1316   1.1521   1.1809   1.1856   1.2341
     1.2976   1.3317   1.3952   1.4258   1.4525   1.4924   1.5585   1.5641
     1.5883   1.5930   1.6169   1.6521   1.7078   1.7178   1.7342   1.7664
     1.8540   1.8670   1.8827   1.8957   1.9099   1.9264   1.9594   1.9842
     2.1067   2.1332   2.1526   2.1570   2.1764   2.2587   2.3935   2.4823
     2.5742   2.6930   2.8864   3.1760   3.1909   3.3397   3.4580   3.4702
     3.8413   3.9087   4.0563   4.1922   4.4474   4.4896   4.5969   4.6444
     4.7080   4.8871   4.9954   5.3595   5.4419   5.6365   5.8484   6.2441
     6.3031   6.7233   6.8544   6.9418

          k = 0.2000-0.1155 0.0000 ( 86616 PWs)   bands (ev):

   -10.4973  -6.6584  -5.5027  -5.0993  -4.9106  -4.5503  -4.5208  -4.3015
    -4.2536  -4.2019  -4.1811  -4.1496  -4.0325  -3.9961  -3.9433  -3.8024
    -3.7789  -3.7626  -3.6497  -3.6093  -3.4608  -3.3634  -3.3333  -3.3310
    -3.2541  -3.2479  -3.2180  -3.1623  -3.1590  -3.0984  -3.0829  -3.0626
    -3.0334  -3.0221  -2.9580  -2.9567  -2.8308  -2.8258  -2.7528  -2.7278
    -2.7047  -2.5476  -2.4778  -2.4695  -2.4204  -2.4198  -2.3893  -2.3766
    -2.2743  -2.2671  -2.2353  -2.1451  -2.1365  -2.0544  -2.0469  -2.0079
    -1.9538  -1.9378  -1.7695  -1.6900  -1.6840  -1.6481  -1.6352  -1.5970
    -1.5504  -1.5455  -1.5241  -1.5052  -1.4713  -1.4206  -1.3866  -1.3513
    -1.3386  -1.3143  -1.2957  -1.2348  -1.2227  -1.2096  -1.1374  -1.1348
    -1.1177  -1.0866  -1.0676  -1.0525  -1.0282  -0.9929  -0.9590  -0.9466
    -0.9142  -0.8995  -0.8793  -0.8693  -0.8518  -0.8200  -0.7878  -0.7794
    -0.7465  -0.7412  -0.7103  -0.6886  -0.6795  -0.6352  -0.5999  -0.5920
    -0.5753  -0.5212  -0.4901  -0.4851  -0.4590  -0.4263  -0.4246  -0.3920
    -0.3919  -0.2731  -0.2290  -0.1762  -0.0585  -0.0279   0.0012   0.0291
     0.0317   0.0545   0.0713   0.1370   0.2283   0.2911   0.3130   0.3245
     0.3775   0.3870   0.4077   0.4214   0.4385   0.4581   0.4794   0.4977
     0.6167   0.6433   0.6490   0.6636   0.6891   0.7507   0.7911   0.8358
     0.8367   0.8636   0.8813   0.9428   0.9511   1.0057   1.0156   1.0327
     1.0474   1.0898   1.1090   1.1701   1.1726   1.2158   1.2268   1.2358
     1.2550   1.2949   1.3608   1.3877   1.3914   1.4444   1.4775   1.5175
     1.5240   1.5395   1.5660   1.5742   1.5853   1.6438   1.6514   1.6555
     1.6809   1.6949   1.7322   1.7365   1.8138   1.8389   1.8779   1.9017
     1.9285   1.9356   1.9596   1.9880   2.0017   2.0209   2.0593   2.0994
     2.1447   2.1952   2.2576   2.2990   2.3185   2.3736   2.5675   2.6987
     2.9973   3.2839   3.5137   3.5847   3.9053   4.0904   4.6899   4.9821
     5.2120   5.5014   5.6607   5.8125   5.9926   5.9990   6.5063   6.6459
     6.7419   6.9662   7.0583   7.0948

          k = 0.2000 0.1155 0.0000 ( 86616 PWs)   bands (ev):

   -10.4972  -6.6584  -5.5027  -5.0993  -4.9107  -4.5502  -4.5209  -4.3015
    -4.2537  -4.2018  -4.1811  -4.1497  -4.0325  -3.9959  -3.9433  -3.8024
    -3.7789  -3.7624  -3.6497  -3.6095  -3.4608  -3.3635  -3.3333  -3.3310
    -3.2541  -3.2479  -3.2180  -3.1622  -3.1590  -3.0983  -3.0829  -3.0628
    -3.0336  -3.0220  -2.9580  -2.9566  -2.8307  -2.8259  -2.7529  -2.7278
    -2.7047  -2.5478  -2.4781  -2.4692  -2.4204  -2.4198  -2.3894  -2.3763
    -2.2745  -2.2672  -2.2354  -2.1451  -2.1363  -2.0545  -2.0466  -2.0080
    -1.9538  -1.9378  -1.7696  -1.6901  -1.6841  -1.6484  -1.6351  -1.5972
    -1.5505  -1.5452  -1.5240  -1.5051  -1.4713  -1.4207  -1.3866  -1.3515
    -1.3386  -1.3144  -1.2957  -1.2344  -1.2225  -1.2095  -1.1375  -1.1348
    -1.1178  -1.0865  -1.0677  -1.0525  -1.0285  -0.9928  -0.9591  -0.9465
    -0.9142  -0.8995  -0.8792  -0.8692  -0.8517  -0.8199  -0.7879  -0.7795
    -0.7464  -0.7413  -0.7102  -0.6887  -0.6796  -0.6352  -0.5997  -0.5922
    -0.5754  -0.5211  -0.4899  -0.4849  -0.4590  -0.4264  -0.4246  -0.3920
    -0.3919  -0.2725  -0.2293  -0.1765  -0.0586  -0.0278   0.0012   0.0292
     0.0318   0.0546   0.0712   0.1370   0.2284   0.2912   0.3128   0.3247
     0.3776   0.3869   0.4079   0.4211   0.4388   0.4581   0.4794   0.4976
     0.6167   0.6433   0.6490   0.6636   0.6894   0.7506   0.7912   0.8359
     0.8369   0.8638   0.8812   0.9429   0.9511   1.0057   1.0156   1.0326
     1.0473   1.0897   1.1091   1.1701   1.1727   1.2157   1.2268   1.2358
     1.2550   1.2950   1.3607   1.3877   1.3914   1.4443   1.4777   1.5175
     1.5239   1.5395   1.5660   1.5742   1.5853   1.6438   1.6514   1.6554
     1.6809   1.6949   1.7323   1.7366   1.8137   1.8389   1.8780   1.9016
     1.9285   1.9354   1.9595   1.9879   2.0015   2.0208   2.0592   2.0994
     2.1447   2.1952   2.2576   2.2989   2.3185   2.3737   2.5676   2.6984
     2.9971   3.2838   3.5138   3.5849   3.9052   4.0906   4.6899   4.9820
     5.2117   5.5014   5.6608   5.8126   5.9923   5.9993   6.5063   6.6461
     6.7421   6.9659   7.0586   7.0946

          k = 0.2000 0.3464 0.0000 ( 86638 PWs)   bands (ev):

   -10.4930  -6.3787  -5.3344  -5.1841  -5.1737  -4.9210  -4.2654  -4.1824
    -4.0845  -4.0793  -4.0511  -4.0260  -3.9906  -3.9202  -3.8990  -3.8454
    -3.7380  -3.6339  -3.5113  -3.4951  -3.4870  -3.4584  -3.3910  -3.3583
    -3.2817  -3.2772  -3.2403  -3.1821  -3.1601  -3.1429  -3.1149  -3.0612
    -3.0398  -3.0134  -2.9999  -2.9521  -2.8722  -2.8301  -2.6839  -2.6306
    -2.5992  -2.5322  -2.5158  -2.4850  -2.4491  -2.4204  -2.3980  -2.3401
    -2.2923  -2.2694  -2.2299  -2.1964  -2.1443  -2.1002  -2.0831  -2.0156
    -2.0048  -1.9545  -1.9338  -1.9204  -1.7950  -1.7808  -1.7383  -1.7055
    -1.6773  -1.6288  -1.6225  -1.5991  -1.5714  -1.5334  -1.4232  -1.4094
    -1.3983  -1.3757  -1.3535  -1.3362  -1.2714  -1.2466  -1.2163  -1.1931
    -1.1249  -1.1040  -1.0926  -1.0695  -1.0551  -1.0472  -1.0362  -0.9894
    -0.9809  -0.9523  -0.9468  -0.9154  -0.8436  -0.8367  -0.8056  -0.7874
    -0.7829  -0.7595  -0.7372  -0.7053  -0.6862  -0.6726  -0.6500  -0.6490
    -0.6436  -0.6237  -0.5953  -0.5086  -0.5000  -0.4459  -0.3925  -0.3663
    -0.3491  -0.3260  -0.2250  -0.2081  -0.1566  -0.1137  -0.0969  -0.0171
     0.0112   0.0194   0.0505   0.0911   0.1021   0.1445   0.1699   0.1781
     0.2460   0.2639   0.3299   0.3780   0.3920   0.4198   0.4427   0.4757
     0.5242   0.5487   0.5914   0.6218   0.6429   0.7103   0.7266   0.7550
     0.7715   0.7957   0.8541   0.8889   0.9160   0.9566   0.9780   0.9891
     1.0036   1.0232   1.0374   1.0567   1.0850   1.1489   1.1931   1.2768
     1.3003   1.3525   1.4238   1.5201   1.5329   1.5385   1.5722   1.5884
     1.6395   1.6791   1.6932   1.7089   1.7354   1.7459   1.7610   1.7824
     1.7958   1.8239   1.8488   1.8862   1.9151   1.9325   1.9556   1.9797
     2.0298   2.0973   2.1488   2.1948   2.2172   2.2262   2.2656   2.3027
     2.3630   2.4260   2.6070   2.8637   2.9603   3.1622   3.2432   3.4623
     3.4999   3.6199   3.9934   4.0804   4.3177   4.3996   4.4630   4.6259
     4.7460   5.3517   5.4904   5.6713   5.7770   5.9663   6.1740   6.3733
     6.4306   6.4450   6.5761   6.7561

          k = 0.2000-0.5774 0.0000 ( 86630 PWs)   bands (ev):

   -10.4904  -5.8727  -5.8374  -5.2816  -5.1669  -4.7081  -4.5177  -4.1789
    -4.0707  -4.0084  -3.9318  -3.8583  -3.7960  -3.7819  -3.7368  -3.6737
    -3.6247  -3.5770  -3.5728  -3.5463  -3.5137  -3.4854  -3.4602  -3.4015
    -3.3537  -3.3450  -3.3301  -3.3074  -3.2273  -3.2037  -3.1004  -3.0479
    -3.0207  -2.9702  -2.9436  -2.9071  -2.8901  -2.7692  -2.7292  -2.6913
    -2.6062  -2.6020  -2.5284  -2.5011  -2.4689  -2.3975  -2.3556  -2.3066
    -2.2690  -2.2098  -2.1745  -2.1467  -2.1193  -2.0847  -2.0501  -2.0169
    -2.0052  -1.9473  -1.9421  -1.9084  -1.8938  -1.8707  -1.8508  -1.8223
    -1.7880  -1.7615  -1.7016  -1.6586  -1.6271  -1.5951  -1.5021  -1.4708
    -1.4657  -1.4345  -1.4053  -1.3867  -1.3576  -1.3225  -1.2695  -1.2642
    -1.2530  -1.2153  -1.1826  -1.1422  -1.0888  -1.0641  -1.0488  -1.0274
    -1.0117  -0.9387  -0.9113  -0.8712  -0.8643  -0.8377  -0.8040  -0.7828
    -0.7612  -0.7593  -0.7365  -0.7219  -0.6891  -0.6688  -0.6533  -0.6386
    -0.6057  -0.5958  -0.5906  -0.5802  -0.5460  -0.5319  -0.5000  -0.3426
    -0.3074  -0.2649  -0.2335  -0.1934  -0.1315  -0.1074  -0.0806  -0.0643
    -0.0434  -0.0082   0.0172   0.0228   0.0473   0.0826   0.1202   0.1635
     0.1821   0.2534   0.2719   0.2782   0.3426   0.3489   0.4451   0.4862
     0.5057   0.5313   0.5819   0.6144   0.6321   0.6544   0.6867   0.7007
     0.7299   0.7407   0.8094   0.8253   0.8510   0.8562   0.9135   0.9328
     0.9736   0.9767   1.0397   1.0964   1.1823   1.2101   1.2700   1.3302
     1.3762   1.3948   1.4411   1.4579   1.5248   1.5258   1.5766   1.6226
     1.6607   1.6835   1.7139   1.7363   1.7504   1.8001   1.8128   1.8658
     1.8812   1.8876   1.9055   1.9456   1.9544   1.9666   2.0342   2.0596
     2.1118   2.1511   2.1814   2.1844   2.2350   2.2657   2.3064   2.4196
     2.8428   3.0696   3.2424   3.3463   3.4186   3.5896   3.6457   3.6583
     3.8519   4.0429   4.1941   4.3713   4.4772   4.4948   4.8300   4.8412
     5.0440   5.0692   5.1806   5.2378   5.3570   5.5032   5.6873   5.7361
     6.0320   6.3305   6.4133   6.4792

          k = 0.2000-0.3464 0.0000 ( 86638 PWs)   bands (ev):

   -10.4930  -6.3787  -5.3345  -5.1840  -5.1738  -4.9209  -4.2652  -4.1826
    -4.0846  -4.0793  -4.0511  -4.0260  -3.9905  -3.9203  -3.8988  -3.8455
    -3.7382  -3.6340  -3.5114  -3.4950  -3.4870  -3.4583  -3.3910  -3.3583
    -3.2817  -3.2771  -3.2402  -3.1821  -3.1602  -3.1427  -3.1149  -3.0610
    -3.0398  -3.0133  -2.9998  -2.9523  -2.8724  -2.8300  -2.6832  -2.6307
    -2.5992  -2.5323  -2.5159  -2.4850  -2.4490  -2.4204  -2.3980  -2.3402
    -2.2921  -2.2695  -2.2299  -2.1963  -2.1444  -2.1004  -2.0831  -2.0156
    -2.0048  -1.9545  -1.9337  -1.9205  -1.7950  -1.7807  -1.7382  -1.7054
    -1.6769  -1.6288  -1.6226  -1.5990  -1.5713  -1.5334  -1.4231  -1.4094
    -1.3984  -1.3758  -1.3538  -1.3363  -1.2713  -1.2466  -1.2163  -1.1930
    -1.1248  -1.1037  -1.0923  -1.0696  -1.0551  -1.0475  -1.0362  -0.9895
    -0.9807  -0.9523  -0.9472  -0.9156  -0.8435  -0.8368  -0.8055  -0.7874
    -0.7828  -0.7594  -0.7372  -0.7054  -0.6862  -0.6728  -0.6501  -0.6490
    -0.6436  -0.6235  -0.5953  -0.5084  -0.5000  -0.4458  -0.3927  -0.3664
    -0.3494  -0.3259  -0.2250  -0.2084  -0.1564  -0.1138  -0.0968  -0.0171
     0.0112   0.0192   0.0503   0.0911   0.1022   0.1446   0.1700   0.1781
     0.2459   0.2643   0.3297   0.3778   0.3919   0.4198   0.4427   0.4755
     0.5239   0.5488   0.5913   0.6218   0.6429   0.7103   0.7265   0.7549
     0.7714   0.7956   0.8540   0.8891   0.9160   0.9566   0.9780   0.9892
     1.0037   1.0232   1.0373   1.0568   1.0850   1.1489   1.1930   1.2768
     1.3003   1.3525   1.4238   1.5201   1.5329   1.5383   1.5722   1.5884
     1.6395   1.6791   1.6933   1.7088   1.7354   1.7459   1.7610   1.7824
     1.7957   1.8240   1.8489   1.8863   1.9150   1.9326   1.9556   1.9797
     2.0297   2.0973   2.1490   2.1949   2.2173   2.2263   2.2658   2.3026
     2.3630   2.4260   2.6074   2.8637   2.9601   3.1620   3.2435   3.4624
     3.5000   3.6205   3.9932   4.0803   4.3177   4.3996   4.4630   4.6261
     4.7462   5.3514   5.4908   5.6713   5.7773   5.9662   6.1737   6.3732
     6.4306   6.4450   6.5760   6.7558

          k = 0.4000-0.2309 0.0000 ( 86644 PWs)   bands (ev):

   -10.4920  -6.2446  -5.6241  -5.2660  -4.8965  -4.5796  -4.5715  -4.4216
    -4.1804  -4.0492  -3.9547  -3.9531  -3.9030  -3.8170  -3.7877  -3.7261
    -3.6178  -3.6173  -3.5835  -3.5126  -3.4773  -3.4672  -3.4208  -3.4017
    -3.3706  -3.3410  -3.3092  -3.2925  -3.2331  -3.2120  -3.0142  -2.9978
    -2.9812  -2.9680  -2.8925  -2.8507  -2.7552  -2.7501  -2.7331  -2.7184
    -2.6382  -2.5766  -2.5735  -2.5055  -2.4370  -2.3993  -2.3741  -2.3472
    -2.3036  -2.2926  -2.2409  -2.2299  -2.2175  -2.1907  -2.0813  -2.0468
    -2.0415  -1.9783  -1.9282  -1.8797  -1.8416  -1.8193  -1.8055  -1.7973
    -1.6670  -1.6383  -1.6141  -1.5742  -1.5738  -1.4990  -1.4983  -1.4798
    -1.3870  -1.3602  -1.3496  -1.3046  -1.2624  -1.2622  -1.2133  -1.1921
    -1.1674  -1.1424  -1.1189  -1.1089  -1.0993  -1.0849  -1.0788  -1.0540
    -1.0452  -0.9743  -0.9568  -0.9261  -0.8981  -0.8957  -0.8621  -0.8390
    -0.7868  -0.7567  -0.7185  -0.7059  -0.6753  -0.6575  -0.6428  -0.6059
    -0.5797  -0.5501  -0.4921  -0.4475  -0.4383  -0.4045  -0.3615  -0.3074
    -0.2717  -0.2191  -0.1578  -0.1564  -0.1488  -0.0971  -0.0537  -0.0397
    -0.0313   0.0069   0.0346   0.0621   0.0666   0.0966   0.1090   0.1126
     0.1428   0.2028   0.2610   0.2645   0.3175   0.3471   0.4096   0.4223
     0.4678   0.5521   0.5536   0.6254   0.6414   0.6792   0.7575   0.7613
     0.8297   0.8330   0.8795   0.9008   0.9082   0.9339   0.9745   0.9762
     1.0013   1.0781   1.0805   1.1316   1.1521   1.1809   1.1856   1.2341
     1.2976   1.3317   1.3952   1.4258   1.4525   1.4924   1.5585   1.5642
     1.5883   1.5930   1.6169   1.6521   1.7078   1.7178   1.7342   1.7664
     1.8540   1.8671   1.8827   1.8957   1.9099   1.9264   1.9594   1.9841
     2.1067   2.1332   2.1525   2.1570   2.1764   2.2587   2.3935   2.4824
     2.5742   2.6930   2.8863   3.1760   3.1909   3.3397   3.4579   3.4702
     3.8413   3.9087   4.0563   4.1921   4.4474   4.4895   4.5969   4.6444
     4.7081   4.8871   4.9954   5.3595   5.4419   5.6365   5.8485   6.2441
     6.3031   6.7233   6.8546   6.9418

          k = 0.4000-0.0000 0.0000 ( 86638 PWs)   bands (ev):

   -10.4930  -6.3787  -5.3344  -5.1841  -5.1737  -4.9210  -4.2654  -4.1824
    -4.0845  -4.0793  -4.0511  -4.0260  -3.9906  -3.9202  -3.8990  -3.8454
    -3.7380  -3.6339  -3.5113  -3.4951  -3.4870  -3.4584  -3.3910  -3.3583
    -3.2817  -3.2772  -3.2404  -3.1821  -3.1601  -3.1430  -3.1149  -3.0612
    -3.0398  -3.0134  -2.9999  -2.9521  -2.8722  -2.8301  -2.6840  -2.6305
    -2.5992  -2.5322  -2.5158  -2.4850  -2.4492  -2.4203  -2.3980  -2.3401
    -2.2923  -2.2694  -2.2299  -2.1964  -2.1443  -2.1001  -2.0831  -2.0156
    -2.0048  -1.9545  -1.9338  -1.9204  -1.7949  -1.7808  -1.7383  -1.7055
    -1.6773  -1.6288  -1.6224  -1.5991  -1.5715  -1.5334  -1.4232  -1.4094
    -1.3983  -1.3757  -1.3534  -1.3362  -1.2714  -1.2466  -1.2163  -1.1931
    -1.1249  -1.1041  -1.0926  -1.0695  -1.0551  -1.0472  -1.0362  -0.9894
    -0.9809  -0.9523  -0.9467  -0.9153  -0.8436  -0.8366  -0.8056  -0.7874
    -0.7829  -0.7596  -0.7372  -0.7052  -0.6862  -0.6726  -0.6500  -0.6490
    -0.6436  -0.6238  -0.5953  -0.5087  -0.5000  -0.4459  -0.3925  -0.3663
    -0.3491  -0.3260  -0.2250  -0.2080  -0.1566  -0.1137  -0.0969  -0.0172
     0.0112   0.0194   0.0505   0.0911   0.1021   0.1445   0.1699   0.1782
     0.2460   0.2638   0.3299   0.3781   0.3920   0.4198   0.4427   0.4757
     0.5242   0.5487   0.5914   0.6218   0.6428   0.7102   0.7266   0.7550
     0.7715   0.7957   0.8541   0.8889   0.9160   0.9566   0.9780   0.9891
     1.0036   1.0232   1.0374   1.0567   1.0851   1.1489   1.1931   1.2768
     1.3003   1.3525   1.4238   1.5201   1.5329   1.5385   1.5721   1.5884
     1.6396   1.6790   1.6932   1.7089   1.7354   1.7459   1.7611   1.7825
     1.7958   1.8239   1.8488   1.8862   1.9151   1.9325   1.9556   1.9797
     2.0298   2.0973   2.1488   2.1948   2.2172   2.2261   2.2656   2.3027
     2.3630   2.4260   2.6070   2.8637   2.9603   3.1622   3.2432   3.4623
     3.4999   3.6198   3.9934   4.0804   4.3177   4.3996   4.4630   4.6259
     4.7460   5.3518   5.4904   5.6713   5.7769   5.9663   6.1740   6.3734
     6.4306   6.4450   6.5761   6.7559

          k = 0.4000 0.2309 0.0000 ( 86644 PWs)   bands (ev):

   -10.4920  -6.2446  -5.6241  -5.2660  -4.8966  -4.5795  -4.5716  -4.4216
    -4.1803  -4.0492  -3.9541  -3.9532  -3.9030  -3.8171  -3.7877  -3.7261
    -3.6179  -3.6173  -3.5835  -3.5125  -3.4773  -3.4673  -3.4208  -3.4017
    -3.3706  -3.3410  -3.3093  -3.2924  -3.2331  -3.2121  -3.0143  -2.9978
    -2.9813  -2.9680  -2.8926  -2.8507  -2.7555  -2.7502  -2.7331  -2.7185
    -2.6388  -2.5767  -2.5734  -2.5056  -2.4370  -2.3992  -2.3740  -2.3473
    -2.3035  -2.2925  -2.2410  -2.2296  -2.2176  -2.1908  -2.0814  -2.0468
    -2.0416  -1.9783  -1.9279  -1.8798  -1.8418  -1.8195  -1.8056  -1.7971
    -1.6670  -1.6384  -1.6140  -1.5742  -1.5736  -1.4992  -1.4981  -1.4797
    -1.3869  -1.3600  -1.3495  -1.3046  -1.2624  -1.2624  -1.2135  -1.1921
    -1.1674  -1.1425  -1.1190  -1.1089  -1.0994  -1.0848  -1.0789  -1.0539
    -1.0454  -0.9742  -0.9568  -0.9262  -0.8981  -0.8955  -0.8622  -0.8389
    -0.7868  -0.7566  -0.7183  -0.7059  -0.6753  -0.6574  -0.6425  -0.6059
    -0.5796  -0.5500  -0.4921  -0.4474  -0.4383  -0.4044  -0.3611  -0.3073
    -0.2713  -0.2192  -0.1577  -0.1564  -0.1487  -0.0973  -0.0540  -0.0395
    -0.0316   0.0069   0.0345   0.0621   0.0666   0.0962   0.1089   0.1129
     0.1429   0.2027   0.2610   0.2646   0.3176   0.3473   0.4096   0.4222
     0.4678   0.5524   0.5538   0.6257   0.6413   0.6791   0.7577   0.7613
     0.8299   0.8328   0.8796   0.9008   0.9082   0.9341   0.9744   0.9762
     1.0013   1.0780   1.0804   1.1316   1.1520   1.1810   1.1859   1.2341
     1.2976   1.3318   1.3952   1.4258   1.4523   1.4924   1.5585   1.5641
     1.5882   1.5930   1.6169   1.6522   1.7079   1.7177   1.7343   1.7665
     1.8540   1.8671   1.8826   1.8957   1.9098   1.9264   1.9592   1.9840
     2.1065   2.1330   2.1525   2.1570   2.1763   2.2586   2.3935   2.4826
     2.5742   2.6927   2.8864   3.1758   3.1909   3.3397   3.4576   3.4701
     3.8414   3.9086   4.0561   4.1919   4.4474   4.4894   4.5967   4.6445
     4.7082   4.8870   4.9952   5.3595   5.4420   5.6364   5.8486   6.2441
     6.3035   6.7234   6.8545   6.9418

          k = 0.4000-0.6928 0.0000 ( 86630 PWs)   bands (ev):

   -10.4904  -5.8728  -5.8373  -5.2817  -5.1668  -4.7083  -4.5177  -4.1786
    -4.0705  -4.0085  -3.9318  -3.8583  -3.7961  -3.7819  -3.7368  -3.6736
    -3.6245  -3.5771  -3.5729  -3.5463  -3.5140  -3.4855  -3.4602  -3.4013
    -3.3538  -3.3450  -3.3300  -3.3074  -3.2275  -3.2037  -3.1005  -3.0478
    -3.0208  -2.9703  -2.9437  -2.9072  -2.8902  -2.7694  -2.7292  -2.6914
    -2.6062  -2.6022  -2.5284  -2.5010  -2.4689  -2.3976  -2.3559  -2.3062
    -2.2690  -2.2098  -2.1745  -2.1464  -2.1193  -2.0849  -2.0504  -2.0169
    -2.0053  -1.9472  -1.9419  -1.9085  -1.8938  -1.8707  -1.8508  -1.8223
    -1.7881  -1.7615  -1.7019  -1.6584  -1.6271  -1.5951  -1.5019  -1.4709
    -1.4656  -1.4343  -1.4053  -1.3867  -1.3577  -1.3227  -1.2693  -1.2643
    -1.2532  -1.2153  -1.1826  -1.1420  -1.0890  -1.0640  -1.0489  -1.0273
    -1.0117  -0.9384  -0.9114  -0.8714  -0.8644  -0.8377  -0.8041  -0.7828
    -0.7611  -0.7593  -0.7363  -0.7218  -0.6890  -0.6689  -0.6531  -0.6388
    -0.6057  -0.5956  -0.5905  -0.5803  -0.5460  -0.5319  -0.5000  -0.3424
    -0.3075  -0.2650  -0.2334  -0.1933  -0.1314  -0.1076  -0.0806  -0.0645
    -0.0435  -0.0082   0.0172   0.0227   0.0474   0.0826   0.1201   0.1634
     0.1824   0.2535   0.2720   0.2782   0.3428   0.3490   0.4453   0.4860
     0.5058   0.5310   0.5818   0.6145   0.6321   0.6545   0.6867   0.7006
     0.7299   0.7408   0.8095   0.8253   0.8510   0.8561   0.9134   0.9328
     0.9737   0.9767   1.0400   1.0964   1.1823   1.2101   1.2699   1.3301
     1.3762   1.3947   1.4411   1.4579   1.5248   1.5258   1.5766   1.6226
     1.6608   1.6836   1.7139   1.7364   1.7504   1.8000   1.8127   1.8658
     1.8811   1.8877   1.9054   1.9456   1.9544   1.9666   2.0342   2.0596
     2.1118   2.1510   2.1813   2.1842   2.2350   2.2655   2.3065   2.4196
     2.8425   3.0697   3.2422   3.3463   3.4185   3.5895   3.6457   3.6586
     3.8519   4.0428   4.1938   4.3713   4.4771   4.4944   4.8302   4.8411
     5.0439   5.0693   5.1802   5.2378   5.3573   5.5033   5.6870   5.7363
     6.0321   6.3305   6.4135   6.4797

          k = 0.4000-0.4619 0.0000 ( 86630 PWs)   bands (ev):

   -10.4904  -5.8727  -5.8374  -5.2816  -5.1669  -4.7081  -4.5177  -4.1789
    -4.0706  -4.0084  -3.9318  -3.8583  -3.7960  -3.7819  -3.7368  -3.6737
    -3.6247  -3.5770  -3.5728  -3.5463  -3.5138  -3.4855  -3.4602  -3.4015
    -3.3537  -3.3450  -3.3301  -3.3074  -3.2274  -3.2037  -3.1004  -3.0479
    -3.0207  -2.9702  -2.9436  -2.9071  -2.8901  -2.7692  -2.7292  -2.6913
    -2.6062  -2.6021  -2.5284  -2.5011  -2.4689  -2.3975  -2.3557  -2.3065
    -2.2690  -2.2098  -2.1745  -2.1467  -2.1193  -2.0847  -2.0501  -2.0169
    -2.0052  -1.9473  -1.9421  -1.9084  -1.8938  -1.8707  -1.8508  -1.8223
    -1.7881  -1.7615  -1.7017  -1.6586  -1.6271  -1.5951  -1.5021  -1.4708
    -1.4657  -1.4345  -1.4053  -1.3867  -1.3576  -1.3225  -1.2694  -1.2642
    -1.2530  -1.2153  -1.1826  -1.1421  -1.0888  -1.0641  -1.0488  -1.0273
    -1.0117  -0.9387  -0.9113  -0.8712  -0.8643  -0.8377  -0.8040  -0.7828
    -0.7612  -0.7593  -0.7364  -0.7219  -0.6890  -0.6689  -0.6533  -0.6386
    -0.6057  -0.5958  -0.5906  -0.5802  -0.5460  -0.5319  -0.5000  -0.3426
    -0.3074  -0.2649  -0.2335  -0.1934  -0.1315  -0.1075  -0.0806  -0.0643
    -0.0434  -0.0082   0.0172   0.0228   0.0473   0.0826   0.1201   0.1635
     0.1822   0.2534   0.2719   0.2782   0.3427   0.3489   0.4451   0.4862
     0.5057   0.5313   0.5819   0.6144   0.6321   0.6544   0.6867   0.7007
     0.7299   0.7407   0.8095   0.8253   0.8510   0.8562   0.9135   0.9327
     0.9736   0.9767   1.0398   1.0964   1.1823   1.2101   1.2700   1.3302
     1.3762   1.3948   1.4411   1.4579   1.5248   1.5258   1.5766   1.6226
     1.6607   1.6835   1.7139   1.7363   1.7504   1.8001   1.8128   1.8658
     1.8811   1.8876   1.9055   1.9456   1.9544   1.9666   2.0342   2.0596
     2.1118   2.1511   2.1814   2.1843   2.2350   2.2656   2.3064   2.4196
     2.8428   3.0696   3.2424   3.3463   3.4186   3.5896   3.6457   3.6583
     3.8519   4.0429   4.1941   4.3713   4.4772   4.4947   4.8300   4.8412
     5.0440   5.0692   5.1805   5.2378   5.3570   5.5032   5.6873   5.7361
     6.0320   6.3305   6.4134   6.4793

     the Fermi energy is     1.9563 ev

!    total energy              =  -27774.49417659 Ry

     total all-electron energy =  -1326719.023690 Ry
     estimated scf accuracy    <       0.00000085 Ry
     smearing contrib. (-TS)   =       0.00481727 Ry
     internal energy E=F+TS    =  -27774.49899387 Ry

     The total energy is F=E-TS. E is the sum of the following terms:
     one-electron contribution =  -25400.10455511 Ry
     hartree contribution      =   13001.04157533 Ry
     xc contribution           =    -895.49631080 Ry
     ewald contribution        =   11000.59630110 Ry
     one-center paw contrib.   =  -25480.53600439 Ry

     convergence has been achieved in  17 iterations

     negative rho (up, down):  1.304E-02 0.000E+00

     Forces acting on atoms (cartesian axes, Ry/au):

     atom    1 type  1   force =     0.00005302    0.00002842   -0.00325048
     atom    2 type  1   force =    -0.00008513    0.00005416   -0.00324149
     atom    3 type  1   force =     0.00000061    0.00093894   -0.00405393
     atom    4 type  1   force =     0.00000318   -0.00011912   -0.00324615
     atom    5 type  1   force =     0.00035153    0.00018571   -0.00402535
     atom    6 type  1   force =    -0.00038762    0.00017406   -0.00403253
     atom    7 type  1   force =     0.00081671   -0.00044885   -0.00406748
     atom    8 type  1   force =    -0.00002821   -0.00041083   -0.00403856
     atom    9 type  1   force =    -0.00080793   -0.00044568   -0.00407682
     atom   10 type  1   force =    -0.00001406   -0.00001888    0.01069900
     atom   11 type  1   force =    -0.00007058   -0.00163674    0.00419840
     atom   12 type  1   force =     0.00002748   -0.00167085    0.00416273
     atom   13 type  1   force =    -0.00142630    0.00073076    0.00419263
     atom   14 type  1   force =    -0.00003569   -0.00002776    0.00166356
     atom   15 type  1   force =     0.00141323    0.00070792    0.00415544
     atom   16 type  1   force =    -0.00142373    0.00087583    0.00415507
     atom   17 type  1   force =     0.00135633    0.00089112    0.00415815
     atom   18 type  1   force =    -0.00000982    0.00002805   -0.00754596
     atom   19 type  1   force =     0.00017140   -0.00014539    0.00010390
     atom   20 type  1   force =    -0.00019671   -0.00013824    0.00006850
     atom   21 type  1   force =    -0.00006644   -0.00058183   -0.00024112
     atom   22 type  1   force =     0.00003018   -0.00041872    0.00074591
     atom   23 type  1   force =    -0.00050579    0.00021087   -0.00023748
     atom   24 type  1   force =     0.00039423    0.00022396   -0.00025272
     atom   25 type  1   force =     0.00031619    0.00021108    0.00064624
     atom   26 type  1   force =    -0.00002521    0.00023564    0.00010059
     atom   27 type  1   force =    -0.00035328    0.00027024    0.00071589
     atom   28 type  1   force =     0.00031397    0.00019029    0.00007302
     atom   29 type  1   force =    -0.00033827    0.00018766    0.00002873
     atom   30 type  1   force =    -0.00004130    0.00000861    0.00035744
     atom   31 type  1   force =    -0.00001340   -0.00039358    0.00003338
     atom   32 type  1   force =    -0.00057791   -0.00033526    0.00064036
     atom   33 type  1   force =     0.00052103   -0.00033487    0.00069350
     atom   34 type  1   force =    -0.00002156   -0.00004405    0.00037148
     atom   35 type  1   force =    -0.00003377    0.00060065    0.00070241
     atom   36 type  1   force =    -0.00000760   -0.00001667    0.00035464
     atom   37 type  2   force =     0.00067329    0.00040969    0.01147151
     atom   38 type  3   force =     0.00002796    0.00002365   -0.01218243

     Total force =     0.016949     Total SCF correction =     0.000879

     negative rho (up, down):  1.304E-02 0.000E+00

     negative rho (up, down):  1.304E-02 0.000E+00

     negative rho (up, down):  1.304E-02 0.000E+00

     negative rho (up, down):  1.304E-02 0.000E+00

     negative rho (up, down):  1.304E-02 0.000E+00

     negative rho (up, down):  1.304E-02 0.000E+00

     negative rho (up, down):  1.304E-02 0.000E+00

     negative rho (up, down):  1.304E-02 0.000E+00

     negative rho (up, down):  1.304E-02 0.000E+00

     negative rho (up, down):  1.304E-02 0.000E+00

     negative rho (up, down):  1.304E-02 0.000E+00

     negative rho (up, down):  1.304E-02 0.000E+00

     negative rho (up, down):  1.304E-02 0.000E+00

     negative rho (up, down):  1.304E-02 0.000E+00

     negative rho (up, down):  1.304E-02 0.000E+00

     negative rho (up, down):  1.304E-02 0.000E+00

     negative rho (up, down):  1.304E-02 0.000E+00

     negative rho (up, down):  1.304E-02 0.000E+00

     negative rho (up, down):  1.304E-02 0.000E+00

     negative rho (up, down):  1.304E-02 0.000E+00

     negative rho (up, down):  1.304E-02 0.000E+00

     negative rho (up, down):  1.304E-02 0.000E+00

     negative rho (up, down):  1.304E-02 0.000E+00

     negative rho (up, down):  1.304E-02 0.000E+00

     negative rho (up, down):  1.304E-02 0.000E+00

     negative rho (up, down):  1.304E-02 0.000E+00

     negative rho (up, down):  1.304E-02 0.000E+00

     negative rho (up, down):  1.304E-02 0.000E+00

     negative rho (up, down):  1.304E-02 0.000E+00

     negative rho (up, down):  1.304E-02 0.000E+00

     negative rho (up, down):  1.304E-02 0.000E+00

     negative rho (up, down):  1.304E-02 0.000E+00

     negative rho (up, down):  1.304E-02 0.000E+00

     negative rho (up, down):  1.304E-02 0.000E+00
 BEEFens 2000 ensemble energies
             -0.598416545653505E+02
             -0.357870052263203E+01
             -0.156660483018968E+02
              0.423871451042278E+02
             -0.218559495937244E+02
             -0.203303052234066E+02
             -0.346132150893258E+02
             -0.852564549098240E+02
             -0.460751277176491E+02
             -0.468326686784931E+02
             -0.364604836129390E+02
              0.217521975612497E+01
              0.400839699038013E+01
              0.770613380652344E+01
              0.260667535002264E+01
              0.468926047995942E+02
             -0.206444576335766E+02
             -0.229114520268754E+02
              0.189986012819767E+02
             -0.110972074876014E+03
              0.529082334687432E+02
             -0.287565228727241E+02
             -0.327520094994675E+01
             -0.113074318773566E+02
             -0.887987678235345E+01
             -0.458384696127527E+01
              0.871655225790298E+02
             -0.183925495941505E+02
             -0.889860655893017E+01
             -0.511119124820314E+02
              0.807124940417477E+02
             -0.186926684451562E+02
             -0.369798466988498E+02
              0.246977494874237E+02
             -0.281427224891166E+01
              0.160272419113155E+02
             -0.489087462090544E+01
              0.108207552806608E+02
              0.283314471290177E+02
             -0.102018815432966E+03
              0.551465768220124E+02
              0.140695654814060E+02
             -0.154957639222579E+01
             -0.357658484188464E+02
              0.121703541405504E+02
             -0.144390752684196E+02
              0.392017503226776E+02
              0.360414812882824E+02
             -0.305917078741026E+02
             -0.271059849397192E+02
             -0.324528492758596E+02
             -0.347341213161305E+02
              0.133355656901028E+02
             -0.484178787899729E+02
              0.113432556714559E+02
              0.615102298928483E+02
              0.625568375867186E+02
              0.351851441374235E+02
              0.152024141485920E+02
              0.266214425725227E+02
              0.879935421550429E+02
              0.210776800677459E+02
             -0.541618887596563E+02
             -0.155941365077881E+02
             -0.232200308234856E+02
              0.621902252706090E+02
             -0.764390099458065E+02
             -0.664359246309897E+02
             -0.255080004252332E+02
             -0.619320786604032E+01
             -0.465931514157029E+02
              0.267225762998243E+02
              0.785453655275273E+01
              0.846797828966100E+01
             -0.392392240375853E+02
             -0.342327144825505E+02
             -0.534267593561818E+02
              0.386633180440213E+02
             -0.291619228800583E+02
              0.261119192341215E+02
             -0.704377433846210E+01
             -0.314554587226601E+02
             -0.570025787131297E+02
             -0.174783473424684E+02
             -0.884179292180238E+01
             -0.122928487413511E+02
              0.407306856666244E+02
              0.672612561870303E+02
             -0.379625689100299E+02
             -0.784476961086830E+02
             -0.217229114665796E+02
              0.110132888937943E+03
             -0.585372304857957E+02
              0.352303639587003E+02
             -0.940374463710646E+01
             -0.655733823956392E+02
              0.250869855334282E+02
              0.394258645836572E+02
             -0.196917360169925E+02
              0.396698922011602E+02
             -0.292957674851291E+02
             -0.470132332653158E+02
              0.853003300425943E+02
              0.448189120576462E+02
              0.333924618937894E+02
              0.144711049544596E+02
              0.202423281554437E+02
              0.846101414890621E+02
             -0.253333175987103E+02
              0.784230349556454E+01
             -0.140645476820235E+03
              0.179069111042283E+02
             -0.707875909246916E+02
              0.149370065881118E+02
              0.201835196754528E+02
             -0.327932363378902E+02
             -0.550984692315086E+02
              0.651944200395235E+01
             -0.300247554018234E+02
              0.302213149408848E+02
             -0.524036308343767E+02
              0.182098390728902E+01
             -0.352046657659201E+02
             -0.418201545326303E+01
             -0.112880886739046E+01
              0.178017682754469E+02
              0.144854657356757E+01
             -0.644321174243021E+01
              0.581725607783160E+02
              0.896531539492565E+02
              0.477844170730404E+02
              0.822269522654227E+02
             -0.113432133767033E+02
              0.142090545916454E+02
              0.534515882557721E+02
             -0.111754834529490E+02
             -0.726089515998426E+02
             -0.378442518730918E+02
             -0.515610023980764E+02
             -0.272988235729711E+02
              0.323979088698878E+02
             -0.115225478173023E+03
             -0.185780404174807E+02
              0.408015610777066E+02
             -0.381132441656577E+02
             -0.362089249478136E+02
              0.536406233713809E+02
              0.394561204962334E+02
             -0.350499932471940E+02
              0.133255632960780E+02
             -0.270048333275325E+02
              0.338395362336046E+02
              0.436772353137502E+01
              0.209792377123568E+02
             -0.874423434705055E+02
             -0.474055907618869E+02
             -0.984112669030128E+01
              0.324788478165480E+01
             -0.361124309761070E+02
              0.104605470469836E+03
             -0.229487168135651E+02
             -0.395298890311674E+02
              0.383885289768625E+02
             -0.488550682573985E+02
             -0.358354444267866E+02
              0.320488722599141E+02
              0.122811150441640E+02
              0.162962583878076E+02
              0.114315001132177E+02
             -0.131482633552545E+02
              0.223980138030791E+02
              0.582620612667924E+02
             -0.308252413621921E+02
              0.159501244476441E+02
              0.923124414780683E+02
              0.336758868076479E+02
             -0.722995856490343E+01
             -0.185929826047477E+02
              0.151351088397723E+03
             -0.160886045723726E+02
              0.358270207047516E+02
              0.190414891352348E+02
              0.358202014588279E+02
              0.880214139330096E+02
              0.537047459620513E+02
             -0.232150351468779E+01
              0.224402168023333E+02
              0.478305954504787E+02
              0.358593751044805E+02
             -0.517647149363148E+02
              0.923979673327364E+02
             -0.814817586501339E+02
             -0.196910461692578E+02
              0.575648012410593E+02
              0.651808998807690E+01
              0.781512508762546E+01
              0.337423953673835E+02
              0.297260759963050E+02
              0.349441920102920E+02
             -0.629621223204865E+02
              0.283617189593519E+01
             -0.294596342855793E+02
             -0.863014672420903E+01
             -0.141890897760732E+01
             -0.706773582331259E+01
             -0.406941505690429E+01
              0.848743017784334E+02
             -0.100361345026929E+02
             -0.272801854380909E+02
             -0.495108965816044E+01
              0.138029101059038E+02
             -0.555786536766474E+02
             -0.399946701084618E+02
             -0.377645346609909E+02
             -0.622346690475553E+02
             -0.167236802391672E+02
             -0.442316172775292E+02
              0.161087218497995E+02
             -0.244002929595534E+01
             -0.102703819403536E+02
             -0.924127080471655E+01
              0.801960610404990E+01
             -0.241324947418596E+02
              0.680986385125449E+02
             -0.795887500813373E+02
             -0.139331468737218E+02
             -0.172317120807916E+02
              0.179995075919527E+02
              0.211538991765852E+02
             -0.457228745073351E+02
             -0.200492439328227E+02
              0.435132931011093E+02
             -0.273724627473648E+02
              0.185243508942798E+02
              0.378618903384792E+02
             -0.321950622663041E+01
              0.112681044298537E+03
             -0.228819287337498E+02
             -0.336769549032214E+02
              0.577859352096499E+01
             -0.224703039732622E+02
              0.520412841069588E+02
             -0.330975262778703E+02
              0.104732107504221E+02
              0.634244559356868E+02
             -0.124632850020167E+02
              0.118743310956677E+03
              0.124242394410593E+03
             -0.641036381014405E+02
              0.583296368898988E+02
              0.163320412917815E+02
             -0.510496540424655E+02
              0.214010681464002E+02
              0.348342191767602E+02
              0.356564177432621E+02
              0.129277141342592E+01
              0.157373298895106E+02
              0.686077315841690E+02
             -0.243976733421891E+02
              0.180086356377027E+02
              0.730327948336188E+02
             -0.367846607888540E+02
             -0.126457685817143E+02
              0.500988895404798E+02
              0.293440453791630E+02
              0.770506983222882E+02
              0.218243047336948E+02
              0.606912079162777E+01
              0.277044050759644E+02
              0.377840744118093E+02
             -0.464873098380035E+02
              0.320202093232422E+01
              0.126152380342360E+02
              0.112246893041730E+02
              0.217413232815616E+02
             -0.566970426806888E+02
              0.362124064978454E+02
             -0.438403437033047E+02
             -0.343473956575268E+02
              0.175451720448566E+02
             -0.180335088114269E+02
              0.547379309688207E+02
             -0.254666074742258E+02
              0.262978814051594E+02
              0.364366955816263E+02
              0.819400928235881E+02
              0.568050982448860E+02
              0.455193041553619E+02
             -0.105487528979701E+02
             -0.376284477131236E+01
             -0.328314016652713E+02
              0.740094115830063E+02
              0.786576260048934E+02
              0.356776907980442E+02
             -0.188297728796366E+02
              0.505572954619641E+02
             -0.162908957762365E+02
              0.212806898434656E+02
              0.605498760685742E+02
              0.217434689690137E+01
             -0.103011782356556E+02
             -0.280538646096111E+02
             -0.503719803668223E+02
              0.933210446520340E+02
              0.433029020285745E+02
             -0.550786526055475E+02
             -0.935446785817464E+01
              0.246605923624275E+02
             -0.983849806089404E+01
              0.583613065596847E+02
              0.150255279684929E+02
              0.788752537279347E+02
              0.275450791180832E+02
             -0.261142080861644E+02
              0.246751485859832E+02
             -0.492515487203832E+01
             -0.320498686618003E+02
              0.131126390444903E+02
              0.203851568370515E+02
              0.921253742563359E+02
              0.787587163873287E+02
              0.543655577645040E+02
              0.722405732317127E+02
              0.792530611117104E+01
             -0.270687733939496E+02
              0.161454044687501E+02
             -0.363659551751570E+02
             -0.468977631721113E+02
             -0.556390658094743E+02
             -0.262377548346983E+02
             -0.108322991321775E+03
             -0.286651777993334E+02
             -0.826172173943754E+02
              0.207373039096843E+02
             -0.471276457310831E+02
              0.390210410215564E+02
             -0.928582548942684E+02
             -0.326380732715530E+02
              0.543708762713340E+02
              0.204940637586408E+02
             -0.819020156272992E+02
              0.624351365767748E+02
             -0.253112213538641E+02
              0.505297435865236E+02
             -0.239138584676075E+02
             -0.741246011966991E+02
              0.109567075277716E+02
             -0.602671807319207E+02
             -0.167806615232539E+02
             -0.145866040456331E+01
              0.412952345575989E+02
              0.125400462071331E+03
             -0.456317267991734E+02
             -0.357816190752000E+02
             -0.894409892788815E+00
             -0.129303897560869E+02
             -0.812358037903720E+02
             -0.589582054029539E+02
              0.511043394245942E+02
             -0.286633948445415E+02
              0.166323045383323E+02
             -0.483020397759923E+02
             -0.129673959159140E+02
             -0.431921838224966E+02
              0.559378740426708E+02
              0.149621108457319E+02
             -0.228613642244957E+02
             -0.124474226301686E+02
              0.650419540504313E+01
             -0.608886468674831E+01
              0.436295596830792E+02
             -0.248647632633928E+02
              0.261082332570174E+01
              0.335120875475890E+02
              0.169724818562839E+02
             -0.156678548232870E+02
              0.154304493676351E+03
              0.530314039579463E+02
              0.103724797159482E+01
              0.160739701037746E+02
             -0.607023654004643E+02
              0.310731847425178E+02
             -0.711698584749051E+02
             -0.247706259235559E+02
             -0.515169358676377E+02
             -0.217763691467080E+02
              0.561747444144021E+02
             -0.529704053976740E+02
              0.157371101593776E+02
             -0.404129163528592E+01
              0.385373218853096E+01
             -0.429832500098195E+02
             -0.473094497169956E+02
             -0.392577211957314E+01
             -0.420902875174396E+02
             -0.214334745853860E+02
             -0.433218620834307E+02
             -0.118585911014444E+02
             -0.354828498520385E+02
             -0.510307493513027E+02
              0.210102443646744E+02
             -0.207621003219596E+02
              0.184755438508454E+02
              0.965136029874282E+01
             -0.728370555194156E+02
             -0.541688298916226E+02
             -0.391753121126228E+02
              0.350073570579682E+02
              0.279054519569823E+01
             -0.618717959745917E+02
              0.578531477761894E+02
             -0.395792475900156E+02
              0.537249018391781E+02
             -0.285555895860246E+02
             -0.439744697372569E+02
              0.295337335914564E+02
             -0.648389762940557E+02
             -0.376000830551953E+02
              0.665333998490485E+02
              0.201537972845123E+02
             -0.354442819286350E+02
              0.482385802207019E+02
             -0.171902825618926E+02
             -0.318115828831689E+02
             -0.297945057352622E+02
             -0.494055494020499E+02
              0.246120735913479E+02
             -0.922113657487689E+02
             -0.830562505667068E+02
             -0.724015631917428E+01
             -0.303173630852665E+02
             -0.567863813013338E+02
              0.712016073087291E+02
              0.129773350044406E+03
             -0.358271843061942E+02
             -0.250428310113210E+01
             -0.629480432410419E+02
              0.642229251048105E+02
              0.167842795974134E+02
             -0.178814876631197E+02
             -0.405498754576350E+02
              0.146745588122335E+02
             -0.578525778215646E+02
             -0.196332127705892E+02
             -0.893646593246219E+02
              0.332447889585800E+02
              0.167620552788557E+02
              0.192952213030776E+01
             -0.691075963123444E+01
             -0.324079696574199E+02
             -0.742651222724959E+01
              0.123787254399510E+03
             -0.197078033114334E+02
             -0.431270319681451E+02
             -0.675075407402084E+02
              0.107505359314715E+02
             -0.337247228491662E+02
              0.577021323609746E+01
              0.257202134597541E+02
              0.101546391579423E+02
              0.273367419365298E+02
              0.117594809066333E+02
              0.622225626987133E+02
              0.313745586692625E+02
             -0.321926615336625E+02
              0.348635219050494E+02
              0.375117848317058E+02
              0.119243514971720E+02
              0.482333135725247E+02
             -0.220667379506765E+02
              0.756499927440850E+02
              0.168879174480472E+02
             -0.267711592608934E+02
             -0.716821077566606E+01
             -0.184336717115252E+02
              0.259966281571821E+02
             -0.231334727708919E+02
              0.329199912487752E-01
             -0.831774810401498E+01
              0.799490977186090E+02
              0.492645918213045E+02
             -0.678909560738132E+02
             -0.464603320059243E+01
             -0.549067227086115E+02
             -0.157876959578100E+02
             -0.265553147124538E+02
              0.360792748767471E+01
              0.632246381755985E+00
             -0.253893622505720E+02
              0.791317248148007E+01
             -0.590615295812310E+01
             -0.127634017064071E+02
              0.847839313409219E+02
              0.179978092719742E+02
             -0.796511203174281E+02
             -0.453740070711913E+02
              0.932669962961763E+02
              0.274740976562223E+02
             -0.105757285463702E+02
              0.103162174526530E+03
             -0.192723381950487E+02
             -0.122133702240995E+02
             -0.524643100193407E+01
              0.105352910514631E+02
              0.268207833681391E+02
              0.776941885715300E+01
              0.301680353037866E+02
             -0.186640598594658E+02
             -0.298608648857160E+02
             -0.412940853909672E+02
             -0.470679754123207E+02
              0.459041033292572E+02
              0.124974624587326E+02
              0.382755470392583E+02
              0.131521627366686E+02
              0.844153811073072E+02
              0.153710968171225E+02
             -0.836286115145624E+02
             -0.330268869976511E+02
              0.133362855993640E+02
             -0.299162078883207E+02
              0.618338542511828E+02
             -0.864760845469004E+01
              0.146516700990074E+02
              0.490036243355901E+02
             -0.697034896165884E+02
              0.147848001820525E+03
              0.206213865945759E+02
              0.268238911201703E+02
              0.342773439467544E+02
              0.103134918974545E+02
             -0.155246326912282E+01
              0.354239583303658E+02
             -0.352662661066375E+02
              0.762272955691213E+02
              0.675240058275681E+02
             -0.400975479994806E+02
              0.147305631019497E+02
              0.660872701610596E+02
             -0.221138615467135E+02
              0.151769850170385E+02
              0.430943747798406E+02
              0.417039103131957E+02
             -0.775248112503485E+02
             -0.151991644124263E+02
             -0.352653998799784E+02
             -0.140953326331214E+01
             -0.756316982058797E+01
             -0.552758423313821E+01
             -0.179233336744794E+02
             -0.289816021746119E+02
              0.612625585934130E+01
              0.111040549547373E+02
              0.528849382249146E+02
             -0.384364132349551E+02
              0.368483525059204E+02
              0.432180169302042E+02
             -0.185356679030759E+02
              0.862666007915468E+02
             -0.689292628208779E+02
             -0.101874723531880E+03
             -0.648958990880550E+01
             -0.260360082062527E+01
              0.387361365505535E+01
              0.779615147014564E+02
             -0.106904891879420E+02
              0.411249954723432E+02
              0.435937582249508E+02
              0.380491251607440E+02
             -0.986538816354800E+01
              0.620073092453167E+02
             -0.131633074978279E+02
             -0.302344546585449E+02
             -0.474893371438087E+02
              0.572716175780337E+01
              0.365055651677547E+02
             -0.600422153959684E+01
              0.388740802039870E+02
             -0.177718504265877E+01
              0.648136037684551E+02
              0.185312548817032E+02
              0.989023496553570E+01
             -0.121966993423647E+02
              0.328422062954807E+02
              0.357465884592909E+02
              0.230837761411977E+02
             -0.463685847925092E+00
             -0.543499966995777E+02
              0.256954474954740E+02
              0.172560892687694E+02
              0.398355065077660E+02
              0.268428669830261E+02
              0.367800845467328E+02
             -0.591254116324896E+01
              0.246658675930262E+02
             -0.294997466426623E+02
             -0.194745682221549E+01
             -0.562584935971045E+02
             -0.303533133771710E+02
              0.373226454361311E+02
             -0.924457528579146E+02
              0.291420446908077E+02
              0.182262848633007E+02
              0.829400524530573E+02
             -0.298855694922926E+02
              0.325252096097431E+02
             -0.136445256972233E+02
             -0.457749520294477E+02
             -0.753295891456738E+02
             -0.507452986213890E+01
             -0.848462792104522E+02
              0.198795130434863E+02
             -0.244813863647497E+02
              0.301644809419871E+02
              0.233997021948277E+02
             -0.237417447761516E+02
             -0.261487028955495E+02
              0.385552104421126E+02
             -0.580903594774662E+02
             -0.115048050075033E+02
             -0.194022164346224E+02
              0.209083376588154E+02
             -0.898225217800314E+01
              0.359204683259091E+01
             -0.198723545820355E+02
              0.552074928335136E+02
             -0.432053451739567E+02
              0.779652728640133E+01
              0.577788056652929E+02
             -0.318579348228348E+02
              0.355308174764806E+01
             -0.885271405798755E+01
             -0.661254342335241E+02
             -0.477813423948839E+02
             -0.859136317874520E+01
              0.236913657779961E+02
              0.298012241670548E+02
              0.853653048770218E+01
             -0.400163510018990E+01
              0.149803813692715E+02
             -0.434800608211926E+02
              0.340144669315544E+01
             -0.524341535211328E+02
             -0.321495140823338E+02
              0.468358760449173E+02
             -0.291304281508481E+02
              0.613553826086834E+02
             -0.211712575921106E+02
              0.349392148717305E+02
              0.238592422783543E+02
             -0.636455478838080E+02
             -0.277215626053653E+02
              0.920058813873158E+01
             -0.366550273255291E+02
             -0.334395894982574E+02
             -0.818803964399845E+02
             -0.532343846588221E+02
             -0.504208519310309E+02
             -0.409726639781845E+02
             -0.984316372115785E+00
              0.965362378107517E+01
              0.901215593893937E+00
              0.149771517493593E+02
             -0.542010693040024E+02
              0.140132045512374E+02
              0.253135805574534E+02
             -0.657990953808695E+02
             -0.694677642278103E+02
             -0.426422675931669E+02
             -0.167847631443137E+02
              0.176715726931004E+02
              0.460547834965860E+01
             -0.420405417017458E+02
              0.362749372311343E+02
             -0.213087545717378E+02
              0.510868239445828E+02
             -0.876060633635780E+02
              0.589629566168969E+02
             -0.198290774704244E+01
             -0.362932812471159E+02
             -0.212879365344275E+02
              0.471746499446978E+01
              0.368272754253361E+02
             -0.747428692099522E+02
             -0.119180130167857E+02
             -0.214591087782702E+02
              0.505933400199356E+02
              0.854613136707371E+02
             -0.952663579876908E+02
              0.932397516115149E+02
              0.462708648757322E+02
             -0.715791210321435E+02
             -0.362612954201497E+02
              0.741848938613990E+02
              0.624845496340179E+02
             -0.178442783665336E+02
             -0.453375718488132E+01
              0.708453588842308E+01
              0.639197014022191E+02
             -0.500820353387772E+02
              0.156864776450988E+02
             -0.462822710743887E+01
              0.344371922508591E+02
             -0.738107132565866E+02
             -0.645294034730914E+01
             -0.347675830687441E+02
              0.454424244505731E+02
              0.463738144348799E+02
             -0.850754670236065E+02
             -0.481191108027281E+02
             -0.253598954667375E+02
             -0.333796073664674E+02
             -0.107792250654763E+02
             -0.240397423525803E+02
              0.421640464831249E+02
              0.395500549417189E+02
             -0.563263194746912E+01
             -0.410718210261269E+02
             -0.839672241824342E+02
              0.436640567597206E+02
             -0.517429707454463E+02
             -0.308142191680459E+02
              0.537842678388319E+01
             -0.317942960109465E+02
             -0.392906158729779E+02
             -0.236244075209612E+02
             -0.378954786728240E+02
             -0.267715062912681E+02
             -0.476113755104137E+02
              0.556986757303785E+02
              0.630600252596661E+02
             -0.157512332671149E+01
             -0.258522449105063E+02
             -0.630128772673550E+01
              0.435649636624626E+02
             -0.857118916763966E+02
             -0.143331393450688E+02
              0.517478988762839E+02
              0.654698400212800E+02
             -0.243109598107574E+02
              0.899962528987260E+01
              0.516881364110394E+02
              0.196182749487641E+02
             -0.830016268128367E+01
             -0.448153937861340E+02
              0.278591929854601E+02
             -0.348357693431202E+02
             -0.163777464273082E+02
             -0.150294495397178E+02
             -0.198408324387078E+02
              0.191922348587282E+02
              0.790188475488272E+02
              0.195406213017907E+01
              0.532102373064205E+01
             -0.875912886032354E+02
             -0.173472315227269E+02
             -0.348142376000999E+02
              0.275843358931598E+01
             -0.403677629002298E+02
              0.719099136162732E+02
              0.773866048534067E+02
              0.121809533032573E+02
             -0.138615957712382E+02
              0.141705892680645E+02
              0.258006071041502E+02
             -0.476120128639379E+02
             -0.864331919235246E+01
              0.135525956818503E+02
              0.163006591884665E+02
              0.556942230264848E+02
              0.416782176599638E+02
             -0.195094308083824E+02
              0.327989089029819E+02
             -0.956033926599635E+02
             -0.523071130174117E+00
              0.836226765450978E+02
              0.892305136848228E+01
              0.142754023041493E+01
              0.331915152896163E+02
             -0.295200832744608E+02
              0.947552448581686E+02
             -0.118193430781833E+02
              0.860019937002609E+02
              0.375365732200406E+02
             -0.387218393382905E+02
              0.310698928844497E+02
             -0.329951522662364E+02
             -0.709658222980402E+02
             -0.643287564762448E+01
             -0.535520994753521E+02
             -0.541445510592141E+02
             -0.679384318079536E+01
              0.290684133556525E+02
             -0.490909146832530E+01
             -0.355904855936849E+02
              0.113550687013326E+02
             -0.729614291391090E+02
             -0.100463690417171E+02
             -0.818549404711041E+02
              0.482143664581143E+02
              0.212532939854631E+01
             -0.478278085952591E+02
             -0.228256825171096E+02
              0.210191950559872E+02
             -0.296445998658934E+02
             -0.449997901301194E+02
              0.896599411749248E+02
[...]
              0.280701496214838E+02
              0.140085460457843E+03
              0.238245213949649E+02
              0.120226924877086E+02
             -0.458334210356833E+02
             -0.630422566924374E+02
             -0.187361381369913E+02
              0.325861302388703E+02
             -0.419649022449880E+01
              0.186794305233532E+02
              0.331806608759614E+02
             -0.578593249999619E+02
              0.218927159568439E+02
              0.577678949482269E+02
              0.545645848760012E+02
             -0.407322849784504E+01
             -0.144764947061003E+01
             -0.984333164210136E+01
             -0.476673560197106E+02
             -0.665572671791086E+02
              0.775751037446224E+02
             -0.509255832629802E+01
             -0.581012567759941E+02
              0.160768540899056E+01
             -0.201394314385339E+02
              0.927441928531887E+02
             -0.213722718621958E+02
             -0.348727859209772E+02
              0.330511962897409E+02
             -0.143655721757370E+02
              0.383570995992342E+02
             -0.239481261077515E+01
              0.998884182971806E+02
              0.482764043045316E+02
             -0.525073915079722E+01
             -0.316933247968823E+02
              0.228461850712233E+02
             -0.521568778319082E+02
             -0.127356189798127E+02
              0.577538327290269E+02
             -0.284435240255683E+02
             -0.432828141067795E+02
             -0.220259655521747E+02
              0.512120404436530E+02
              0.123233676748292E+02
             -0.838243437179477E+02
              0.299432696986854E+02
              0.151291668581255E+02
              0.562608633524871E+01
             -0.507324694946531E+02
             -0.389694287610143E+01
              0.318768016922605E+02
              0.506822779648541E+02
              0.624225893328292E+02
              0.224568816347115E+02
              0.667626197564601E+00
             -0.490883208858711E+02
             -0.504555207843277E+02
             -0.739495330616913E+02
             -0.597609993968956E+01
              0.304669940359628E+02
             -0.377629126672790E+01
              0.540346465932486E+02
             -0.313821706226748E+02
              0.164357319154286E+02
             -0.997413223966913E+01
             -0.286026488232821E+02
              0.577960654139814E+02
              0.785761658035238E+01
              0.596159455045769E+02
              0.500037257643464E+01
              0.262550235485106E+02
             -0.190608631377863E+02
              0.578334141030338E+02
             -0.109272984409127E+02
             -0.120453216804385E+00
             -0.780068685212176E+02
             -0.127438103152418E+02
              0.710065549524089E+02
              0.664883237900455E+02
              0.248624787849727E+02
             -0.128154831700024E+02
              0.337710843936910E+01
             -0.170507817417931E+02
             -0.179983943404287E+01
              0.896116673744157E+02
              0.115671269136612E+01
             -0.186640658785635E+02
             -0.109380356503272E+03
             -0.547091060862961E+02
             -0.370099177680923E+02
             -0.650543462705737E+02
             -0.547907868575524E+02
             -0.673440393258452E+02
             -0.441358952382663E+02
             -0.407421469430514E+02
             -0.445589931935351E+02
              0.477768028362181E+02
             -0.291995358786975E+02
             -0.984447652776466E+02
              0.413485654498861E+02
             -0.255816248281288E+02
             -0.780633146920309E+02
              0.930824635294693E+02
             -0.216409237080889E+02
              0.226159779360669E+02
              0.450149813694533E+02
             -0.151526255092494E+01
              0.251018073583814E+02
              0.466834690383124E+01
              0.396610559270183E+00
             -0.148991775396089E+02
             -0.706164160003270E+02
              0.131616357343907E+02
             -0.127842271035883E+03
              0.614811512698543E+02
             -0.435408061907492E+02
             -0.160448443773996E+02
             -0.155514487644175E+02
              0.686456403363126E+01
             -0.225729482214864E+02
              0.293370890311427E+02
             -0.512916555152449E+02
              0.362597610030824E+02
              0.365288073988072E+02
              0.167332927796656E+02
              0.993495014628712E+01
              0.194994610224069E+02
              0.608036780186006E+01
              0.306557369034842E+02
             -0.792768672267630E+01
             -0.582528767397039E+02
              0.744966210381062E+01
             -0.148319541619493E+02
             -0.188049457444890E+01
              0.498937552978859E+02
             -0.816576776688212E+02
             -0.151049330039001E+01
              0.532049140883430E+00
              0.983310874742511E+01
              0.314545981940001E+02
             -0.122107735480062E+02
              0.824922668636618E+02
              0.482818283094870E+02
             -0.181211265851867E+02
             -0.944787481970991E+01
              0.967805333640200E+00
              0.759413564230134E+02
             -0.579861296664060E+02
             -0.104451441334671E+03
              0.305432887415697E+02
             -0.162014824705546E+02
             -0.137408960698020E+02
              0.128138778953048E+02
              0.758641841267561E+02
              0.458699631185650E+02
             -0.151384383993159E+02
             -0.496048132283751E+02
             -0.533020250047304E+01
              0.302828649520657E+02
             -0.109178657004623E+02
             -0.745928586745504E+02
             -0.259304134483935E+01
             -0.877270758158681E+02
             -0.468803382315638E+02
              0.757342847815786E+02
             -0.476780257093753E+02
             -0.627169754722657E+02
             -0.507518044026565E+02
             -0.344637615545668E+02
              0.336422460843748E+02
              0.810382469123792E+02
             -0.345018728692486E+01
              0.273197076507790E+02
             -0.181006259775534E+02
             -0.685114840588825E+02
              0.458507050825720E+02
             -0.438674182997360E+02
              0.318487068880270E+02
              0.372404781998476E+02
             -0.633639513709056E+01
              0.385629688295069E+02
              0.433251670544393E+02
              0.991002504950127E+02
             -0.154764993005181E+02
             -0.448777298048591E+02
             -0.604276275386719E+02
             -0.121400974252402E+02
             -0.227438174894348E+02
              0.101820690486587E+03
             -0.443283971752609E+02
              0.103737071735518E+02
              0.968960523209137E+01
             -0.262170489466388E+02
             -0.787520218768445E+02
             -0.690424719283396E+01
              0.966798658378921E+02
              0.908224969162220E+01
              0.797937591808841E+01
             -0.519271384481759E+02
             -0.598402073742729E+02
             -0.539381407859909E+01
              0.494707750938142E+02
             -0.218382561379420E+02
              0.106663998487885E+03
             -0.429304129862198E+02
              0.143710147266891E+02
             -0.222544063299035E+02
             -0.710489147327226E+02
              0.159272286503506E+01
             -0.494381595204625E+02
             -0.750994308371854E+02
              0.600365181852862E+01
              0.235293703061879E+01
              0.507671588687688E+02
              0.183676961726552E+02
             -0.319129262038565E+02
              0.227079464332385E+02
             -0.799336766993590E+02
             -0.515673210245930E+02
              0.889683441004154E+02
              0.141776414212065E+02
             -0.187439408748673E+02
             -0.349046108232074E+02
             -0.268735164871953E+01
             -0.571513503950712E+01
              0.818147963718794E+02
              0.412332566885917E+02
             -0.164971108187711E+02
             -0.121899892546573E+02
             -0.422543592279670E+02
             -0.198859225760215E+02
             -0.661944874475872E+02
              0.453027106564636E+02
              0.538500022401774E+01
              0.144006417522970E+02
              0.153598810957957E+02
             -0.397379312114033E+00
             -0.165439712197613E+02
             -0.319812345248130E+01
             -0.989723288519764E+02
             -0.228534255910780E+02
             -0.752769837118126E+01
             -0.940493535851905E+01
              0.540150943630574E+02
              0.615369041356185E+02
              0.162503207207216E+02
             -0.958357343851553E+02
              0.639290623586292E+02
             -0.211876183848385E+02
             -0.372170646831122E+02
             -0.852729806419039E+02
             -0.383392880987109E+02
              0.556237995282655E+02
              0.239857699775688E+02
              0.492612342516179E+01
              0.287559183525505E+02
             -0.557609469268905E+02
             -0.415731555155405E+02
              0.507270668318548E+02
              0.381745100354084E+02
              0.512779201887774E+02
             -0.131803372912844E+01
              0.672221878855737E+01
              0.562520453292761E+02
              0.949745057724401E+02
             -0.297973620822689E+02
              0.317548184956763E+02
             -0.114635522602508E+02
             -0.406291416647483E+02
             -0.309781687339893E+02
             -0.295739279628298E+02
             -0.129583562813907E+02
             -0.517131494439772E+02
             -0.214761532179733E+02
             -0.139470448224590E+03
              0.364871963191333E+02
              0.203043507866523E+02
             -0.389302054704461E+01
             -0.375170381724625E+02
             -0.201729913540881E+02
             -0.519505824144900E+02
              0.150430529470377E+02
              0.809680993932387E+02
             -0.249677998820709E+02
             -0.160610309618611E+02
              0.235571094563765E+02
             -0.482762809708032E+02
              0.869213964740723E+02
              0.152382437843708E+02
              0.225399023973293E+02
              0.483531570284289E+02
              0.328105677833122E+01
              0.534426873062339E+02
              0.140442163367449E+02
             -0.106376180907396E+02
              0.715457331385821E+01
              0.915353126285140E+00
              0.718492403303637E+02
              0.100116716440812E+02
              0.117762733983277E+02
             -0.128845193935414E+02
              0.130821776942806E+02
             -0.898807128898295E+02
             -0.321185032387447E+02
             -0.450888319360572E+02
              0.478713727307871E+02
             -0.286487119718960E+02
             -0.651123570950266E+02
              0.530575920575309E+02
             -0.120128392833699E+02
              0.434778589912126E+02
             -0.886849922374038E+02
              0.229845100082248E+02
              0.851416984960389E+01
              0.575585884311852E+01
             -0.814852803921582E+01
             -0.894429455604484E+01
              0.472723046939665E+02
              0.194731757784479E+01
             -0.468152258607305E+02
             -0.173335629891487E+02
              0.274053872564227E+02
             -0.116422551593024E+03
             -0.918455332392966E+02
              0.395262465727888E+01
              0.115411714564300E+02
             -0.406680783202898E+02
             -0.389657336410772E+01
              0.110768358230354E+03
              0.302634906194005E+02
             -0.564653211284602E+02
              0.914278433016844E+01
             -0.949369256795042E+01
              0.103957677607724E+02
             -0.333031949343336E+02
              0.192350079452460E+02
              0.281553158813622E+02
             -0.288607622851339E+01
              0.106700562459501E+03
             -0.139798655459198E+02
             -0.311746657361047E+02
              0.138693988138710E+02
              0.460870991294080E+02
             -0.351631741178512E+02
             -0.316581759874700E+01
              0.951991718931682E+02
             -0.461475220300565E+01
              0.614720695592291E+02
              0.133276684041951E+02
             -0.893598013204412E+01
             -0.303388877573153E+02
              0.560294413066785E+02
             -0.506266266298371E+02
             -0.217789542708027E+01
             -0.167306524216429E+02
             -0.399976520724403E+02
              0.183426377106788E+02
              0.236046500497733E+02
              0.116252188562008E+02
              0.738530746000379E+00
             -0.379115330893930E+02
              0.213347122195060E+02
             -0.672793999948280E+01
             -0.243651840366513E+02
             -0.207970700649960E+02
              0.201101337195609E+02
             -0.596957096347762E+01
             -0.344140158650687E+02
             -0.105208016808776E+03
              0.102029598330032E+02
              0.246811449573181E+02
             -0.380866955607747E+02
             -0.207788424744286E+02
              0.796278502798186E+02
              0.633795261301003E+01
              0.304937855063782E+02
              0.376462531211754E+01
              0.316579005153104E+02
              0.642258110226618E+01
             -0.367785459589496E+02
             -0.215723249768078E+01
              0.870088904767476E+01
              0.269572019974132E+02
              0.772055389917622E+02
              0.500912415483502E+02
              0.129157033796389E+00
              0.167667503140533E+02
              0.605298215423589E+02
              0.232189547335749E+02
             -0.743831087886944E+02
             -0.269958562098489E+02
              0.149625957535043E+02
              0.549169760278619E+01
              0.251765983767803E+02
             -0.541021669264196E+02
              0.892970398554475E+01
              0.380479194457120E+02
              0.491540921114325E+02
             -0.429382270347285E+02
             -0.696229517419590E+01
             -0.204018433539761E+01
             -0.130907632887440E+02
             -0.362232578525283E+02
             -0.213759840300537E+02
             -0.185939820845611E+01
              0.777493135145096E+01
              0.415798600345622E+02
             -0.303978614821593E+02
              0.815617056552190E+02
              0.323038824377924E+02
              0.216324215940881E+02
              0.328216510029395E+02
              0.319919071127538E+02
              0.341528977322567E+02
              0.529911291417239E+02
             -0.427629282565328E+02
              0.611421338974845E+02
             -0.110765850014151E+03
              0.303195866821218E+02
             -0.105148346919964E+03
              0.844096365466723E+02
              0.680356323255584E+02
             -0.108811436495240E+02
             -0.487029778875713E+02
             -0.423930677542286E+02
             -0.616431020953961E+02
             -0.620159888102697E+02
              0.544627063455574E+02
              0.399965058537773E+02
              0.233624853081991E+02
              0.370512815526342E+02
              0.397212076277701E+02
             -0.376754668823344E+02
             -0.195968782695534E+02
              0.579730998486815E+02
             -0.114566544807576E+02
              0.545344457644083E+02
              0.689328549439549E+02
             -0.550420552145454E+01
             -0.696445100069604E+02
             -0.959535653324224E+00
             -0.247934419167708E+01
             -0.868327150149116E+01
             -0.185018410022712E+01
             -0.644591521363755E+02
             -0.209748009700253E+02
              0.521391832503952E+01
              0.879909823943376E+01
              0.462363192664243E+02
             -0.392180410224361E+02
              0.650720659097641E+02
             -0.420339616963047E+02
              0.206758707585648E+02
              0.344672193638859E+02
 
 BEEF-vdW xc energy contributions
           1 :   -773.611441856458     
           2 :    711.437200438742     
           3 :   -603.471471682543     
           4 :    475.927529880379     
           5 :   -355.781031924045     
           6 :    262.686535113223     
           7 :   -204.371394164980     
           8 :    176.508946736787     
           9 :   -166.647818460273     
          10 :    160.300052068798     
          11 :   -146.692376881191     
          12 :    122.010143482494     
          13 :   -89.2830680800378     
          14 :    55.5138980963646     
          15 :   -27.7059683077096     
          16 :    9.59936206361613     
          17 :  -0.391207693757565     
          18 :   -4.30547422195616     
          19 :    9.97198692360246     
          20 :   -20.4793216158999     
          21 :    36.4147759774893     
          22 :   -55.0996651648475     
          23 :    72.1192768911347     
          24 :   -83.5314190143416     
          25 :    87.6662756670170     
          26 :   -85.7257280579570     
          27 :    80.9993027926459     
          28 :   -77.1710077390771     
          29 :    76.5740232298214     
          30 :   -79.2172690671877     
          31 :   -84.6340823242891     
          32 :   -65.0148420159031     

     Writing output data file ./pwscf.save/
 
     init_run     :    312.67s CPU    316.91s WALL (       1 calls)
     electrons    :  11420.63s CPU  11529.88s WALL (       1 calls)
     forces       :     93.36s CPU     94.42s WALL (       1 calls)

     Called by init_run:
     wfcinit      :    265.81s CPU    269.07s WALL (       1 calls)
     potinit      :     44.00s CPU     44.34s WALL (       1 calls)
     hinit0       :      1.08s CPU      1.12s WALL (       1 calls)

     Called by electrons:
     c_bands      :   9582.92s CPU   9666.20s WALL (      18 calls)
     sum_band     :   1289.78s CPU   1299.94s WALL (      18 calls)
     v_of_rho     :     96.67s CPU    100.29s WALL (      18 calls)
     newd         :     25.73s CPU     35.24s WALL (      18 calls)
     PAW_pot      :    119.01s CPU    119.03s WALL (      18 calls)
     mix_rho      :    351.28s CPU    351.83s WALL (      18 calls)
     vdW_kernel   :     33.53s CPU     33.54s WALL (       1 calls)

     Called by c_bands:
     init_us_2    :     67.18s CPU     67.40s WALL (     494 calls)
     cegterg      :   8894.38s CPU   8977.44s WALL (     234 calls)

     Called by *egterg:
     cdiaghg      :     80.07s CPU     80.11s WALL (    1175 calls)
     h_psi        :   5705.02s CPU   5734.19s WALL (    1201 calls)
     s_psi        :    924.04s CPU    924.06s WALL (    1201 calls)
     g_psi        :     15.32s CPU     15.33s WALL (     954 calls)

     Called by h_psi:
     h_psi:calbec :    873.99s CPU    874.07s WALL (    1201 calls)
     vloc_psi     :   3882.73s CPU   3884.17s WALL (    1201 calls)
     add_vuspsi   :    923.82s CPU    923.88s WALL (    1201 calls)

     General routines
     calbec       :   1277.08s CPU   1277.17s WALL (    1487 calls)
     fft          :     45.75s CPU     45.77s WALL (    3098 calls)
     ffts         :    109.04s CPU    109.07s WALL (    8024 calls)
     fftw         :   3896.05s CPU   3896.94s WALL (  307874 calls)
 
     Parallel routines
 
     PWSCF        :      3h18m CPU      3h20m WALL

 
   This run was terminated on:   0:29:13  27Sep2022            

=------------------------------------------------------------------------------=
   JOB DONE.
=------------------------------------------------------------------------------=
