
     Program PWSCF v.6.7MaX starts on 26Sep2022 at 21: 8:12 

     This program is part of the open-source Quantum ESPRESSO suite
     for quantum simulation of materials; please cite
         "P. Giannozzi et al., J. Phys.:Condens. Matter 21 395502 (2009);
         "P. Giannozzi et al., J. Phys.:Condens. Matter 29 465901 (2017);
          URL http://www.quantum-espresso.org", 
     in publications or presentations arising from this work. More details at
     http://www.quantum-espresso.org/quote

     Parallel version (MPI), running on     1 processors

     MPI processes distributed on     1 nodes
     Reading input from ch2-ensemble.in
Warning: card &CELL ignored
Warning: card / ignored

     Current dimensions of program PWSCF are:
     Max number of different atomic species (ntypx) = 10
     Max number of k-points (npk) =  40000
     Max angular momentum in pseudopotentials (lmaxx) =  3
     file Pt.pbe-n-kjpaw_psl.1.0.0.UPF: wavefunction(s)  6S 5D renormalized
     file C.pbe-n-kjpaw_psl.1.0.0.UPF: wavefunction(s)  2S 2P renormalized
     file H.pbe-kjpaw_psl.1.0.0.UPF: wavefunction(s)  1S renormalized

     **************************************************************************
     Initializing libbeef V0.1.2 with the BEEF-vdW functional.
     Citation: Wellendorff et al., PRB 85, 235149 (2012).
     **************************************************************************


     IMPORTANT: XC functional enforced from input :
     Exchange-correlation= BEEF-VDW
                           (   1   4  43  14   2   0   0)
     Any further DFT definition will be discarded
     Please, verify this is what you really want


     Subspace diagonalization in iterative solution of the eigenvalue problem:
     a serial algorithm will be used

 
     G-vector sticks info
     --------------------
     sticks:   dense  smooth     PW     G-vecs:    dense   smooth      PW
     Sum        4267    4267   1159               691641   691641   97501
 


     bravais-lattice index     =            0
     lattice parameter (alat)  =      16.0349  a.u.
     unit-cell volume          =   11010.2244 (a.u.)^3
     number of atoms/cell      =           39
     number of atomic types    =            3
     number of electrons       =       366.00
     number of Kohn-Sham states=          220
     kinetic-energy cutoff     =      60.0000  Ry
     charge density cutoff     =     240.0000  Ry
     scf convergence threshold =      1.0E-06
     mixing beta               =       0.7000
     number of iterations used =            8  local-TF  mixing
     Exchange-correlation= BEEF-VDW
                           (   1   4  43  14   2   0   0)

     celldm(1)=  16.034858  celldm(2)=   0.000000  celldm(3)=   0.000000
     celldm(4)=   0.000000  celldm(5)=   0.000000  celldm(6)=   0.000000

     crystal axes: (cart. coord. in units of alat)
               a(1) = (   1.000000   0.000000   0.000000 )  
               a(2) = (   0.500000   0.866025   0.000000 )  
               a(3) = (   0.000000   0.000000   3.083686 )  

     reciprocal axes: (cart. coord. in units 2 pi/alat)
               b(1) = (  1.000000 -0.577350  0.000000 )  
               b(2) = (  0.000000  1.154701  0.000000 )  
               b(3) = (  0.000000  0.000000  0.324287 )  


     PseudoPot. # 1 for Pt read from file:
     /users/bkreitz1/quantum-espresso/potentials/Pt.pbe-n-kjpaw_psl.1.0.0.UPF
     MD5 check sum: 04dc8a03c51ece93fc7b5889c2958091
     Pseudo is Projector augmented-wave + core cor, Zval = 10.0
     Generated using 'atomic' code by A. Dal Corso  v.6.7MaX
     Shape of augmentation charge: PSQ
     Using radial grid of 1277 points,  6 beta functions with: 
                l(1) =   0
                l(2) =   0
                l(3) =   1
                l(4) =   1
                l(5) =   2
                l(6) =   2
     Q(r) pseudized with 0 coefficients 


     PseudoPot. # 2 for C  read from file:
     /users/bkreitz1/quantum-espresso/potentials/C.pbe-n-kjpaw_psl.1.0.0.UPF
     MD5 check sum: a169b0ebad56f5ec0d79c4633f80bf22
     Pseudo is Projector augmented-wave + core cor, Zval =  4.0
     Generated using 'atomic' code by A. Dal Corso  v.6.7MaX
     Shape of augmentation charge: PSQ
     Using radial grid of 1073 points,  4 beta functions with: 
                l(1) =   0
                l(2) =   0
                l(3) =   1
                l(4) =   1
     Q(r) pseudized with 0 coefficients 


     PseudoPot. # 3 for H  read from file:
     /users/bkreitz1/quantum-espresso/potentials/H.pbe-kjpaw_psl.1.0.0.UPF
     MD5 check sum: ae98473e6dc62675f0d0baffdab24f65
     Pseudo is Projector augmented-wave, Zval =  1.0
     Generated using 'atomic' code by A. Dal Corso  v.6.7MaX
     Shape of augmentation charge: PSQ
     Using radial grid of  929 points,  2 beta functions with: 
                l(1) =   0
                l(2) =   0
     Q(r) pseudized with 0 coefficients 


     atomic species   valence    mass     pseudopotential
        Pt            10.00   195.08400     Pt( 1.00)
        C              4.00    12.01100     C ( 1.00)
        H              1.00     1.00800     H ( 1.00)

     No symmetry found



   Cartesian axes

     site n.     atom                  positions (alat units)
         1           Pt  tau(   1) = (   0.0000000   0.0000000   1.0017346  )
         2           Pt  tau(   2) = (   0.3333333   0.0000000   1.0017346  )
         3           Pt  tau(   3) = (   0.6666667   0.0000000   1.0017346  )
         4           Pt  tau(   4) = (   0.1666667   0.2886751   1.0017346  )
         5           Pt  tau(   5) = (   0.5000000   0.2886751   1.0017346  )
         6           Pt  tau(   6) = (   0.8333333   0.2886751   1.0017346  )
         7           Pt  tau(   7) = (   0.3333333   0.5773503   1.0017346  )
         8           Pt  tau(   8) = (   0.6666667   0.5773503   1.0017346  )
         9           Pt  tau(   9) = (   1.0000000   0.5773503   1.0017346  )
        10           Pt  tau(  10) = (   0.1666667   0.0962250   1.2739001  )
        11           Pt  tau(  11) = (   0.5000000   0.0962250   1.2739001  )
        12           Pt  tau(  12) = (   0.8333333   0.0962250   1.2739001  )
        13           Pt  tau(  13) = (   0.3333333   0.3849002   1.2739001  )
        14           Pt  tau(  14) = (   0.6666667   0.3849002   1.2739001  )
        15           Pt  tau(  15) = (   1.0000000   0.3849002   1.2739001  )
        16           Pt  tau(  16) = (   0.5000000   0.6735753   1.2739001  )
        17           Pt  tau(  17) = (   0.8333333   0.6735753   1.2739001  )
        18           Pt  tau(  18) = (   1.1666667   0.6735753   1.2739001  )
        19           Pt  tau(  19) = (  -0.0005985   0.1916615   1.5416862  )
        20           Pt  tau(  20) = (   0.3342648   0.1916957   1.5463434  )
        21           Pt  tau(  21) = (   0.6654541   0.1931338   1.5447529  )
        22           Pt  tau(  22) = (   0.1668719   0.4817498   1.5416861  )
        23           Pt  tau(  23) = (   0.5010896   0.4779075   1.5482259  )
        24           Pt  tau(  24) = (   0.8332837   0.4809604   1.5434141  )
        25           Pt  tau(  25) = (   0.3354555   0.7683922   1.5398420  )
        26           Pt  tau(  26) = (   0.6698628   0.7701618   1.5482493  )
        27           Pt  tau(  27) = (   0.9986026   0.7701969   1.5447684  )
        28           Pt  tau(  28) = (   0.0003087  -0.0003171   1.8175309  )
        29           Pt  tau(  29) = (   0.3329147   0.0025857   1.8386049  )
        30           Pt  tau(  30) = (   0.6731514  -0.0041560   1.8104231  )
        31           Pt  tau(  31) = (   0.1597960   0.2922440   1.8125060  )
        32           Pt  tau(  32) = (   0.4972091   0.2872156   1.8386794  )
        33           Pt  tau(  33) = (   0.8316968   0.2889393   1.8175478  )
        34           Pt  tau(  34) = (   0.3333601   0.5766904   1.8175626  )
        35           Pt  tau(  35) = (   0.6660347   0.5773575   1.8200682  )
        36           Pt  tau(  36) = (   0.9985583   0.5780532   1.8175354  )
        37           C   tau(  37) = (   0.4229863   0.1404575   2.0163647  )
        38           H   tau(  38) = (   0.3312186   0.1932143   2.0895133  )
        39           H   tau(  39) = (   0.5168594   0.0861025   2.0865455  )

     number of k points=    13  Marzari-Vanderbilt smearing, width (Ry)=  0.0200
                       cart. coord. in units 2pi/alat
        k(    1) = (   0.0000000   0.0000000   0.0000000), wk =   0.0800000
        k(    2) = (   0.0000000   0.2309401   0.0000000), wk =   0.1600000
        k(    3) = (   0.0000000   0.4618802   0.0000000), wk =   0.1600000
        k(    4) = (   0.2000000  -0.1154701   0.0000000), wk =   0.1600000
        k(    5) = (   0.2000000   0.1154701   0.0000000), wk =   0.1600000
        k(    6) = (   0.2000000   0.3464102   0.0000000), wk =   0.1600000
        k(    7) = (   0.2000000  -0.5773503   0.0000000), wk =   0.1600000
        k(    8) = (   0.2000000  -0.3464102   0.0000000), wk =   0.1600000
        k(    9) = (   0.4000000  -0.2309401   0.0000000), wk =   0.1600000
        k(   10) = (   0.4000000  -0.0000000   0.0000000), wk =   0.1600000
        k(   11) = (   0.4000000   0.2309401   0.0000000), wk =   0.1600000
        k(   12) = (   0.4000000  -0.6928203   0.0000000), wk =   0.1600000
        k(   13) = (   0.4000000  -0.4618802   0.0000000), wk =   0.1600000

     Dense  grid:   691641 G-vectors     FFT dimensions: (  80,  80, 243)

     Estimated max dynamical RAM per process >       8.26 GB

     Initial potential from superposition of free atoms

     starting charge  365.99383, renormalised to  366.00000

     negative rho (up, down):  1.203E-02 0.000E+00


     %%%%%%%%%%%%%%%%%%%%%%%%%%%%%%%%%%%%%%%%%%%%%%%%%%%%%%%%%%%%%%%%%%%%%%%%
     %                                                                      %
     % You are using vdW-DF, which was implemented by the Thonhauser group. %
     % Please cite the following two papers that made this development      %
     % possible and the two reviews that describe the various versions:     %
     %                                                                      %
     %   T. Thonhauser et al., PRL 115, 136402 (2015).                      %
     %   T. Thonhauser et al., PRB 76, 125112 (2007).                       %
     %   K. Berland et al., Rep. Prog. Phys. 78, 066501 (2015).             %
     %   D.C. Langreth et al., J. Phys.: Condens. Matter 21, 084203 (2009). %
     %                                                                      %
     %                                                                      %
     % If you are calculating the stress with vdW-DF, please also cite:     %
     %                                                                      %
     %   R. Sabatini et al., J. Phys.: Condens. Matter 24, 424209 (2012).   %
     %                                                                      %
     %%%%%%%%%%%%%%%%%%%%%%%%%%%%%%%%%%%%%%%%%%%%%%%%%%%%%%%%%%%%%%%%%%%%%%%%


     Starting wfcs are  330 randomized atomic wfcs
     Checking if some PAW data can be deallocated... 

     total cpu time spent up to now is      332.4 secs

     Self-consistent Calculation

     iteration #  1     ecut=    60.00 Ry     beta= 0.70
     Davidson diagonalization with overlap
     ethr =  1.00E-02,  avg # of iterations =  2.0

     Threshold (ethr) on eigenvalues was too large:
     Diagonalizing with lowered threshold

     Davidson diagonalization with overlap
     ethr =  6.05E-04,  avg # of iterations =  3.8

     negative rho (up, down):  1.461E-02 0.000E+00

     total cpu time spent up to now is     1632.2 secs

     total energy              =  -27775.38641663 Ry
     estimated scf accuracy    <       2.46892523 Ry

     iteration #  2     ecut=    60.00 Ry     beta= 0.70
     Davidson diagonalization with overlap
     ethr =  6.75E-04,  avg # of iterations =  2.0

     negative rho (up, down):  1.278E-02 0.000E+00

     total cpu time spent up to now is     2213.4 secs

     total energy              =  -27775.56610721 Ry
     estimated scf accuracy    <       1.01622004 Ry

     iteration #  3     ecut=    60.00 Ry     beta= 0.70
     Davidson diagonalization with overlap
     ethr =  2.78E-04,  avg # of iterations =  2.0

     negative rho (up, down):  1.027E-02 0.000E+00

     total cpu time spent up to now is     2787.7 secs

     total energy              =  -27775.63491145 Ry
     estimated scf accuracy    <       0.29243985 Ry

     iteration #  4     ecut=    60.00 Ry     beta= 0.70
     Davidson diagonalization with overlap
     c_bands:  2 eigenvalues not converged
     ethr =  7.99E-05,  avg # of iterations = 12.7

     negative rho (up, down):  8.568E-03 0.000E+00

     total cpu time spent up to now is     3560.4 secs

     total energy              =  -27775.67856559 Ry
     estimated scf accuracy    <       0.15099306 Ry

     iteration #  5     ecut=    60.00 Ry     beta= 0.70
     Davidson diagonalization with overlap
     ethr =  4.13E-05,  avg # of iterations =  2.7

     negative rho (up, down):  6.621E-03 0.000E+00

     total cpu time spent up to now is     4165.4 secs

     total energy              =  -27775.68800298 Ry
     estimated scf accuracy    <       0.04391088 Ry

     iteration #  6     ecut=    60.00 Ry     beta= 0.70
     Davidson diagonalization with overlap
     c_bands:  1 eigenvalues not converged
     c_bands:  1 eigenvalues not converged
     ethr =  1.20E-05,  avg # of iterations = 11.5

     negative rho (up, down):  5.779E-03 0.000E+00

     total cpu time spent up to now is     4953.9 secs

     total energy              =  -27775.69479844 Ry
     estimated scf accuracy    <       0.00459412 Ry

     iteration #  7     ecut=    60.00 Ry     beta= 0.70
     Davidson diagonalization with overlap
     c_bands:  1 eigenvalues not converged
     ethr =  1.26E-06,  avg # of iterations = 10.2

     negative rho (up, down):  5.633E-03 0.000E+00

     total cpu time spent up to now is     5945.6 secs

     total energy              =  -27775.69696885 Ry
     estimated scf accuracy    <       0.00173074 Ry

     iteration #  8     ecut=    60.00 Ry     beta= 0.70
     Davidson diagonalization with overlap
     ethr =  4.73E-07,  avg # of iterations =  3.3

     negative rho (up, down):  5.760E-03 0.000E+00

     total cpu time spent up to now is     6551.3 secs

     total energy              =  -27775.69719092 Ry
     estimated scf accuracy    <       0.00091900 Ry

     iteration #  9     ecut=    60.00 Ry     beta= 0.70
     Davidson diagonalization with overlap
     ethr =  2.51E-07,  avg # of iterations =  2.2

     negative rho (up, down):  6.114E-03 0.000E+00

     total cpu time spent up to now is     7113.3 secs

     total energy              =  -27775.69727037 Ry
     estimated scf accuracy    <       0.00044518 Ry

     iteration # 10     ecut=    60.00 Ry     beta= 0.70
     Davidson diagonalization with overlap
     ethr =  1.22E-07,  avg # of iterations =  2.2

     negative rho (up, down):  6.686E-03 0.000E+00

     total cpu time spent up to now is     7688.6 secs

     total energy              =  -27775.69729429 Ry
     estimated scf accuracy    <       0.00035494 Ry

     iteration # 11     ecut=    60.00 Ry     beta= 0.70
     Davidson diagonalization with overlap
     ethr =  9.70E-08,  avg # of iterations =  1.9

     negative rho (up, down):  8.835E-03 0.000E+00

     total cpu time spent up to now is     8212.8 secs

     total energy              =  -27775.69726993 Ry
     estimated scf accuracy    <       0.00025665 Ry

     iteration # 12     ecut=    60.00 Ry     beta= 0.70
     Davidson diagonalization with overlap
     ethr =  7.01E-08,  avg # of iterations =  3.9

     negative rho (up, down):  9.898E-03 0.000E+00

     total cpu time spent up to now is     8775.7 secs

     total energy              =  -27775.69727712 Ry
     estimated scf accuracy    <       0.00009508 Ry

     iteration # 13     ecut=    60.00 Ry     beta= 0.70
     Davidson diagonalization with overlap
     ethr =  2.60E-08,  avg # of iterations =  2.8

     negative rho (up, down):  1.113E-02 0.000E+00

     total cpu time spent up to now is     9354.9 secs

     total energy              =  -27775.69728624 Ry
     estimated scf accuracy    <       0.00003539 Ry

     iteration # 14     ecut=    60.00 Ry     beta= 0.70
     Davidson diagonalization with overlap
     ethr =  9.67E-09,  avg # of iterations =  4.0

     negative rho (up, down):  1.122E-02 0.000E+00

     total cpu time spent up to now is    10023.9 secs

     total energy              =  -27775.69729512 Ry
     estimated scf accuracy    <       0.00003029 Ry

     iteration # 15     ecut=    60.00 Ry     beta= 0.70
     Davidson diagonalization with overlap
     ethr =  8.28E-09,  avg # of iterations =  1.2

     negative rho (up, down):  1.210E-02 0.000E+00

     total cpu time spent up to now is    10534.3 secs

     total energy              =  -27775.69729502 Ry
     estimated scf accuracy    <       0.00000959 Ry

     iteration # 16     ecut=    60.00 Ry     beta= 0.70
     Davidson diagonalization with overlap
     ethr =  2.62E-09,  avg # of iterations =  4.0

     negative rho (up, down):  1.231E-02 0.000E+00

     total cpu time spent up to now is    11157.5 secs

     total energy              =  -27775.69729594 Ry
     estimated scf accuracy    <       0.00000258 Ry

     iteration # 17     ecut=    60.00 Ry     beta= 0.70
     Davidson diagonalization with overlap
     ethr =  7.06E-10,  avg # of iterations =  4.0

     negative rho (up, down):  1.283E-02 0.000E+00

     total cpu time spent up to now is    11958.0 secs

     End of self-consistent calculation

          k = 0.0000 0.0000 0.0000 ( 86449 PWs)   bands (ev):

   -10.3754  -6.7764  -5.5128  -4.5797  -4.5162  -4.3979  -4.3884  -4.3685
    -4.3670  -4.3527  -4.3289  -4.2987  -3.9832  -3.8445  -3.8246  -3.8098
    -3.7966  -3.7852  -3.7047  -3.3753  -3.3703  -3.3519  -3.3506  -3.3100
    -3.2221  -3.1575  -3.1383  -3.1308  -3.1304  -3.0905  -3.0176  -2.9318
    -2.9290  -2.9180  -2.9155  -2.8906  -2.8672  -2.8628  -2.8590  -2.8481
    -2.8175  -2.8066  -2.4946  -2.4080  -2.3005  -2.2929  -2.2701  -2.2664
    -2.2293  -2.2059  -2.2053  -2.1814  -2.0731  -2.0644  -2.0236  -2.0213
    -1.9719  -1.6347  -1.5397  -1.4809  -1.4785  -1.4441  -1.4221  -1.4104
    -1.3961  -1.3150  -1.2943  -1.2889  -1.2863  -1.2794  -1.2778  -1.2606
    -1.2479  -1.2260  -1.2109  -1.2050  -1.1940  -1.1872  -1.1772  -1.1556
    -1.0949  -1.0745  -1.0627  -1.0534  -1.0279  -0.9216  -0.8911  -0.8811
    -0.8769  -0.8434  -0.8415  -0.8166  -0.8027  -0.7914  -0.7342  -0.7160
    -0.6804  -0.6697  -0.6371  -0.6357  -0.5967  -0.5954  -0.5408  -0.5256
    -0.4709  -0.4348  -0.4341  -0.4265  -0.3847  -0.3572  -0.1859  -0.0103
    -0.0024   0.0134   0.0453   0.0662   0.0769   0.0915   0.1193   0.1266
     0.1753   0.2216   0.2297   0.2318   0.2779   0.3263   0.3296   0.3533
     0.3990   0.4426   0.4567   0.5430   0.5524   0.5545   0.5674   0.5966
     0.7510   0.7601   0.7907   0.7978   0.8161   0.8202   0.8615   0.8700
     0.9161   1.0427   1.0470   1.0500   1.0691   1.0828   1.1579   1.1658
     1.1822   1.2192   1.2266   1.2402   1.2443   1.2511   1.2552   1.2740
     1.2835   1.2956   1.3026   1.3408   1.3466   1.3743   1.3893   1.4104
     1.4181   1.4670   1.4727   1.4784   1.4851   1.5020   1.5108   1.5435
     1.5536   1.6070   1.6121   1.6136   1.6387   1.6464   1.6503   1.6816
     1.7052   1.7245   1.7360   1.7582   1.7657   1.7749   1.9034   1.9359
     2.0190   2.0257   2.0483   2.0724   2.0762   2.0797   2.4032   2.5786
     2.8849   2.9263   2.9541   2.9584   3.0369   3.8616   4.6309   5.1931
     5.2530   5.2827   5.3003   5.8423   6.1265   6.6836   6.8463   6.8496
     6.8676   6.8880   6.8941   6.9046

          k = 0.0000 0.2309 0.0000 ( 86368 PWs)   bands (ev):

   -10.3742  -6.6306  -5.3717  -4.8843  -4.5208  -4.5121  -4.4370  -4.4096
    -4.2501  -4.1640  -4.1300  -4.1228  -3.9600  -3.9137  -3.8845  -3.7546
    -3.7412  -3.7323  -3.6243  -3.4425  -3.3292  -3.3162  -3.3000  -3.2907
    -3.2245  -3.2048  -3.1772  -3.1375  -3.1167  -3.0838  -3.0618  -3.0372
    -3.0120  -2.9444  -2.9199  -2.9121  -2.8701  -2.7808  -2.7079  -2.6970
    -2.6691  -2.6468  -2.5267  -2.4250  -2.4157  -2.3878  -2.3403  -2.3225
    -2.3039  -2.2158  -2.1576  -2.0845  -2.0656  -2.0322  -2.0103  -1.9798
    -1.9529  -1.7627  -1.6939  -1.6595  -1.6241  -1.6045  -1.5658  -1.5276
    -1.5063  -1.4750  -1.4534  -1.4321  -1.4237  -1.3607  -1.3456  -1.3028
    -1.2834  -1.2627  -1.2402  -1.1839  -1.1732  -1.1643  -1.1007  -1.0896
    -1.0720  -1.0556  -1.0184  -0.9975  -0.9768  -0.9581  -0.9286  -0.9002
    -0.8879  -0.8683  -0.8418  -0.8122  -0.7853  -0.7617  -0.7395  -0.7219
    -0.7032  -0.6878  -0.6786  -0.6370  -0.6237  -0.6077  -0.5415  -0.5349
    -0.5105  -0.4555  -0.4460  -0.4238  -0.4142  -0.3796  -0.3702  -0.3400
    -0.3352  -0.3139  -0.2060  -0.1129  -0.0241   0.0020   0.0223   0.0743
     0.0879   0.1024   0.1131   0.1768   0.2513   0.2760   0.3373   0.3614
     0.4030   0.4207   0.4642   0.4831   0.4932   0.5225   0.5485   0.6079
     0.6210   0.6658   0.6890   0.6944   0.7066   0.7860   0.8554   0.8732
     0.8923   0.9164   0.9249   0.9658   0.9952   1.0298   1.0612   1.0796
     1.0846   1.1347   1.1512   1.1796   1.1990   1.2442   1.2856   1.3016
     1.3110   1.3537   1.3841   1.4179   1.4523   1.4705   1.4861   1.5106
     1.5559   1.5816   1.6063   1.6283   1.6553   1.6603   1.6877   1.7084
     1.7218   1.7257   1.7401   1.7773   1.7844   1.8757   1.9231   1.9444
     1.9564   1.9706   1.9877   2.0227   2.0300   2.0593   2.0737   2.1196
     2.1766   2.1956   2.2291   2.2827   2.3612   2.3772   2.4021   2.7041
     2.7395   3.0384   3.4972   3.5576   3.6465   3.8394   4.6745   4.7342
     5.1227   5.4563   5.7009   5.7304   5.9146   6.0364   6.4597   6.6409
     6.6853   6.9024   7.0293   7.0686

          k = 0.0000 0.4619 0.0000 ( 86446 PWs)   bands (ev):

   -10.3723  -6.2107  -5.5796  -4.9768  -4.5505  -4.5198  -4.4782  -4.3755
    -4.1676  -4.1143  -3.9807  -3.8683  -3.7992  -3.7852  -3.7338  -3.6534
    -3.5825  -3.5667  -3.5567  -3.5278  -3.4243  -3.3956  -3.3808  -3.3495
    -3.3306  -3.3068  -3.2572  -3.2111  -3.2024  -3.1734  -2.9847  -2.9581
    -2.9442  -2.9281  -2.9132  -2.8520  -2.7183  -2.6980  -2.6882  -2.6749
    -2.6357  -2.5829  -2.4761  -2.4041  -2.3890  -2.3458  -2.3265  -2.3138
    -2.2535  -2.2352  -2.2139  -2.1943  -2.1734  -2.0846  -2.0204  -2.0063
    -1.9692  -1.9269  -1.8652  -1.8457  -1.8102  -1.7905  -1.7333  -1.7119
    -1.6300  -1.5932  -1.5672  -1.5525  -1.5097  -1.4733  -1.4385  -1.4250
    -1.3553  -1.3237  -1.3106  -1.2403  -1.2197  -1.1883  -1.1742  -1.1530
    -1.1314  -1.1186  -1.0870  -1.0722  -1.0613  -1.0407  -1.0350  -1.0103
    -0.9974  -0.9379  -0.9116  -0.8981  -0.8737  -0.8633  -0.8504  -0.7837
    -0.7441  -0.7185  -0.6929  -0.6601  -0.6409  -0.6186  -0.6002  -0.5648
    -0.5149  -0.4953  -0.4431  -0.4149  -0.3855  -0.3435  -0.3186  -0.2694
    -0.1981  -0.1779  -0.1085  -0.0938  -0.0724  -0.0381  -0.0277   0.0068
     0.0314   0.0608   0.0892   0.0985   0.1139   0.1295   0.1543   0.1850
     0.2022   0.2121   0.2754   0.3369   0.3481   0.3708   0.4034   0.4578
     0.4768   0.5451   0.5880   0.6315   0.6761   0.7323   0.7629   0.8116
     0.8574   0.8763   0.9050   0.9388   0.9543   0.9585   1.0160   1.0351
     1.0555   1.1009   1.1311   1.1757   1.2081   1.2178   1.2283   1.2533
     1.3190   1.3740   1.4209   1.4488   1.4888   1.5066   1.5229   1.5850
     1.6076   1.6352   1.6463   1.7044   1.7295   1.7618   1.7738   1.8159
     1.8200   1.8963   1.9241   1.9318   1.9601   1.9675   1.9849   2.0040
     2.0220   2.1748   2.1846   2.1954   2.2201   2.2421   2.3379   2.4425
     2.5696   2.6572   2.8576   2.9551   3.2384   3.2749   3.3861   3.4969
     3.6602   3.8732   4.0146   4.2394   4.4876   4.5016   4.5911   4.6694
     4.7551   4.8365   4.9943   5.1323   5.2491   5.6423   5.8828   6.0577
     6.3045   6.5362   6.8511   6.9580

          k = 0.2000-0.1155 0.0000 ( 86368 PWs)   bands (ev):

   -10.3748  -6.6307  -5.3741  -4.8873  -4.5299  -4.4867  -4.4578  -4.4155
    -4.2511  -4.1700  -4.1304  -4.1141  -4.0264  -3.9009  -3.7786  -3.7551
    -3.7482  -3.7221  -3.7083  -3.4341  -3.3286  -3.3181  -3.3052  -3.2483
    -3.2350  -3.1937  -3.1818  -3.1418  -3.1314  -3.1199  -3.0284  -3.0250
    -2.9924  -2.9420  -2.9245  -2.8991  -2.8478  -2.7242  -2.7216  -2.7035
    -2.6872  -2.6509  -2.4944  -2.4648  -2.4114  -2.3695  -2.3527  -2.3302
    -2.3215  -2.2100  -2.1575  -2.0764  -2.0671  -2.0313  -2.0096  -1.9943
    -1.9130  -1.7482  -1.7295  -1.6517  -1.6104  -1.5982  -1.5422  -1.5395
    -1.5050  -1.4600  -1.4568  -1.4343  -1.4075  -1.3928  -1.3567  -1.3113
    -1.2832  -1.2631  -1.2279  -1.1807  -1.1662  -1.1527  -1.1079  -1.1020
    -1.0753  -1.0434  -1.0080  -1.0004  -0.9803  -0.9453  -0.9135  -0.8923
    -0.8866  -0.8602  -0.8450  -0.8116  -0.7764  -0.7590  -0.7485  -0.7264
    -0.7026  -0.7004  -0.6614  -0.6563  -0.6400  -0.6058  -0.5736  -0.5347
    -0.5070  -0.4922  -0.4289  -0.4287  -0.4131  -0.3690  -0.3602  -0.3453
    -0.3367  -0.3336  -0.3151  -0.0882  -0.0099   0.0313   0.0335   0.0649
     0.0975   0.0985   0.1194   0.1613   0.1656   0.2257   0.3318   0.3647
     0.4011   0.4205   0.4636   0.4875   0.4895   0.5296   0.5384   0.5777
     0.6243   0.6575   0.6588   0.6958   0.7035   0.8525   0.8529   0.8660
     0.8897   0.9009   0.9112   0.9742   0.9933   1.0051   1.0691   1.0827
     1.0941   1.1321   1.1574   1.1747   1.2011   1.2387   1.2814   1.2992
     1.3066   1.3714   1.3917   1.4349   1.4490   1.4634   1.5150   1.5286
     1.5621   1.5902   1.5944   1.6380   1.6568   1.6837   1.6858   1.7159
     1.7176   1.7336   1.7358   1.7830   1.7921   1.8980   1.9194   1.9306
     1.9722   1.9962   2.0007   2.0190   2.0472   2.0543   2.0634   2.1365
     2.1632   2.1931   2.2671   2.3513   2.3581   2.3838   2.4202   2.5098
     2.7455   3.2498   3.3202   3.5530   3.6837   3.9853   4.3597   4.8616
     5.3023   5.3337   5.6985   5.7459   5.9292   6.0981   6.3551   6.6426
     6.6659   6.8291   7.0423   7.0735

          k = 0.2000 0.1155 0.0000 ( 86368 PWs)   bands (ev):

   -10.3742  -6.6306  -5.3717  -4.8838  -4.5213  -4.5121  -4.4372  -4.4096
    -4.2500  -4.1632  -4.1302  -4.1234  -3.9602  -3.9136  -3.8846  -3.7543
    -3.7409  -3.7320  -3.6243  -3.4428  -3.3292  -3.3160  -3.2999  -3.2905
    -3.2249  -3.2049  -3.1775  -3.1373  -3.1167  -3.0836  -3.0615  -3.0377
    -3.0121  -2.9437  -2.9201  -2.9121  -2.8702  -2.7807  -2.7076  -2.6972
    -2.6694  -2.6472  -2.5265  -2.4255  -2.4159  -2.3880  -2.3402  -2.3225
    -2.3039  -2.2159  -2.1581  -2.0842  -2.0656  -2.0321  -2.0102  -1.9794
    -1.9529  -1.7633  -1.6947  -1.6595  -1.6240  -1.6054  -1.5663  -1.5282
    -1.5071  -1.4744  -1.4532  -1.4316  -1.4230  -1.3607  -1.3459  -1.3033
    -1.2837  -1.2629  -1.2394  -1.1830  -1.1719  -1.1623  -1.1010  -1.0898
    -1.0719  -1.0562  -1.0188  -0.9990  -0.9770  -0.9586  -0.9281  -0.8997
    -0.8881  -0.8683  -0.8418  -0.8121  -0.7853  -0.7618  -0.7398  -0.7213
    -0.7031  -0.6878  -0.6785  -0.6369  -0.6233  -0.6078  -0.5417  -0.5346
    -0.5105  -0.4553  -0.4458  -0.4235  -0.4143  -0.3796  -0.3704  -0.3400
    -0.3352  -0.3140  -0.2060  -0.1131  -0.0247   0.0018   0.0224   0.0744
     0.0880   0.1032   0.1133   0.1767   0.2516   0.2765   0.3373   0.3617
     0.4035   0.4208   0.4639   0.4848   0.4922   0.5229   0.5486   0.6079
     0.6210   0.6656   0.6891   0.6943   0.7065   0.7860   0.8553   0.8735
     0.8923   0.9163   0.9249   0.9658   0.9951   1.0296   1.0611   1.0792
     1.0845   1.1345   1.1512   1.1798   1.1987   1.2440   1.2855   1.3015
     1.3112   1.3539   1.3841   1.4180   1.4524   1.4707   1.4863   1.5114
     1.5560   1.5816   1.6061   1.6284   1.6553   1.6606   1.6878   1.7081
     1.7218   1.7257   1.7398   1.7778   1.7850   1.8757   1.9233   1.9447
     1.9563   1.9701   1.9872   2.0219   2.0296   2.0585   2.0729   2.1197
     2.1766   2.1958   2.2294   2.2828   2.3611   2.3770   2.4021   2.7034
     2.7388   3.0384   3.4975   3.5581   3.6467   3.8397   4.6747   4.7339
     5.1220   5.4563   5.7010   5.7305   5.9142   6.0368   6.4598   6.6412
     6.6858   6.9032   7.0305   7.0684

          k = 0.2000 0.3464 0.0000 ( 86410 PWs)   bands (ev):

   -10.3725  -6.3469  -5.1511  -5.1141  -5.0917  -4.4751  -4.2642  -4.0651
    -4.0515  -4.0405  -4.0147  -4.0063  -3.9838  -3.9374  -3.8592  -3.8505
    -3.7083  -3.4842  -3.4737  -3.4580  -3.4433  -3.3822  -3.3647  -3.2430
    -3.2327  -3.2237  -3.2049  -3.1696  -3.1109  -3.0916  -3.0687  -3.0193
    -3.0030  -2.9825  -2.9554  -2.9376  -2.9046  -2.8224  -2.7830  -2.5777
    -2.5180  -2.4931  -2.4621  -2.4356  -2.4145  -2.4009  -2.3575  -2.3366
    -2.2917  -2.1921  -2.1780  -2.1057  -2.0818  -2.0480  -2.0061  -1.9933
    -1.9670  -1.9252  -1.9062  -1.8003  -1.7222  -1.7123  -1.6870  -1.6348
    -1.6100  -1.5996  -1.5702  -1.5543  -1.5095  -1.5085  -1.3734  -1.3534
    -1.3509  -1.3340  -1.2828  -1.2621  -1.2327  -1.2087  -1.1827  -1.1410
    -1.1144  -1.0715  -1.0572  -1.0397  -1.0195  -0.9968  -0.9835  -0.9471
    -0.9433  -0.8984  -0.8835  -0.8532  -0.8197  -0.7941  -0.7599  -0.7445
    -0.7233  -0.6943  -0.6934  -0.6691  -0.6385  -0.6180  -0.6105  -0.5992
    -0.5840  -0.5463  -0.5091  -0.4931  -0.4473  -0.4261  -0.3841  -0.3448
    -0.3088  -0.2770  -0.2647  -0.1897  -0.0990  -0.0588  -0.0371   0.0419
     0.0456   0.0933   0.1196   0.1263   0.1534   0.1719   0.2045   0.2091
     0.2541   0.2956   0.3416   0.4099   0.4541   0.4803   0.5013   0.5249
     0.5415   0.5808   0.6059   0.6416   0.6924   0.7475   0.7660   0.7974
     0.8150   0.8537   0.9160   0.9350   0.9591   0.9931   1.0114   1.0226
     1.0516   1.0578   1.0722   1.0899   1.1238   1.1786   1.2210   1.2641
     1.2941   1.3799   1.4126   1.4913   1.5523   1.5984   1.6122   1.6415
     1.6776   1.7184   1.7339   1.7460   1.7661   1.7824   1.8088   1.8136
     1.8245   1.8584   1.8727   1.8940   1.9475   1.9753   1.9987   2.0187
     2.0372   2.0723   2.1588   2.2307   2.2524   2.2854   2.3300   2.3490
     2.3670   2.4483   2.4913   2.5739   2.9475   3.0282   3.2785   3.3955
     3.5594   3.5824   3.6286   4.0451   4.2705   4.3914   4.4773   4.5426
     4.7671   5.1860   5.4092   5.6877   5.7218   5.9378   6.1475   6.3870
     6.4364   6.5023   6.5644   6.7265

          k = 0.2000-0.5774 0.0000 ( 86404 PWs)   bands (ev):

   -10.3720  -5.8222  -5.8088  -5.2110  -4.6494  -4.6171  -4.4336  -4.1798
    -4.0368  -3.9620  -3.8950  -3.8702  -3.7639  -3.7403  -3.6563  -3.6397
    -3.5648  -3.5380  -3.5318  -3.5121  -3.4878  -3.4645  -3.4055  -3.3371
    -3.3234  -3.3155  -3.2773  -3.2617  -3.2007  -3.1068  -3.0635  -2.9936
    -2.9614  -2.9380  -2.9028  -2.8811  -2.8548  -2.7961  -2.7048  -2.6800
    -2.6386  -2.5032  -2.4872  -2.4555  -2.3777  -2.3341  -2.3042  -2.2592
    -2.1752  -2.1411  -2.1207  -2.0834  -2.0639  -2.0238  -2.0167  -1.9826
    -1.9215  -1.8968  -1.8713  -1.8573  -1.8402  -1.8214  -1.8070  -1.7668
    -1.7400  -1.7303  -1.6565  -1.5960  -1.5583  -1.5471  -1.4666  -1.4290
    -1.4115  -1.3882  -1.3596  -1.3487  -1.3285  -1.2788  -1.2502  -1.2164
    -1.2002  -1.1714  -1.1366  -1.1046  -1.0685  -1.0173  -1.0012  -0.9891
    -0.9663  -0.9104  -0.8619  -0.8158  -0.8039  -0.7875  -0.7582  -0.7374
    -0.7320  -0.6955  -0.6881  -0.6750  -0.6598  -0.6451  -0.6166  -0.5866
    -0.5658  -0.5636  -0.5502  -0.5348  -0.5205  -0.4987  -0.4391  -0.3819
    -0.2625  -0.2352  -0.1913  -0.1502  -0.1365  -0.0742  -0.0581  -0.0160
     0.0039   0.0185   0.0398   0.0648   0.0972   0.1313   0.1694   0.1951
     0.2351   0.2474   0.2883   0.3209   0.3505   0.4082   0.4848   0.5097
     0.5765   0.6066   0.6289   0.6502   0.6751   0.7007   0.7353   0.7595
     0.7756   0.7903   0.8306   0.8619   0.9071   0.9238   0.9609   0.9851
     0.9913   1.0230   1.0339   1.0937   1.1613   1.2230   1.2814   1.3006
     1.4085   1.4361   1.4461   1.4730   1.5159   1.5743   1.6043   1.6507
     1.7100   1.7379   1.7497   1.7752   1.7923   1.8054   1.8373   1.8560
     1.9275   1.9424   1.9521   1.9774   1.9947   2.0047   2.0131   2.0836
     2.1428   2.1867   2.2153   2.2307   2.2441   2.2869   2.3308   2.4077
     2.5247   2.9297   3.1364   3.3790   3.3987   3.6373   3.6740   3.7358
     3.7622   3.9710   4.1404   4.3744   4.4033   4.5015   4.8465   4.9169
     4.9855   5.0126   5.1332   5.2628   5.3593   5.4849   5.6552   5.7550
     5.8481   6.2484   6.4445   6.4686

          k = 0.2000-0.3464 0.0000 ( 86410 PWs)   bands (ev):

   -10.3734  -6.3473  -5.1327  -5.1307  -5.1026  -4.4611  -4.3210  -4.0700
    -4.0539  -4.0399  -4.0134  -3.9856  -3.9788  -3.9589  -3.8594  -3.8501
    -3.6647  -3.5050  -3.4880  -3.4611  -3.4515  -3.3885  -3.3640  -3.2510
    -3.2335  -3.2175  -3.1978  -3.1328  -3.1277  -3.0799  -3.0691  -3.0267
    -2.9900  -2.9762  -2.9688  -2.9234  -2.8900  -2.8195  -2.6690  -2.5666
    -2.5029  -2.4816  -2.4631  -2.4314  -2.4114  -2.3870  -2.3700  -2.3363
    -2.3129  -2.2018  -2.1809  -2.1255  -2.0818  -2.0586  -2.0084  -1.9910
    -1.9573  -1.9250  -1.8897  -1.7971  -1.7271  -1.7178  -1.6829  -1.6482
    -1.6031  -1.5885  -1.5749  -1.5440  -1.5149  -1.4955  -1.3725  -1.3637
    -1.3464  -1.3147  -1.2990  -1.2590  -1.2485  -1.2136  -1.1866  -1.1545
    -1.1146  -1.0623  -1.0550  -1.0333  -1.0156  -0.9949  -0.9736  -0.9555
    -0.9343  -0.9218  -0.8985  -0.8728  -0.8379  -0.7857  -0.7578  -0.7400
    -0.7184  -0.7021  -0.6777  -0.6590  -0.6480  -0.6246  -0.6113  -0.5921
    -0.5798  -0.5641  -0.5259  -0.5057  -0.4693  -0.4355  -0.4193  -0.3783
    -0.2931  -0.2801  -0.2347  -0.1785  -0.1122  -0.0752  -0.0594   0.0250
     0.0507   0.0769   0.0907   0.1145   0.1390   0.1610   0.2017   0.2223
     0.2347   0.2766   0.3400   0.4156   0.4375   0.4684   0.4971   0.5141
     0.5358   0.5938   0.6171   0.6841   0.6993   0.7228   0.7756   0.8102
     0.8303   0.8485   0.8849   0.9396   0.9665   0.9797   1.0193   1.0351
     1.0458   1.0619   1.0769   1.0931   1.1032   1.1563   1.2289   1.2719
     1.3316   1.3797   1.4081   1.5060   1.5579   1.5929   1.6057   1.6335
     1.6889   1.7119   1.7287   1.7533   1.7719   1.7971   1.8083   1.8159
     1.8388   1.8559   1.8706   1.9001   1.9444   1.9869   1.9974   2.0135
     2.0383   2.0853   2.1539   2.2124   2.2531   2.2735   2.3078   2.3400
     2.3553   2.4413   2.4918   2.7693   2.9758   3.0365   3.1497   3.3790
     3.5638   3.5831   3.8682   4.0123   4.2587   4.4310   4.4978   4.5401
     4.6641   5.1272   5.4146   5.6906   5.8373   5.9128   6.0201   6.4073
     6.4537   6.4908   6.5229   6.7158

          k = 0.4000-0.2309 0.0000 ( 86446 PWs)   bands (ev):

   -10.3737  -6.2116  -5.5792  -4.9917  -4.5371  -4.5225  -4.5100  -4.3838
    -4.2178  -4.0802  -3.9778  -3.8662  -3.7876  -3.7841  -3.6960  -3.6659
    -3.6363  -3.5810  -3.5542  -3.5353  -3.4273  -3.3975  -3.3909  -3.3677
    -3.3363  -3.3101  -3.2458  -3.2126  -3.2064  -3.0045  -2.9635  -2.9606
    -2.9448  -2.9254  -2.9030  -2.7509  -2.7271  -2.6900  -2.6750  -2.6740
    -2.6489  -2.5833  -2.4573  -2.3955  -2.3849  -2.3660  -2.3265  -2.3262
    -2.2658  -2.2241  -2.2168  -2.1950  -2.1718  -2.1085  -2.0158  -1.9920
    -1.9883  -1.9371  -1.8481  -1.8226  -1.8072  -1.7740  -1.7462  -1.6855
    -1.6281  -1.5742  -1.5465  -1.5323  -1.5269  -1.4541  -1.4401  -1.4232
    -1.3546  -1.3426  -1.2982  -1.2660  -1.2210  -1.2150  -1.1922  -1.1599
    -1.1344  -1.1072  -1.0820  -1.0811  -1.0664  -1.0519  -1.0483  -1.0092
    -0.9735  -0.9587  -0.9156  -0.9044  -0.8791  -0.8652  -0.8478  -0.8306
    -0.7833  -0.7094  -0.6985  -0.6466  -0.6450  -0.6122  -0.6073  -0.5790
    -0.4956  -0.4900  -0.4418  -0.4215  -0.4075  -0.3773  -0.3582  -0.3309
    -0.2235  -0.1586  -0.1276  -0.1062  -0.0823  -0.0276  -0.0013   0.0199
     0.0237   0.0509   0.0646   0.0970   0.1094   0.1252   0.1626   0.1796
     0.1817   0.2454   0.2570   0.2670   0.3340   0.3563   0.3791   0.4679
     0.4979   0.5522   0.5708   0.6460   0.6680   0.7114   0.8018   0.8028
     0.8580   0.8787   0.9047   0.9233   0.9313   0.9749   1.0059   1.0220
     1.0426   1.1037   1.1263   1.1812   1.1830   1.2119   1.2383   1.2588
     1.2949   1.3673   1.3840   1.4692   1.4809   1.5184   1.5751   1.5780
     1.6106   1.6205   1.6641   1.7047   1.7292   1.7789   1.7929   1.8122
     1.8329   1.8918   1.9389   1.9531   1.9600   1.9749   1.9921   2.0148
     2.0209   2.1864   2.1929   2.2026   2.2170   2.2225   2.3576   2.4425
     2.5907   2.7085   2.9173   3.0040   3.2545   3.2551   3.5170   3.5759
     3.7022   3.7369   4.0073   4.2078   4.4813   4.4976   4.5536   4.6546
     4.7747   4.8536   5.0550   5.1183   5.3668   5.5293   5.7909   5.9854
     6.3268   6.5795   6.8894   6.9330

          k = 0.4000-0.0000 0.0000 ( 86410 PWs)   bands (ev):

   -10.3734  -6.3472  -5.1327  -5.1305  -5.1026  -4.4611  -4.3209  -4.0700
    -4.0539  -4.0393  -4.0135  -3.9856  -3.9793  -3.9596  -3.8594  -3.8501
    -3.6646  -3.5040  -3.4874  -3.4613  -3.4515  -3.3879  -3.3641  -3.2509
    -3.2335  -3.2175  -3.1982  -3.1335  -3.1280  -3.0804  -3.0694  -3.0266
    -2.9899  -2.9762  -2.9683  -2.9236  -2.8902  -2.8183  -2.6687  -2.5667
    -2.5033  -2.4820  -2.4632  -2.4319  -2.4117  -2.3870  -2.3706  -2.3366
    -2.3130  -2.2019  -2.1812  -2.1252  -2.0818  -2.0582  -2.0083  -1.9915
    -1.9570  -1.9247  -1.8901  -1.7975  -1.7276  -1.7180  -1.6833  -1.6492
    -1.6036  -1.5890  -1.5754  -1.5442  -1.5152  -1.4955  -1.3722  -1.3632
    -1.3458  -1.3140  -1.2984  -1.2590  -1.2485  -1.2135  -1.1857  -1.1542
    -1.1144  -1.0626  -1.0553  -1.0335  -1.0157  -0.9943  -0.9740  -0.9548
    -0.9352  -0.9208  -0.8984  -0.8718  -0.8377  -0.7855  -0.7579  -0.7401
    -0.7184  -0.7020  -0.6779  -0.6589  -0.6480  -0.6245  -0.6115  -0.5921
    -0.5798  -0.5643  -0.5257  -0.5059  -0.4693  -0.4355  -0.4193  -0.3783
    -0.2927  -0.2798  -0.2342  -0.1782  -0.1121  -0.0753  -0.0597   0.0255
     0.0511   0.0771   0.0913   0.1144   0.1388   0.1608   0.2020   0.2224
     0.2348   0.2758   0.3395   0.4162   0.4378   0.4690   0.4969   0.5142
     0.5357   0.5941   0.6174   0.6840   0.6993   0.7230   0.7757   0.8103
     0.8303   0.8488   0.8846   0.9395   0.9664   0.9795   1.0191   1.0350
     1.0454   1.0617   1.0770   1.0929   1.1024   1.1563   1.2288   1.2722
     1.3315   1.3800   1.4085   1.5060   1.5579   1.5929   1.6059   1.6336
     1.6889   1.7120   1.7282   1.7532   1.7721   1.7975   1.8085   1.8161
     1.8392   1.8559   1.8709   1.8998   1.9447   1.9872   1.9978   2.0136
     2.0381   2.0855   2.1533   2.2116   2.2521   2.2727   2.3073   2.3393
     2.3552   2.4414   2.4921   2.7698   2.9762   3.0367   3.1501   3.3785
     3.5633   3.5824   3.8682   4.0121   4.2587   4.4310   4.4978   4.5403
     4.6642   5.1270   5.4143   5.6902   5.8373   5.9124   6.0205   6.4077
     6.4535   6.4913   6.5230   6.7158

          k = 0.4000 0.2309 0.0000 ( 86446 PWs)   bands (ev):

   -10.3723  -6.2106  -5.5794  -4.9768  -4.5508  -4.5199  -4.4784  -4.3754
    -4.1674  -4.1136  -3.9807  -3.8682  -3.7995  -3.7854  -3.7337  -3.6531
    -3.5823  -3.5665  -3.5564  -3.5274  -3.4241  -3.3958  -3.3811  -3.3491
    -3.3303  -3.3067  -3.2569  -3.2113  -3.2026  -3.1733  -2.9849  -2.9583
    -2.9446  -2.9285  -2.9136  -2.8521  -2.7187  -2.6983  -2.6884  -2.6749
    -2.6362  -2.5831  -2.4761  -2.4045  -2.3888  -2.3458  -2.3266  -2.3137
    -2.2536  -2.2359  -2.2138  -2.1942  -2.1732  -2.0847  -2.0207  -2.0069
    -1.9698  -1.9269  -1.8652  -1.8466  -1.8108  -1.7914  -1.7341  -1.7119
    -1.6300  -1.5932  -1.5669  -1.5520  -1.5094  -1.4732  -1.4390  -1.4246
    -1.3546  -1.3215  -1.3094  -1.2399  -1.2197  -1.1887  -1.1743  -1.1534
    -1.1314  -1.1191  -1.0873  -1.0727  -1.0614  -1.0402  -1.0349  -1.0105
    -0.9972  -0.9376  -0.9122  -0.8988  -0.8739  -0.8637  -0.8503  -0.7840
    -0.7441  -0.7180  -0.6924  -0.6590  -0.6409  -0.6179  -0.6002  -0.5637
    -0.5139  -0.4954  -0.4431  -0.4152  -0.3856  -0.3433  -0.3184  -0.2691
    -0.1981  -0.1781  -0.1088  -0.0940  -0.0722  -0.0381  -0.0277   0.0059
     0.0308   0.0605   0.0893   0.0986   0.1140   0.1301   0.1544   0.1859
     0.2026   0.2120   0.2753   0.3377   0.3485   0.3714   0.4035   0.4580
     0.4772   0.5457   0.5886   0.6315   0.6759   0.7316   0.7622   0.8112
     0.8575   0.8771   0.9052   0.9386   0.9536   0.9581   1.0156   1.0345
     1.0554   1.1008   1.1308   1.1756   1.2081   1.2178   1.2284   1.2533
     1.3192   1.3741   1.4211   1.4489   1.4891   1.5070   1.5231   1.5854
     1.6077   1.6352   1.6466   1.7044   1.7298   1.7618   1.7743   1.8163
     1.8208   1.8965   1.9236   1.9316   1.9600   1.9676   1.9844   2.0033
     2.0212   2.1740   2.1843   2.1949   2.2187   2.2418   2.3381   2.4425
     2.5696   2.6565   2.8575   2.9554   3.2386   3.2749   3.3866   3.4971
     3.6601   3.8729   4.0138   4.2390   4.4876   4.5014   4.5905   4.6700
     4.7553   4.8360   4.9938   5.1322   5.2492   5.6417   5.8836   6.0572
     6.3048   6.5364   6.8511   6.9580

          k = 0.4000-0.6928 0.0000 ( 86404 PWs)   bands (ev):

   -10.3720  -5.8221  -5.8087  -5.2112  -4.6494  -4.6171  -4.4335  -4.1797
    -4.0361  -3.9620  -3.8951  -3.8703  -3.7644  -3.7403  -3.6560  -3.6395
    -3.5646  -3.5382  -3.5317  -3.5117  -3.4881  -3.4648  -3.4052  -3.3369
    -3.3233  -3.3153  -3.2776  -3.2613  -3.2007  -3.1067  -3.0638  -2.9940
    -2.9615  -2.9377  -2.9031  -2.8815  -2.8550  -2.7962  -2.7051  -2.6805
    -2.6388  -2.5026  -2.4875  -2.4558  -2.3779  -2.3341  -2.3042  -2.2591
    -2.1743  -2.1411  -2.1204  -2.0837  -2.0640  -2.0247  -2.0180  -1.9828
    -1.9215  -1.8970  -1.8715  -1.8579  -1.8402  -1.8217  -1.8072  -1.7667
    -1.7407  -1.7295  -1.6565  -1.5965  -1.5579  -1.5474  -1.4664  -1.4296
    -1.4110  -1.3877  -1.3593  -1.3478  -1.3274  -1.2786  -1.2503  -1.2163
    -1.2001  -1.1714  -1.1371  -1.1053  -1.0687  -1.0171  -1.0011  -0.9888
    -0.9667  -0.9104  -0.8611  -0.8159  -0.8039  -0.7879  -0.7585  -0.7373
    -0.7317  -0.6948  -0.6871  -0.6742  -0.6601  -0.6443  -0.6161  -0.5886
    -0.5652  -0.5637  -0.5503  -0.5350  -0.5205  -0.4983  -0.4393  -0.3819
    -0.2615  -0.2347  -0.1910  -0.1505  -0.1366  -0.0743  -0.0582  -0.0161
     0.0038   0.0188   0.0398   0.0646   0.0968   0.1313   0.1696   0.1956
     0.2353   0.2472   0.2883   0.3210   0.3510   0.4088   0.4849   0.5098
     0.5762   0.6067   0.6285   0.6497   0.6751   0.7007   0.7353   0.7596
     0.7753   0.7903   0.8308   0.8617   0.9069   0.9238   0.9607   0.9851
     0.9914   1.0230   1.0342   1.0939   1.1612   1.2231   1.2817   1.3007
     1.4084   1.4359   1.4460   1.4732   1.5159   1.5742   1.6042   1.6508
     1.7103   1.7379   1.7500   1.7757   1.7922   1.8057   1.8373   1.8556
     1.9275   1.9421   1.9520   1.9782   1.9950   2.0053   2.0130   2.0836
     2.1429   2.1861   2.2147   2.2295   2.2439   2.2866   2.3298   2.4077
     2.5249   2.9299   3.1367   3.3790   3.3988   3.6368   3.6745   3.7364
     3.7624   3.9708   4.1403   4.3739   4.4033   4.5014   4.8464   4.9170
     4.9854   5.0126   5.1309   5.2624   5.3594   5.4850   5.6550   5.7555
     5.8482   6.2482   6.4448   6.4696

          k = 0.4000-0.4619 0.0000 ( 86404 PWs)   bands (ev):

   -10.3729  -5.8426  -5.7883  -5.2093  -4.6670  -4.6611  -4.3771  -4.1676
    -4.0865  -3.9655  -3.8905  -3.8776  -3.7715  -3.7475  -3.6644  -3.6404
    -3.5742  -3.5403  -3.5170  -3.5012  -3.4890  -3.4570  -3.3857  -3.3484
    -3.3210  -3.3130  -3.2880  -3.2769  -3.1722  -3.0856  -3.0579  -2.9605
    -2.9410  -2.9349  -2.9015  -2.8898  -2.8114  -2.7666  -2.7068  -2.6985
    -2.6411  -2.5099  -2.4787  -2.4386  -2.3913  -2.3080  -2.2873  -2.2727
    -2.1840  -2.1441  -2.1321  -2.0942  -2.0701  -2.0229  -1.9904  -1.9706
    -1.9311  -1.8912  -1.8707  -1.8514  -1.8380  -1.8228  -1.8162  -1.7786
    -1.7109  -1.6903  -1.6359  -1.6056  -1.5888  -1.5266  -1.4884  -1.4362
    -1.4275  -1.3743  -1.3498  -1.3415  -1.3275  -1.2724  -1.2529  -1.2388
    -1.2106  -1.1724  -1.1546  -1.1383  -1.0568  -1.0201  -1.0067  -1.0002
    -0.9786  -0.9208  -0.8764  -0.8264  -0.8068  -0.7868  -0.7743  -0.7447
    -0.7299  -0.7115  -0.6786  -0.6702  -0.6572  -0.6433  -0.6170  -0.6013
    -0.5707  -0.5662  -0.5469  -0.5393  -0.5173  -0.4827  -0.4777  -0.3993
    -0.2903  -0.2350  -0.1817  -0.1663  -0.1012  -0.0731  -0.0556  -0.0210
     0.0144   0.0371   0.0492   0.0717   0.1144   0.1292   0.1618   0.1708
     0.2259   0.2492   0.3107   0.3156   0.3412   0.3825   0.4543   0.5173
     0.5402   0.5876   0.6410   0.6555   0.6810   0.6934   0.7297   0.7505
     0.7579   0.7821   0.8072   0.8398   0.8936   0.9267   0.9599   0.9719
     1.0018   1.0214   1.0352   1.1523   1.1579   1.2167   1.2592   1.3291
     1.3666   1.4372   1.4489   1.5400   1.5475   1.5709   1.5770   1.6632
     1.6950   1.7343   1.7597   1.7684   1.7984   1.8094   1.8577   1.8668
     1.9289   1.9466   1.9706   1.9833   2.0009   2.0044   2.0068   2.0882
     2.1715   2.1951   2.2017   2.2167   2.2296   2.2855   2.2965   2.3889
     2.4764   3.0575   3.3404   3.3813   3.4022   3.5389   3.6364   3.7448
     3.8054   3.8314   4.2612   4.3777   4.4932   4.5486   4.8451   4.8868
     4.9570   4.9863   5.1964   5.2801   5.3068   5.3651   5.5660   5.8130
     5.8390   6.2817   6.4263   6.4873

     the Fermi energy is     2.0004 ev

!    total energy              =  -27775.69729543 Ry

     total all-electron energy =  -1326720.226805 Ry
     estimated scf accuracy    <       0.00000067 Ry
     smearing contrib. (-TS)   =       0.00281500 Ry
     internal energy E=F+TS    =  -27775.70011043 Ry

     The total energy is F=E-TS. E is the sum of the following terms:
     one-electron contribution =  -25246.55584218 Ry
     hartree contribution      =   12925.36595836 Ry
     xc contribution           =    -896.23891950 Ry
     ewald contribution        =   10922.23971379 Ry
     one-center paw contrib.   =  -25480.51102089 Ry

     convergence has been achieved in  17 iterations

     negative rho (up, down):  1.283E-02 0.000E+00

     Forces acting on atoms (cartesian axes, Ry/au):

     atom    1 type  1   force =     0.00074634    0.00190036   -0.00540683
     atom    2 type  1   force =    -0.00047390   -0.00009692   -0.00308125
     atom    3 type  1   force =     0.00042830   -0.00022170   -0.00341010
     atom    4 type  1   force =    -0.00029518    0.00021907   -0.00415529
     atom    5 type  1   force =    -0.00012554    0.00051584   -0.00308647
     atom    6 type  1   force =     0.00056271   -0.00030042   -0.00370558
     atom    7 type  1   force =    -0.00125850   -0.00154846   -0.00541376
     atom    8 type  1   force =    -0.00050999    0.00033865   -0.00244864
     atom    9 type  1   force =     0.00058000   -0.00026150   -0.00373191
     atom   10 type  1   force =     0.00092857   -0.00310063    0.00574503
     atom   11 type  1   force =    -0.00015296    0.00001039    0.00908751
     atom   12 type  1   force =    -0.00001314   -0.00008614   -0.00112125
     atom   13 type  1   force =     0.00309369    0.00064791    0.00578000
     atom   14 type  1   force =    -0.00189396    0.00103082    0.00927793
     atom   15 type  1   force =    -0.00033970    0.00013499    0.00181229
     atom   16 type  1   force =     0.00172227   -0.00103526   -0.00195104
     atom   17 type  1   force =    -0.00190465    0.00101972    0.00928069
     atom   18 type  1   force =    -0.00000231   -0.00004027   -0.00108590
     atom   19 type  1   force =     0.00002458   -0.00005850   -0.00019010
     atom   20 type  1   force =    -0.00004748    0.00014577    0.00029802
     atom   21 type  1   force =     0.00000389   -0.00002402    0.00008177
     atom   22 type  1   force =     0.00014009    0.00004013   -0.00016203
     atom   23 type  1   force =    -0.00003919   -0.00016987    0.00020047
     atom   24 type  1   force =    -0.00008521    0.00000847    0.00016431
     atom   25 type  1   force =    -0.00010046    0.00006284   -0.00009882
     atom   26 type  1   force =     0.00002570    0.00011596    0.00009160
     atom   27 type  1   force =     0.00016455    0.00006196   -0.00005411
     atom   28 type  1   force =     0.00006976   -0.00006262   -0.00023152
     atom   29 type  1   force =     0.00075673    0.00029251    0.00082135
     atom   30 type  1   force =    -0.00001780    0.00011777    0.00020980
     atom   31 type  1   force =    -0.00002996    0.00009635   -0.00000841
     atom   32 type  1   force =     0.00029947   -0.00047720    0.00043524
     atom   33 type  1   force =     0.00027684    0.00005861   -0.00019577
     atom   34 type  1   force =     0.00024180   -0.00006423   -0.00027393
     atom   35 type  1   force =    -0.00003537   -0.00006422   -0.00041761
     atom   36 type  1   force =     0.00021002   -0.00030513   -0.00014261
     atom   37 type  2   force =     0.00097779   -0.00141824    0.00225628
     atom   38 type  3   force =     0.00056980   -0.00021733   -0.00023636
     atom   39 type  3   force =    -0.00449762    0.00273454   -0.00493300

     Total force =     0.007968     Total SCF correction =     0.001520
     SCF correction compared to forces is large: reduce conv_thr to get better values

     negative rho (up, down):  1.283E-02 0.000E+00

     negative rho (up, down):  1.283E-02 0.000E+00

     negative rho (up, down):  1.283E-02 0.000E+00

     negative rho (up, down):  1.283E-02 0.000E+00

     negative rho (up, down):  1.283E-02 0.000E+00

     negative rho (up, down):  1.283E-02 0.000E+00

     negative rho (up, down):  1.283E-02 0.000E+00

     negative rho (up, down):  1.283E-02 0.000E+00

     negative rho (up, down):  1.283E-02 0.000E+00

     negative rho (up, down):  1.283E-02 0.000E+00

     negative rho (up, down):  1.283E-02 0.000E+00

     negative rho (up, down):  1.283E-02 0.000E+00

     negative rho (up, down):  1.283E-02 0.000E+00

     negative rho (up, down):  1.283E-02 0.000E+00

     negative rho (up, down):  1.283E-02 0.000E+00

     negative rho (up, down):  1.283E-02 0.000E+00

     negative rho (up, down):  1.283E-02 0.000E+00

     negative rho (up, down):  1.283E-02 0.000E+00

     negative rho (up, down):  1.283E-02 0.000E+00

     negative rho (up, down):  1.283E-02 0.000E+00

     negative rho (up, down):  1.283E-02 0.000E+00

     negative rho (up, down):  1.283E-02 0.000E+00

     negative rho (up, down):  1.283E-02 0.000E+00

     negative rho (up, down):  1.283E-02 0.000E+00

     negative rho (up, down):  1.283E-02 0.000E+00

     negative rho (up, down):  1.283E-02 0.000E+00

     negative rho (up, down):  1.283E-02 0.000E+00

     negative rho (up, down):  1.283E-02 0.000E+00

     negative rho (up, down):  1.283E-02 0.000E+00

     negative rho (up, down):  1.283E-02 0.000E+00

     negative rho (up, down):  1.283E-02 0.000E+00

     negative rho (up, down):  1.283E-02 0.000E+00

     negative rho (up, down):  1.283E-02 0.000E+00

     negative rho (up, down):  1.283E-02 0.000E+00
 BEEFens 2000 ensemble energies
             -0.599111580197610E+02
             -0.357826850778167E+01
             -0.156722505536402E+02
              0.424264407547854E+02
             -0.218791280827166E+02
             -0.203389948652568E+02
             -0.346677491223418E+02
             -0.853477410503999E+02
             -0.460892852984441E+02
             -0.468440086604833E+02
             -0.364978392226319E+02
              0.219890556570218E+01
              0.401507380396220E+01
              0.768773420341302E+01
              0.260687409299322E+01
              0.469383004892751E+02
             -0.206495294282901E+02
             -0.228959357321272E+02
              0.190276977321365E+02
             -0.111077322074002E+03
              0.529597266918966E+02
             -0.287675369639998E+02
             -0.327602278219102E+01
             -0.113120973482987E+02
             -0.886216490548566E+01
             -0.456746417756403E+01
              0.872435862481606E+02
             -0.184423316541966E+02
             -0.889459766420305E+01
             -0.511688191404162E+02
              0.807469722951764E+02
             -0.186712336047654E+02
             -0.370092525033115E+02
              0.246990090999512E+02
             -0.281655887721809E+01
              0.160704646052027E+02
             -0.488297706705731E+01
              0.108127625534856E+02
              0.283973186153327E+02
             -0.102089939597364E+03
              0.552017821156589E+02
              0.140885433485439E+02
             -0.158157049638464E+01
             -0.357807989035842E+02
              0.121845426552161E+02
             -0.144725692700583E+02
              0.392484759119109E+02
              0.360693267159551E+02
             -0.305924819878088E+02
             -0.271309406532703E+02
             -0.324876787444542E+02
             -0.347796388064905E+02
              0.133853329139740E+02
             -0.484581466168102E+02
              0.113651339544489E+02
              0.615770452832572E+02
              0.626430513807637E+02
              0.352176765642428E+02
              0.152057270392022E+02
              0.266679587735521E+02
              0.880887992181603E+02
              0.210669404021301E+02
             -0.542088235573772E+02
             -0.155970581086874E+02
             -0.232524715335832E+02
              0.622379049244283E+02
             -0.764853445040143E+02
             -0.664953516811545E+02
             -0.255634025055639E+02
             -0.624941902221724E+01
             -0.466035939812104E+02
              0.267514108547863E+02
              0.786584018312942E+01
              0.848355537816013E+01
             -0.392862758204931E+02
             -0.342628820637765E+02
             -0.534919948040334E+02
              0.386695567069020E+02
             -0.292011811758430E+02
              0.261652610780102E+02
             -0.706889597719912E+01
             -0.314710901930996E+02
             -0.570208403745323E+02
             -0.174836924862718E+02
             -0.885185456793783E+01
             -0.122867403240563E+02
              0.407737867332350E+02
              0.673632607458763E+02
             -0.380113067037636E+02
             -0.785098624094924E+02
             -0.217410697210490E+02
              0.110220096280850E+03
             -0.586031306748041E+02
              0.352566923170380E+02
             -0.941786854068971E+01
             -0.656150489705578E+02
              0.251101957350513E+02
              0.394391112435589E+02
             -0.197116253817243E+02
              0.396947323546514E+02
             -0.293088684077175E+02
             -0.470896379849136E+02
              0.854091309294607E+02
              0.448503791643406E+02
              0.333979730122827E+02
              0.144795259419454E+02
              0.202803990270216E+02
              0.846827484334461E+02
             -0.253640633680262E+02
              0.785010452171433E+01
             -0.140762669807837E+03
              0.179056587050837E+02
             -0.708420159550273E+02
              0.149529287374206E+02
              0.202050428424477E+02
             -0.328392404031623E+02
             -0.551362456555756E+02
              0.650765832716320E+01
             -0.300621085275839E+02
              0.302660566645523E+02
             -0.524493023406136E+02
              0.180482086138011E+01
             -0.352398009330813E+02
             -0.418130802313209E+01
             -0.110538539930147E+01
              0.178497666651473E+02
              0.144579191634364E+01
             -0.644316878242671E+01
              0.582538113844020E+02
              0.897426696330041E+02
              0.478358691150808E+02
              0.822608208988050E+02
             -0.113542457148468E+02
              0.142018153566026E+02
              0.534950508056378E+02
             -0.111465320041378E+02
             -0.726875132921433E+02
             -0.379043370989134E+02
             -0.516142156625650E+02
             -0.273263486096805E+02
              0.324291270768963E+02
             -0.115338463074575E+03
             -0.185898357105183E+02
              0.408475101804043E+02
             -0.381496037745381E+02
             -0.362228503143127E+02
              0.537217922847248E+02
              0.394968007100962E+02
             -0.350798166457561E+02
              0.133880114018633E+02
             -0.270385728834531E+02
              0.338718104633676E+02
              0.436067748640437E+01
              0.209775333564514E+02
             -0.875166192132457E+02
             -0.474462807158591E+02
             -0.985692912787658E+01
              0.323057026024241E+01
             -0.361584289574457E+02
              0.104719402018249E+03
             -0.229499877084850E+02
             -0.395606838954693E+02
              0.384103616706557E+02
             -0.488848669934556E+02
             -0.358832706209211E+02
              0.320901122490188E+02
              0.123010192802528E+02
              0.163231408910226E+02
              0.114642291086459E+02
             -0.131580994206202E+02
              0.224004274117490E+02
              0.583112840303922E+02
             -0.308372502427241E+02
              0.159727343518279E+02
              0.924018060948958E+02
              0.337099037386893E+02
             -0.723025185702545E+01
             -0.186203794616451E+02
              0.151501664322213E+03
             -0.161209002982523E+02
              0.358740493359745E+02
              0.190811270955931E+02
              0.358263577299218E+02
              0.880977063897978E+02
              0.537418374534659E+02
             -0.231716979889452E+01
              0.224737229118197E+02
              0.478835546840464E+02
              0.358845385736171E+02
             -0.518278658319172E+02
              0.924919961056098E+02
             -0.815666323614278E+02
             -0.196825730356017E+02
              0.576087389653673E+02
              0.656248894655680E+01
              0.782025570389169E+01
              0.337516434130177E+02
              0.297410933255867E+02
              0.349708598203300E+02
             -0.630138934991198E+02
              0.283217403922299E+01
             -0.294839592416148E+02
             -0.861923800410432E+01
             -0.142660526636985E+01
             -0.708858221560253E+01
             -0.407705576818864E+01
              0.849570280898549E+02
             -0.100414633984060E+02
             -0.272987820838853E+02
             -0.495187768312624E+01
              0.138202637629049E+02
             -0.556368294878824E+02
             -0.400764770089519E+02
             -0.377947947812336E+02
             -0.622919749648925E+02
             -0.167377714801515E+02
             -0.442675602395975E+02
              0.161149548811775E+02
             -0.242708317051645E+01
             -0.102861627133569E+02
             -0.924511208756181E+01
              0.802140682740509E+01
             -0.241189323951981E+02
              0.681725395578626E+02
             -0.796861681022771E+02
             -0.139461103707348E+02
             -0.172359667215559E+02
              0.180135663897715E+02
              0.211974687920388E+02
             -0.457696322074469E+02
             -0.200452544331580E+02
              0.435605060828051E+02
             -0.273868466413859E+02
              0.185457059627894E+02
              0.378862657335245E+02
             -0.321887019432143E+01
              0.112775028662794E+03
             -0.228646592582819E+02
             -0.336991710838760E+02
              0.576864731671799E+01
             -0.225037103995521E+02
              0.520923845157997E+02
             -0.331644443795415E+02
              0.104955708427296E+02
              0.634461051121082E+02
             -0.124726327869816E+02
              0.118853479782764E+03
              0.124359544435635E+03
             -0.641694373890396E+02
              0.583880317007925E+02
              0.163700486315627E+02
             -0.511102934079542E+02
              0.214048415867042E+02
              0.348975835749007E+02
              0.357134516920793E+02
              0.129032052828811E+01
              0.157770114899681E+02
              0.686984130338304E+02
             -0.244223709050921E+02
              0.180245616571885E+02
              0.730827286461439E+02
             -0.368145640191264E+02
             -0.126889028604392E+02
              0.501690936552253E+02
              0.293777024490702E+02
              0.771075935411594E+02
              0.218756064688899E+02
              0.609635936533175E+01
              0.277268810696893E+02
              0.378321597689333E+02
             -0.465696013776581E+02
              0.322375081570624E+01
              0.126734702494485E+02
              0.112375639098100E+02
              0.217732113365396E+02
             -0.567680082969672E+02
              0.362304001183780E+02
             -0.438742374325412E+02
             -0.343848229308964E+02
              0.175847070084687E+02
             -0.180354055168416E+02
              0.548052191768937E+02
             -0.254460763930128E+02
              0.263283951418441E+02
              0.364624022122742E+02
              0.820072519822306E+02
              0.568554064485254E+02
              0.455755666699150E+02
             -0.105186557902985E+02
             -0.378170331747822E+01
             -0.328664292234952E+02
              0.741013628495671E+02
              0.787338939280253E+02
              0.357191773278324E+02
             -0.188647886352096E+02
              0.505983989477375E+02
             -0.162754532728923E+02
              0.212781992067701E+02
              0.606272200921312E+02
              0.216744826305663E+01
             -0.103130081509975E+02
             -0.280551987696679E+02
             -0.504578484649107E+02
              0.934105672447515E+02
              0.433782463364034E+02
             -0.551498539582108E+02
             -0.937669407421984E+01
              0.246760057314183E+02
             -0.984255390665538E+01
              0.584268644453534E+02
              0.150312315065950E+02
              0.789509668399752E+02
              0.275962905554228E+02
             -0.261077865356164E+02
              0.246700275266429E+02
             -0.493150579368802E+01
             -0.320534030241445E+02
              0.131202306235000E+02
              0.203806641799897E+02
              0.922336280326906E+02
              0.788307656860426E+02
              0.544321024999777E+02
              0.722862771735886E+02
              0.794184184207813E+01
             -0.270884581234088E+02
              0.161577286748777E+02
             -0.363928318448509E+02
             -0.469675908444853E+02
             -0.556795162924706E+02
             -0.262733540213267E+02
             -0.108427330039897E+03
             -0.287130052341755E+02
             -0.827071123479473E+02
              0.207676267141639E+02
             -0.471712045142057E+02
              0.390858486708577E+02
             -0.929735924020514E+02
             -0.326658256784155E+02
              0.543796436195161E+02
              0.205072288816025E+02
             -0.819995666698050E+02
              0.624654103077999E+02
             -0.253438331501955E+02
              0.505848427667422E+02
             -0.239172298488914E+02
             -0.741973536960245E+02
              0.109701506839962E+02
             -0.603320757928229E+02
             -0.167656701179797E+02
             -0.147609261886560E+01
              0.413220615210357E+02
              0.125524368836567E+03
             -0.456630720092385E+02
             -0.358071986791414E+02
             -0.910359249527630E+00
             -0.129334436917479E+02
             -0.813079519008999E+02
             -0.590086633764765E+02
              0.511382379937759E+02
             -0.286699395238062E+02
              0.166677796797223E+02
             -0.483460541723832E+02
             -0.129925042465253E+02
             -0.432295253369617E+02
              0.559826606025694E+02
              0.149459285077107E+02
             -0.228861474867869E+02
             -0.124819841154437E+02
              0.652522500877775E+01
             -0.609271134924006E+01
              0.436631885946272E+02
             -0.248873089485483E+02
              0.264994618300636E+01
              0.335558206103012E+02
              0.169683793359177E+02
             -0.157106116836507E+02
              0.154443688733946E+03
              0.531116854383263E+02
              0.104680709181841E+01
              0.160735572700752E+02
             -0.607697098452402E+02
              0.311096965866465E+02
             -0.712490660963896E+02
             -0.248069829982203E+02
             -0.515770976566002E+02
             -0.217999498041379E+02
              0.562388808725176E+02
             -0.530273629759644E+02
              0.157798509173287E+02
             -0.405465052530371E+01
              0.384793931476966E+01
             -0.430089972490542E+02
             -0.473463016722384E+02
             -0.395713491864876E+01
             -0.420924254373181E+02
             -0.214377090202739E+02
             -0.433674542804451E+02
             -0.118585388928923E+02
             -0.355141670352849E+02
             -0.510721593261019E+02
              0.210185271155521E+02
             -0.207602777738388E+02
              0.185089204807271E+02
              0.965370879253685E+01
             -0.729164439577170E+02
             -0.542069895152774E+02
             -0.392451531985767E+02
              0.350251177074006E+02
              0.277816102315961E+01
             -0.619203952858646E+02
              0.579174757080311E+02
             -0.396186472054312E+02
              0.537955886349134E+02
             -0.285965460429844E+02
             -0.440171305890183E+02
              0.295382835171644E+02
             -0.649035294100436E+02
             -0.376235792188947E+02
              0.665841356075364E+02
              0.201789825954577E+02
             -0.355125577354354E+02
              0.483060497024675E+02
             -0.172101931027992E+02
             -0.318558483934952E+02
             -0.298207397932150E+02
             -0.494580993130500E+02
              0.246526821977313E+02
             -0.922977904308379E+02
             -0.831193946278247E+02
             -0.725123945727307E+01
             -0.303440201882765E+02
             -0.568576580903060E+02
              0.712767259599243E+02
              0.129912467094645E+03
             -0.358315980807765E+02
             -0.251273591810377E+01
             -0.630009791103934E+02
              0.642839481693821E+02
              0.168103771314618E+02
             -0.179244703840442E+02
             -0.405788844432233E+02
              0.146826442465881E+02
             -0.578985621994788E+02
             -0.196478804043380E+02
             -0.894350510694501E+02
              0.332849436330328E+02
              0.167619961451180E+02
              0.192117385592542E+01
             -0.693942338602346E+01
             -0.324745318006151E+02
             -0.744985278078957E+01
              0.123935682125974E+03
             -0.197159450006949E+02
             -0.431907428028771E+02
             -0.675815121170917E+02
              0.107706856474322E+02
             -0.337733277610753E+02
              0.579239049581136E+01
              0.257554966706599E+02
              0.101664488522109E+02
              0.273787781821755E+02
              0.117866714809210E+02
              0.622766320905550E+02
              0.313801369683397E+02
             -0.322361613810599E+02
              0.349366693070686E+02
              0.375432752464394E+02
              0.119343725499816E+02
              0.482736570592048E+02
             -0.221154458258302E+02
              0.757213462757245E+02
              0.169278702468547E+02
             -0.268074576538027E+02
             -0.717826600187231E+01
             -0.184532949245663E+02
              0.260010227939661E+02
             -0.231346016323825E+02
              0.378469326278719E-02
             -0.833568140699686E+01
              0.800168796250156E+02
              0.493248747875446E+02
             -0.679298153225001E+02
             -0.467025758998290E+01
             -0.549444650446151E+02
             -0.157864931071502E+02
             -0.265827893247682E+02
              0.362439027233097E+01
              0.640486535762022E+00
             -0.254304466592193E+02
              0.794322545238091E+01
             -0.591757518572578E+01
             -0.127638394312301E+02
              0.848630720341858E+02
              0.180002254923689E+02
             -0.797429959351025E+02
             -0.454023511784417E+02
              0.933768385954154E+02
              0.275015564047918E+02
             -0.105847261781022E+02
              0.103270037481349E+03
             -0.192671929754457E+02
             -0.122166282565414E+02
             -0.526826424100466E+01
              0.105567609800684E+02
              0.268678235316738E+02
              0.777412683787159E+01
              0.301971918755148E+02
             -0.186623275692100E+02
             -0.299217606846131E+02
             -0.413388730116367E+02
             -0.471135201801944E+02
              0.459368781618464E+02
              0.125074152388493E+02
              0.383171907123961E+02
              0.131699713497293E+02
              0.845076734695492E+02
              0.153945443636728E+02
             -0.837076491418221E+02
             -0.330623730484577E+02
              0.133247884325971E+02
             -0.299455107746897E+02
              0.619038566897400E+02
             -0.866133734574464E+01
              0.146594658471695E+02
              0.490654532874548E+02
             -0.697824016926695E+02
              0.147990410717138E+03
              0.206465536035811E+02
              0.268471085558145E+02
              0.343205487862045E+02
              0.103160737724795E+02
             -0.154180971834410E+01
              0.354493325885097E+02
             -0.353141850683693E+02
              0.763218897864169E+02
              0.676104360569440E+02
             -0.401445724959696E+02
              0.147516760694339E+02
              0.661576833657726E+02
             -0.221279020560709E+02
              0.152056490517327E+02
              0.431106322981938E+02
              0.417301530867982E+02
             -0.775995899879339E+02
             -0.151984408175512E+02
             -0.352763174360394E+02
             -0.141493283363303E+01
             -0.758611958702215E+01
             -0.550112990818116E+01
             -0.179153308447408E+02
             -0.290300540134431E+02
              0.616112224361916E+01
              0.110991111175730E+02
              0.529385940973861E+02
             -0.384922019014867E+02
              0.369169166108533E+02
              0.432760440914865E+02
             -0.185236449576565E+02
              0.863229397804717E+02
             -0.689948370316044E+02
             -0.101972703857597E+03
             -0.650684150907063E+01
             -0.261014336862786E+01
              0.386452224871471E+01
              0.780489153233052E+02
             -0.106824428349499E+02
              0.411728620836303E+02
              0.436712846126646E+02
              0.380806259598010E+02
             -0.988262156621033E+01
              0.620458256989186E+02
             -0.131760356877619E+02
             -0.302818761503526E+02
             -0.475095270341211E+02
              0.575096015947452E+01
              0.365229998754600E+02
             -0.599650349311261E+01
              0.388914279678425E+02
             -0.176630182074598E+01
              0.648545894016092E+02
              0.185274683105459E+02
              0.989887207547775E+01
             -0.121935548774009E+02
              0.328648820087755E+02
              0.357777927991215E+02
              0.230858092093241E+02
             -0.466650045883341E+00
             -0.544121393168846E+02
              0.257226512241805E+02
              0.172746692984464E+02
              0.398578077106981E+02
              0.268621395923975E+02
              0.368172759123023E+02
             -0.592010942226088E+01
              0.247190651656980E+02
             -0.295344989233379E+02
             -0.195222827188672E+01
             -0.563039639387468E+02
             -0.303763210867579E+02
              0.373643536626224E+02
             -0.925308742215628E+02
              0.291539271064312E+02
              0.182424690199896E+02
              0.830314736247122E+02
             -0.298706263817166E+02
              0.325709631771212E+02
             -0.136484030348694E+02
             -0.458229669307728E+02
             -0.753713930817158E+02
             -0.510289640738296E+01
             -0.849404257403559E+02
              0.198717675735911E+02
             -0.245008312437309E+02
              0.302001003706865E+02
              0.234404043402508E+02
             -0.237841139777961E+02
             -0.261990988655012E+02
              0.385933841689798E+02
             -0.581649465054080E+02
             -0.115260021522698E+02
             -0.194160949500316E+02
              0.209540807794087E+02
             -0.895335625113694E+01
              0.358601531322086E+01
             -0.198796521404466E+02
              0.552542395218338E+02
             -0.432963430990355E+02
              0.779617980970454E+01
              0.578470414435413E+02
             -0.319050896870462E+02
              0.356516829288606E+01
             -0.883637606283992E+01
             -0.661727955639418E+02
             -0.477918289242664E+02
             -0.858038561868047E+01
              0.237284269856590E+02
              0.298417443773321E+02
              0.854811954717542E+01
             -0.401482832044690E+01
              0.149827524357482E+02
             -0.435064540108050E+02
              0.338237095564693E+01
             -0.524940573599329E+02
             -0.321800154926589E+02
              0.468882809268170E+02
             -0.291589361481963E+02
              0.614379474029856E+02
             -0.212130751892939E+02
              0.349589318989586E+02
              0.238850371836624E+02
             -0.637063643839994E+02
             -0.277316727891757E+02
              0.921531303847161E+01
             -0.367101302735547E+02
             -0.334795302011740E+02
             -0.819726985972295E+02
             -0.532811965596354E+02
             -0.504648211062715E+02
             -0.410167533413324E+02
             -0.991595079501565E+00
              0.968551267992342E+01
              0.933152791229787E+00
              0.150158513667320E+02
             -0.542570705392354E+02
              0.140369944251221E+02
              0.253729892565415E+02
             -0.658663960180531E+02
             -0.695193493840168E+02
             -0.426908944874787E+02
             -0.168335076197224E+02
              0.176726115326722E+02
              0.459723264352044E+01
             -0.420651690687458E+02
              0.362824593870272E+02
             -0.213453820830499E+02
              0.511366617506000E+02
             -0.876935077431908E+02
              0.590415651004667E+02
             -0.201352178064917E+01
             -0.363470298438385E+02
             -0.213004724345290E+02
              0.471357827340151E+01
              0.368776541534669E+02
             -0.748112218760620E+02
             -0.119218703346174E+02
             -0.214793648298272E+02
              0.506235271239138E+02
              0.855460455905599E+02
             -0.953757685210409E+02
              0.933233670226783E+02
              0.462895132130455E+02
             -0.716515600577607E+02
             -0.362814215774077E+02
              0.742737606517539E+02
              0.625368192303636E+02
             -0.178832309625662E+02
             -0.454235969016992E+01
              0.711335533073193E+01
              0.640079551760027E+02
             -0.501486450473297E+02
              0.156867887109691E+02
             -0.463736257129091E+01
              0.344482075846639E+02
             -0.738788910811594E+02
             -0.644636960730780E+01
             -0.347820766128717E+02
              0.454932868119232E+02
              0.464076303845786E+02
             -0.851699161134968E+02
             -0.481572762269491E+02
             -0.253760100441067E+02
             -0.334397597003823E+02
             -0.107818674811708E+02
             -0.240407113114669E+02
              0.422124644128259E+02
              0.395834141848620E+02
             -0.561848059188617E+01
             -0.411212930927221E+02
             -0.840647525707327E+02
              0.437265410925170E+02
             -0.517797774164984E+02
             -0.308697475323123E+02
              0.538380326750416E+01
             -0.318414905851303E+02
             -0.393224120471199E+02
             -0.236668673297868E+02
             -0.379689837688899E+02
             -0.267860669887707E+02
             -0.476597367530920E+02
              0.557395277380933E+02
              0.631042498068464E+02
             -0.159597025575806E+01
             -0.258665094609526E+02
             -0.629915417276379E+01
              0.436185898376904E+02
             -0.857855548933678E+02
             -0.143509336437324E+02
              0.517840744278665E+02
              0.655660363514657E+02
             -0.243147887001313E+02
              0.900358701593711E+01
              0.517537175947609E+02
              0.196394435549132E+02
             -0.827302681878513E+01
             -0.448622438387833E+02
              0.278757673195407E+02
             -0.348647680781658E+02
             -0.163630205114509E+02
             -0.150518025350677E+02
             -0.198482977737487E+02
              0.192276959134929E+02
              0.791014453805160E+02
              0.194458104068676E+01
              0.531826256717213E+01
             -0.876866731155971E+02
             -0.173727461005710E+02
             -0.348357800812333E+02
              0.273595849962942E+01
             -0.404332085214345E+02
              0.720181982913568E+02
              0.774630274565977E+02
              0.121908615974903E+02
             -0.139046643919415E+02
              0.141989221928790E+02
              0.258001875533125E+02
             -0.476635915338854E+02
             -0.866212263200293E+01
              0.135996796517836E+02
              0.163053157540369E+02
              0.557453632341378E+02
              0.417003108229657E+02
             -0.195269414250751E+02
              0.328051647249154E+02
             -0.957095403850318E+02
             -0.509234195077056E+00
              0.837104408580336E+02
              0.893959228750145E+01
              0.141354949828906E+01
              0.332251349801178E+02
             -0.295468085556642E+02
              0.948238946571879E+02
             -0.118548705954475E+02
              0.860652712092713E+02
              0.375832653860312E+02
             -0.387742477816789E+02
              0.311059648272894E+02
             -0.330204472411276E+02
             -0.710462624716911E+02
             -0.644182412938801E+01
             -0.535989478632738E+02
             -0.541925560559808E+02
             -0.679223990539023E+01
              0.291250393681465E+02
             -0.493856472029097E+01
             -0.356050551782505E+02
              0.113707200551594E+02
             -0.730157678085980E+02
             -0.100453684453074E+02
             -0.819385166614150E+02
              0.482374255710622E+02
[...]
              0.280922745425003E+02
              0.140200117483521E+03
              0.238710522430613E+02
              0.120412693940123E+02
             -0.458630556968600E+02
             -0.630768595847678E+02
             -0.187507625316179E+02
              0.326319343171653E+02
             -0.420381479781986E+01
              0.187251339348211E+02
              0.332170768125129E+02
             -0.578932975804014E+02
              0.219224710772136E+02
              0.577689435678571E+02
              0.545987624406134E+02
             -0.407905802511692E+01
             -0.142755984120822E+01
             -0.985202948476635E+01
             -0.477028352365475E+02
             -0.666271672126455E+02
              0.776305197484444E+02
             -0.510183576383716E+01
             -0.581409056237304E+02
              0.162668230969646E+01
             -0.201752645144112E+02
              0.928280070087055E+02
             -0.213988352482600E+02
             -0.349137149235335E+02
              0.331042806268016E+02
             -0.143898680067643E+02
              0.384029541947565E+02
             -0.236542261793551E+01
              0.999618433823296E+02
              0.483393161992222E+02
             -0.522194514233086E+01
             -0.317328340541055E+02
              0.228825736322789E+02
             -0.522050070630778E+02
             -0.127320609157114E+02
              0.578150883965641E+02
             -0.284698794353074E+02
             -0.433139600334654E+02
             -0.220535471381512E+02
              0.512525773589153E+02
              0.123233980435225E+02
             -0.838970485962144E+02
              0.299821587756036E+02
              0.151208624225575E+02
              0.564666771948646E+01
             -0.507802671228214E+02
             -0.388452438840750E+01
              0.319015911879006E+02
              0.507131690932725E+02
              0.625012913612426E+02
              0.224981727942375E+02
              0.661453080493715E+00
             -0.491564278491639E+02
             -0.505011724443848E+02
             -0.739907376605495E+02
             -0.600670189465586E+01
              0.305045986216375E+02
             -0.377844998844657E+01
              0.540773988850091E+02
             -0.314167267255700E+02
              0.164386702178106E+02
             -0.100173717648063E+02
             -0.286370457102867E+02
              0.578643584990448E+02
              0.786045887763834E+01
              0.596892935531500E+02
              0.501313479841440E+01
              0.262626925776462E+02
             -0.190774565250353E+02
              0.578844033615927E+02
             -0.109677993087383E+02
             -0.107918349994261E+00
             -0.780830391999610E+02
             -0.127460524284257E+02
              0.710688773231703E+02
              0.665333543179308E+02
              0.248965536581410E+02
             -0.128341822134315E+02
              0.339792264122508E+01
             -0.170859221554061E+02
             -0.184539394124664E+01
              0.897119000472969E+02
              0.117396478472870E+01
             -0.186988650762786E+02
             -0.109468396327645E+03
             -0.547229527484536E+02
             -0.370531989443081E+02
             -0.650986770187078E+02
             -0.548540855793612E+02
             -0.674041558556514E+02
             -0.441814202340122E+02
             -0.407537622288899E+02
             -0.446106290100910E+02
              0.478220124095009E+02
             -0.291969280621320E+02
             -0.984799759447949E+02
              0.413901915112067E+02
             -0.256187967814442E+02
             -0.781334903395217E+02
              0.931762493832565E+02
             -0.216725608056617E+02
              0.226196360940036E+02
              0.450461255869153E+02
             -0.147537350337586E+01
              0.251381573276112E+02
              0.467760783598246E+01
              0.399414683218451E+00
             -0.149252206262702E+02
             -0.707039610267873E+02
              0.131797524471042E+02
             -0.127940370285227E+03
              0.615760988730705E+02
             -0.435821420422860E+02
             -0.160726957335834E+02
             -0.155710826153851E+02
              0.690096385470894E+01
             -0.225805491554323E+02
              0.293515040898516E+02
             -0.513502110715424E+02
              0.362855854971872E+02
              0.365913521012539E+02
              0.167164366710943E+02
              0.995787941384515E+01
              0.195227660886994E+02
              0.610034996751131E+01
              0.306691864180290E+02
             -0.792870479381759E+01
             -0.583602899167223E+02
              0.745814781433745E+01
             -0.148671651030228E+02
             -0.189166349689935E+01
              0.499742984933109E+02
             -0.817306952353755E+02
             -0.149740807011943E+01
              0.540330190023155E+00
              0.984600307870198E+01
              0.314753453617705E+02
             -0.122173626508093E+02
              0.825641763913313E+02
              0.482950925567999E+02
             -0.181272551819770E+02
             -0.943680844988700E+01
              0.983144922058983E+00
              0.760072475279570E+02
             -0.580224913160770E+02
             -0.104545594540570E+03
              0.305814717446881E+02
             -0.162228865232505E+02
             -0.137745288041243E+02
              0.128282802311166E+02
              0.759276414092021E+02
              0.459053584535783E+02
             -0.151468645580162E+02
             -0.496632133007292E+02
             -0.535077317865999E+01
              0.303068368555313E+02
             -0.109440945480870E+02
             -0.746713429332381E+02
             -0.261667443808938E+01
             -0.878318163188664E+02
             -0.469367295033937E+02
              0.758317895264352E+02
             -0.477370492794633E+02
             -0.627952093289927E+02
             -0.508031984709179E+02
             -0.345082375963885E+02
              0.336951784932426E+02
              0.811313079339548E+02
             -0.347733141242043E+01
              0.273400979921152E+02
             -0.181355676839910E+02
             -0.685803663973564E+02
              0.459011989807480E+02
             -0.439238988460053E+02
              0.318602635114286E+02
              0.372567776454953E+02
             -0.636250861069072E+01
              0.385762140427094E+02
              0.433534397759184E+02
              0.992424396053142E+02
             -0.154711228543863E+02
             -0.449574871410803E+02
             -0.604856497355049E+02
             -0.121646133393521E+02
             -0.228109508978802E+02
              0.101892697821924E+03
             -0.443772845938703E+02
              0.103854461955627E+02
              0.967928154295174E+01
             -0.262264971905486E+02
             -0.788594977584169E+02
             -0.691405056870082E+01
              0.967834449667349E+02
              0.912313352635061E+01
              0.798478271955435E+01
             -0.520072443701963E+02
             -0.598873886815259E+02
             -0.542458900524943E+01
              0.495065227790760E+02
             -0.218715181309479E+02
              0.106754643489389E+03
             -0.430081817798309E+02
              0.143939845072674E+02
             -0.222395920081648E+02
             -0.711100774607844E+02
              0.159987910991356E+01
             -0.494945652093152E+02
             -0.751711590277200E+02
              0.602977590360445E+01
              0.234727239633298E+01
              0.508203643223539E+02
              0.183997159937643E+02
             -0.319523344229538E+02
              0.227231123503183E+02
             -0.800470924977971E+02
             -0.515976650904142E+02
              0.890560695828177E+02
              0.141619551617194E+02
             -0.187341267034533E+02
             -0.349213789711247E+02
             -0.269311404521363E+01
             -0.573393086609042E+01
              0.819358705001328E+02
              0.412853110874747E+02
             -0.164895958239002E+02
             -0.121718480246299E+02
             -0.422867455836982E+02
             -0.198832541339627E+02
             -0.662403100529590E+02
              0.453617381880509E+02
              0.539450186242962E+01
              0.143966276671829E+02
              0.153936550298653E+02
             -0.416323078241508E+00
             -0.165739387396660E+02
             -0.316019507856402E+01
             -0.990926281324383E+02
             -0.228614322203132E+02
             -0.755134263102309E+01
             -0.940834866247459E+01
              0.540323993341265E+02
              0.616149622102112E+02
              0.162715714179353E+02
             -0.959288174512765E+02
              0.639815260035845E+02
             -0.212066163417654E+02
             -0.372510015917269E+02
             -0.853579529660224E+02
             -0.383517541077585E+02
              0.557095412025160E+02
              0.240374328347659E+02
              0.494783163202050E+01
              0.287991926260712E+02
             -0.558174018297678E+02
             -0.416326883264549E+02
              0.507921073786069E+02
              0.382119242326025E+02
              0.513113606481687E+02
             -0.128046286941844E+01
              0.673984772507117E+01
              0.563042412320874E+02
              0.950673127634149E+02
             -0.297982927061462E+02
              0.318050856742477E+02
             -0.115350156262457E+02
             -0.406771150769241E+02
             -0.310214166767996E+02
             -0.296262265494283E+02
             -0.129722160926070E+02
             -0.517503286194651E+02
             -0.214787107869963E+02
             -0.139594022750771E+03
              0.365241329445719E+02
              0.203342618793772E+02
             -0.390321779531040E+01
             -0.375465108591900E+02
             -0.201784750627008E+02
             -0.520123407595166E+02
              0.150483710470154E+02
              0.810428987929730E+02
             -0.249899452333831E+02
             -0.160814274639090E+02
              0.235785042073780E+02
             -0.483421746996120E+02
              0.869978182994928E+02
              0.152451501292762E+02
              0.225344636602847E+02
              0.483891221023690E+02
              0.325618327789630E+01
              0.534945327152524E+02
              0.140701064045285E+02
             -0.106242827584081E+02
              0.715798811795420E+01
              0.884065498498899E+00
              0.718957275963082E+02
              0.100273920686302E+02
              0.118090857662164E+02
             -0.129042602662788E+02
              0.131002187145733E+02
             -0.899726058606587E+02
             -0.321432811534153E+02
             -0.451425831169583E+02
              0.478994243655093E+02
             -0.286871992923261E+02
             -0.651539929287853E+02
              0.531178941651215E+02
             -0.120221388012598E+02
              0.435089639601535E+02
             -0.887666369109769E+02
              0.229824469772084E+02
              0.850804663796799E+01
              0.576822337872875E+01
             -0.816892439438476E+01
             -0.895636621695996E+01
              0.473288103029782E+02
              0.195147659195254E+01
             -0.468780577868329E+02
             -0.173647374452628E+02
              0.274100632806345E+02
             -0.116535642383660E+03
             -0.919142598379160E+02
              0.394935676636010E+01
              0.115697425170703E+02
             -0.407337579063794E+02
             -0.389140709364347E+01
              0.110855988706823E+03
              0.302678895722009E+02
             -0.565130908501934E+02
              0.914856697729982E+01
             -0.950448520171679E+01
              0.104202520023048E+02
             -0.333500058351497E+02
              0.192731492746842E+02
              0.281752584499684E+02
             -0.288388369143877E+01
              0.106811706449761E+03
             -0.139761381632339E+02
             -0.312026035079479E+02
              0.139115345993192E+02
              0.461331073300792E+02
             -0.351876503137919E+02
             -0.316388871451273E+01
              0.953032321017815E+02
             -0.461408371643643E+01
              0.615290719270898E+02
              0.133451308899799E+02
             -0.892648929591178E+01
             -0.303457368376806E+02
              0.560587294102720E+02
             -0.506853663818229E+02
             -0.217657595843929E+01
             -0.167574553180651E+02
             -0.400297310858181E+02
              0.183608019779845E+02
              0.236452853990060E+02
              0.116160427179677E+02
              0.741317109462670E+00
             -0.379558774834509E+02
              0.213340786566784E+02
             -0.672972639053467E+01
             -0.243737289242610E+02
             -0.208088182923426E+02
              0.201055706508321E+02
             -0.597220595224223E+01
             -0.344528729614586E+02
             -0.105328544078067E+03
              0.102191204221423E+02
              0.246812662199976E+02
             -0.381441020019758E+02
             -0.208077315360846E+02
              0.797140878616885E+02
              0.636701202763129E+01
              0.305482083649404E+02
              0.378361141303634E+01
              0.317012169540741E+02
              0.643217902573275E+01
             -0.368112818091954E+02
             -0.219921315255451E+01
              0.869994290996567E+01
              0.270008026499568E+02
              0.772578593964602E+02
              0.501399137695940E+02
              0.140156972008583E+00
              0.167924956380763E+02
              0.605932705828238E+02
              0.232483545693380E+02
             -0.744347847848887E+02
             -0.270263897473609E+02
              0.149648858546049E+02
              0.549933489367788E+01
              0.251943979869121E+02
             -0.541466947599787E+02
              0.891910503125763E+01
              0.381049095006537E+02
              0.491982135406549E+02
             -0.429719192178582E+02
             -0.693966874155888E+01
             -0.204331286681997E+01
             -0.131132840832859E+02
             -0.362302387546364E+02
             -0.213786780751348E+02
             -0.189718828660956E+01
              0.779457041273184E+01
              0.416255941574446E+02
             -0.304255011240108E+02
              0.816424541911847E+02
              0.323291618785009E+02
              0.216671972449770E+02
              0.328699371203510E+02
              0.320009101724600E+02
              0.342105734628722E+02
              0.530425147944175E+02
             -0.428109668585255E+02
              0.612041887091058E+02
             -0.110892232262211E+03
              0.303470889549554E+02
             -0.105245866337660E+03
              0.844847058621006E+02
              0.681148081144797E+02
             -0.108849456078412E+02
             -0.487430053586141E+02
             -0.424433052086653E+02
             -0.616878439410897E+02
             -0.620851991503445E+02
              0.545235097881115E+02
              0.400322493265040E+02
              0.233820225120047E+02
              0.370587748064729E+02
              0.397822124980397E+02
             -0.377181132294801E+02
             -0.196069377445972E+02
              0.580244062121739E+02
             -0.114740904846779E+02
              0.545908915454542E+02
              0.690133934600318E+02
             -0.551676850106335E+01
             -0.697227874851590E+02
             -0.934126116295943E+00
             -0.248842331967653E+01
             -0.869356093177203E+01
             -0.185422816007360E+01
             -0.645151698094023E+02
             -0.209566066794154E+02
              0.523670904724530E+01
              0.883424325281385E+01
              0.462891999476027E+02
             -0.392650556842472E+02
              0.650977672143213E+02
             -0.420675330101876E+02
              0.207172348946009E+02
              0.345091075345275E+02
 
 BEEF-vdW xc energy contributions
           1 :   -774.181923211559     
           2 :    711.813122287015     
           3 :   -603.574770656409     
           4 :    475.807701851049     
           5 :   -355.554877924307     
           6 :    262.475371023890     
           7 :   -204.262752312905     
           8 :    176.538949448047     
           9 :   -166.802234261877     
          10 :    160.533340759539     
          11 :   -146.949438612108     
          12 :    122.242372861730     
          13 :   -89.4604994125044     
          14 :    55.6299472181147     
          15 :   -27.7729674796573     
          16 :    9.63880751363479     
          17 :  -0.423347356516160     
          18 :   -4.26855355310363     
          19 :    9.93044845503141     
          20 :   -20.4460838271456     
          21 :    36.4112433674143     
          22 :   -55.1471406128882     
          23 :    72.2293197066750     
          24 :   -83.7013183739947     
          25 :    87.8810854842493     
          26 :   -85.9607255924669     
          27 :    81.2263685325509     
          28 :   -77.3707763639262     
          29 :    76.7404803411606     
          30 :   -79.3480742097140     
          31 :   -84.7306629927712     
          32 :   -65.0566912800741     

     Writing output data file ./pwscf.save/
 
     init_run     :    327.38s CPU    332.19s WALL (       1 calls)
     electrons    :  11480.55s CPU  11629.30s WALL (       1 calls)
     forces       :     92.62s CPU     93.80s WALL (       1 calls)

     Called by init_run:
     wfcinit      :    280.31s CPU    284.18s WALL (       1 calls)
     potinit      :     44.13s CPU     44.43s WALL (       1 calls)
     hinit0       :      1.08s CPU      1.13s WALL (       1 calls)

     Called by electrons:
     c_bands      :   9610.75s CPU   9727.15s WALL (      18 calls)
     sum_band     :   1300.22s CPU   1314.70s WALL (      18 calls)
     v_of_rho     :     96.41s CPU    100.07s WALL (      18 calls)
     newd         :     26.25s CPU     35.80s WALL (      18 calls)
     PAW_pot      :    119.29s CPU    119.61s WALL (      18 calls)
     mix_rho      :    372.59s CPU    374.10s WALL (      18 calls)
     vdW_kernel   :     33.49s CPU     33.50s WALL (       1 calls)

     Called by c_bands:
     init_us_2    :     67.64s CPU     68.12s WALL (     494 calls)
     cegterg      :   8922.93s CPU   9036.17s WALL (     234 calls)

     Called by *egterg:
     cdiaghg      :     85.50s CPU     85.72s WALL (    1211 calls)
     h_psi        :   5803.47s CPU   5851.32s WALL (    1237 calls)
     s_psi        :    930.76s CPU    933.91s WALL (    1237 calls)
     g_psi        :     15.29s CPU     15.35s WALL (     990 calls)

     Called by h_psi:
     h_psi:calbec :    866.77s CPU    870.39s WALL (    1237 calls)
     vloc_psi     :   3982.49s CPU   3995.78s WALL (    1237 calls)
     add_vuspsi   :    930.41s CPU    933.59s WALL (    1237 calls)

     General routines
     calbec       :   1265.70s CPU   1270.55s WALL (    1523 calls)
     fft          :     45.93s CPU     46.05s WALL (    3098 calls)
     ffts         :    117.03s CPU    117.36s WALL (    8414 calls)
     fftw         :   4007.36s CPU   4020.12s WALL (  306766 calls)
 
     Parallel routines
 
     PWSCF        :      3h20m CPU      3h22m WALL

 
   This run was terminated on:   0:31:11  27Sep2022            

=------------------------------------------------------------------------------=
   JOB DONE.
=------------------------------------------------------------------------------=
