
     Program PWSCF v.6.7MaX starts on  3Jan2023 at 22:33:13 

     This program is part of the open-source Quantum ESPRESSO suite
     for quantum simulation of materials; please cite
         "P. Giannozzi et al., J. Phys.:Condens. Matter 21 395502 (2009);
         "P. Giannozzi et al., J. Phys.:Condens. Matter 29 465901 (2017);
          URL http://www.quantum-espresso.org", 
     in publications or presentations arising from this work. More details at
     http://www.quantum-espresso.org/quote

     Parallel version (MPI), running on     1 processors

     MPI processes distributed on     1 nodes
     Reading input from ch2ch2ch2-ensemble.in
Warning: card &CELL ignored
Warning: card / ignored

     Current dimensions of program PWSCF are:
     Max number of different atomic species (ntypx) = 10
     Max number of k-points (npk) =  40000
     Max angular momentum in pseudopotentials (lmaxx) =  3
     file Pt.pbe-n-kjpaw_psl.1.0.0.UPF: wavefunction(s)  6S 5D renormalized
     file C.pbe-n-kjpaw_psl.1.0.0.UPF: wavefunction(s)  2S 2P renormalized
     file H.pbe-kjpaw_psl.1.0.0.UPF: wavefunction(s)  1S renormalized

     **************************************************************************
     Initializing libbeef V0.1.2 with the BEEF-vdW functional.
     Citation: Wellendorff et al., PRB 85, 235149 (2012).
     **************************************************************************


     IMPORTANT: XC functional enforced from input :
     Exchange-correlation= BEEF-VDW
                           (   1   4  43  14   2   0   0)
     Any further DFT definition will be discarded
     Please, verify this is what you really want


     Subspace diagonalization in iterative solution of the eigenvalue problem:
     a serial algorithm will be used

 
     G-vector sticks info
     --------------------
     sticks:   dense  smooth     PW     G-vecs:    dense   smooth      PW
     Sum        4267    4267   1159               736357   736357  103761
 


     bravais-lattice index     =            0
     lattice parameter (alat)  =      16.0349  a.u.
     unit-cell volume          =   11722.5321 (a.u.)^3
     number of atoms/cell      =           45
     number of atomic types    =            3
     number of electrons       =       378.00
     number of Kohn-Sham states=          227
     kinetic-energy cutoff     =      60.0000  Ry
     charge density cutoff     =     240.0000  Ry
     scf convergence threshold =      1.0E-06
     mixing beta               =       0.7000
     number of iterations used =            8  local-TF  mixing
     Exchange-correlation= BEEF-VDW
                           (   1   4  43  14   2   0   0)

     celldm(1)=  16.034858  celldm(2)=   0.000000  celldm(3)=   0.000000
     celldm(4)=   0.000000  celldm(5)=   0.000000  celldm(6)=   0.000000

     crystal axes: (cart. coord. in units of alat)
               a(1) = (   1.000000   0.000000   0.000000 )  
               a(2) = (   0.500000   0.866025   0.000000 )  
               a(3) = (   0.000000   0.000000   3.283186 )  

     reciprocal axes: (cart. coord. in units 2 pi/alat)
               b(1) = (  1.000000 -0.577350  0.000000 )  
               b(2) = (  0.000000  1.154701  0.000000 )  
               b(3) = (  0.000000  0.000000  0.304582 )  


     PseudoPot. # 1 for Pt read from file:
     /users/bkreitz1/quantum-espresso/potentials/Pt.pbe-n-kjpaw_psl.1.0.0.UPF
     MD5 check sum: 04dc8a03c51ece93fc7b5889c2958091
     Pseudo is Projector augmented-wave + core cor, Zval = 10.0
     Generated using 'atomic' code by A. Dal Corso  v.6.7MaX
     Shape of augmentation charge: PSQ
     Using radial grid of 1277 points,  6 beta functions with: 
                l(1) =   0
                l(2) =   0
                l(3) =   1
                l(4) =   1
                l(5) =   2
                l(6) =   2
     Q(r) pseudized with 0 coefficients 


     PseudoPot. # 2 for C  read from file:
     /users/bkreitz1/quantum-espresso/potentials/C.pbe-n-kjpaw_psl.1.0.0.UPF
     MD5 check sum: a169b0ebad56f5ec0d79c4633f80bf22
     Pseudo is Projector augmented-wave + core cor, Zval =  4.0
     Generated using 'atomic' code by A. Dal Corso  v.6.7MaX
     Shape of augmentation charge: PSQ
     Using radial grid of 1073 points,  4 beta functions with: 
                l(1) =   0
                l(2) =   0
                l(3) =   1
                l(4) =   1
     Q(r) pseudized with 0 coefficients 


     PseudoPot. # 3 for H  read from file:
     /users/bkreitz1/quantum-espresso/potentials/H.pbe-kjpaw_psl.1.0.0.UPF
     MD5 check sum: ae98473e6dc62675f0d0baffdab24f65
     Pseudo is Projector augmented-wave, Zval =  1.0
     Generated using 'atomic' code by A. Dal Corso  v.6.7MaX
     Shape of augmentation charge: PSQ
     Using radial grid of  929 points,  2 beta functions with: 
                l(1) =   0
                l(2) =   0
     Q(r) pseudized with 0 coefficients 


     atomic species   valence    mass     pseudopotential
        Pt            10.00   195.08400     Pt( 1.00)
        C              4.00    12.01100     C ( 1.00)
        H              1.00     1.00800     H ( 1.00)

     No symmetry found



   Cartesian axes

     site n.     atom                  positions (alat units)
         1           Pt  tau(   1) = (   0.0000000   0.0000000   1.0017346  )
         2           Pt  tau(   2) = (   0.3333333   0.0000000   1.0017346  )
         3           Pt  tau(   3) = (   0.6666667   0.0000000   1.0017346  )
         4           Pt  tau(   4) = (   0.1666667   0.2886751   1.0017346  )
         5           Pt  tau(   5) = (   0.5000000   0.2886751   1.0017346  )
         6           Pt  tau(   6) = (   0.8333333   0.2886751   1.0017346  )
         7           Pt  tau(   7) = (   0.3333333   0.5773503   1.0017346  )
         8           Pt  tau(   8) = (   0.6666667   0.5773503   1.0017346  )
         9           Pt  tau(   9) = (   1.0000000   0.5773503   1.0017346  )
        10           Pt  tau(  10) = (   0.1666667   0.0962250   1.2739001  )
        11           Pt  tau(  11) = (   0.5000000   0.0962250   1.2739001  )
        12           Pt  tau(  12) = (   0.8333333   0.0962250   1.2739001  )
        13           Pt  tau(  13) = (   0.3333333   0.3849002   1.2739001  )
        14           Pt  tau(  14) = (   0.6666667   0.3849002   1.2739001  )
        15           Pt  tau(  15) = (   1.0000000   0.3849002   1.2739001  )
        16           Pt  tau(  16) = (   0.5000000   0.6735753   1.2739001  )
        17           Pt  tau(  17) = (   0.8333333   0.6735753   1.2739001  )
        18           Pt  tau(  18) = (   1.1666667   0.6735753   1.2739001  )
        19           Pt  tau(  19) = (   0.0010171   0.1929478   1.5400844  )
        20           Pt  tau(  20) = (   0.3362229   0.1943537   1.5450081  )
        21           Pt  tau(  21) = (   0.6654987   0.1945092   1.5458964  )
        22           Pt  tau(  22) = (   0.1675599   0.4818197   1.5411380  )
        23           Pt  tau(  23) = (   0.5024838   0.4812140   1.5488442  )
        24           Pt  tau(  24) = (   0.8323020   0.4829918   1.5458982  )
        25           Pt  tau(  25) = (   0.3340756   0.7706414   1.5411659  )
        26           Pt  tau(  26) = (   0.6677204   0.7683157   1.5451829  )
        27           Pt  tau(  27) = (   1.0006747   0.7706708   1.5421601  )
        28           Pt  tau(  28) = (   0.0026283   0.0017153   1.8150286  )
        29           Pt  tau(  29) = (   0.3356092   0.0017757   1.8153114  )
        30           Pt  tau(  30) = (   0.6693992   0.0011066   1.8156122  )
        31           Pt  tau(  31) = (   0.1687204   0.2897852   1.8148294  )
        32           Pt  tau(  32) = (   0.5023209   0.2901699   1.8391055  )
        33           Pt  tau(  33) = (   0.8375241   0.2889507   1.8135522  )
        34           Pt  tau(  34) = (   0.3348841   0.5794967   1.8138568  )
        35           Pt  tau(  35) = (   0.6697427   0.5792414   1.8390418  )
        36           Pt  tau(  36) = (   1.0032280   0.5787751   1.8154357  )
        37           C   tau(  37) = (   0.5056791   0.3079189   2.0857049  )
        38           C   tau(  38) = (   0.6468741   0.4003247   2.1461717  )
        39           C   tau(  39) = (   0.6601143   0.5685440   2.0859144  )
        40           H   tau(  40) = (   0.5050498   0.1867187   2.1288093  )
        41           H   tau(  41) = (   0.3943135   0.3651344   2.1159093  )
        42           H   tau(  42) = (   0.7563083   0.3353704   2.1235054  )
        43           H   tau(  43) = (   0.6358446   0.4064334   2.2760511  )
        44           H   tau(  44) = (   0.7673147   0.6262728   2.1275097  )
        45           H   tau(  45) = (   0.5575013   0.6394153   2.1193386  )

     number of k points=    13  Marzari-Vanderbilt smearing, width (Ry)=  0.0200
                       cart. coord. in units 2pi/alat
        k(    1) = (   0.0000000   0.0000000   0.0000000), wk =   0.0800000
        k(    2) = (   0.0000000   0.2309401   0.0000000), wk =   0.1600000
        k(    3) = (   0.0000000   0.4618802   0.0000000), wk =   0.1600000
        k(    4) = (   0.2000000  -0.1154701   0.0000000), wk =   0.1600000
        k(    5) = (   0.2000000   0.1154701   0.0000000), wk =   0.1600000
        k(    6) = (   0.2000000   0.3464102   0.0000000), wk =   0.1600000
        k(    7) = (   0.2000000  -0.5773503   0.0000000), wk =   0.1600000
        k(    8) = (   0.2000000  -0.3464102   0.0000000), wk =   0.1600000
        k(    9) = (   0.4000000  -0.2309401   0.0000000), wk =   0.1600000
        k(   10) = (   0.4000000  -0.0000000   0.0000000), wk =   0.1600000
        k(   11) = (   0.4000000   0.2309401   0.0000000), wk =   0.1600000
        k(   12) = (   0.4000000  -0.6928203   0.0000000), wk =   0.1600000
        k(   13) = (   0.4000000  -0.4618802   0.0000000), wk =   0.1600000

     Dense  grid:   736357 G-vectors     FFT dimensions: (  80,  80, 270)

     Estimated max dynamical RAM per process >       8.97 GB

     Check: negative core charge=   -0.000002

     Initial potential from superposition of free atoms

     starting charge  377.99371, renormalised to  378.00000

     negative rho (up, down):  1.176E-02 0.000E+00


     %%%%%%%%%%%%%%%%%%%%%%%%%%%%%%%%%%%%%%%%%%%%%%%%%%%%%%%%%%%%%%%%%%%%%%%%
     %                                                                      %
     % You are using vdW-DF, which was implemented by the Thonhauser group. %
     % Please cite the following two papers that made this development      %
     % possible and the two reviews that describe the various versions:     %
     %                                                                      %
     %   T. Thonhauser et al., PRL 115, 136402 (2015).                      %
     %   T. Thonhauser et al., PRB 76, 125112 (2007).                       %
     %   K. Berland et al., Rep. Prog. Phys. 78, 066501 (2015).             %
     %   D.C. Langreth et al., J. Phys.: Condens. Matter 21, 084203 (2009). %
     %                                                                      %
     %                                                                      %
     % If you are calculating the stress with vdW-DF, please also cite:     %
     %                                                                      %
     %   R. Sabatini et al., J. Phys.: Condens. Matter 24, 424209 (2012).   %
     %                                                                      %
     %%%%%%%%%%%%%%%%%%%%%%%%%%%%%%%%%%%%%%%%%%%%%%%%%%%%%%%%%%%%%%%%%%%%%%%%


     Starting wfcs are  342 randomized atomic wfcs
     Checking if some PAW data can be deallocated... 

     total cpu time spent up to now is      375.5 secs

     Self-consistent Calculation

     iteration #  1     ecut=    60.00 Ry     beta= 0.70
     Davidson diagonalization with overlap
     ethr =  1.00E-02,  avg # of iterations =  2.5

     Threshold (ethr) on eigenvalues was too large:
     Diagonalizing with lowered threshold

     Davidson diagonalization with overlap
     ethr =  9.02E-04,  avg # of iterations =  2.5

     negative rho (up, down):  1.167E-02 0.000E+00

     total cpu time spent up to now is     1722.0 secs

     total energy              =  -27818.40007550 Ry
     estimated scf accuracy    <       3.67157540 Ry

     iteration #  2     ecut=    60.00 Ry     beta= 0.70
     Davidson diagonalization with overlap
     ethr =  9.71E-04,  avg # of iterations =  2.2

     negative rho (up, down):  9.452E-03 0.000E+00

     total cpu time spent up to now is     2364.8 secs

     total energy              =  -27818.50895014 Ry
     estimated scf accuracy    <       1.53568935 Ry

     iteration #  3     ecut=    60.00 Ry     beta= 0.70
     Davidson diagonalization with overlap
     ethr =  4.06E-04,  avg # of iterations =  4.5

     negative rho (up, down):  5.837E-03 0.000E+00

     total cpu time spent up to now is     3017.6 secs

     total energy              =  -27818.53313442 Ry
     estimated scf accuracy    <       0.62209072 Ry

     iteration #  4     ecut=    60.00 Ry     beta= 0.70
     Davidson diagonalization with overlap
     ethr =  1.65E-04,  avg # of iterations = 11.3

     negative rho (up, down):  4.565E-03 0.000E+00

     total cpu time spent up to now is     3837.8 secs

     total energy              =  -27818.60432363 Ry
     estimated scf accuracy    <       0.41517152 Ry

     iteration #  5     ecut=    60.00 Ry     beta= 0.70
     Davidson diagonalization with overlap
     ethr =  1.10E-04,  avg # of iterations =  1.8

     negative rho (up, down):  2.760E-03 0.000E+00

     total cpu time spent up to now is     4462.0 secs

     total energy              =  -27818.60971324 Ry
     estimated scf accuracy    <       0.06134260 Ry

     iteration #  6     ecut=    60.00 Ry     beta= 0.70
     Davidson diagonalization with overlap
     c_bands:  1 eigenvalues not converged
     c_bands:  1 eigenvalues not converged
     c_bands:  1 eigenvalues not converged
     c_bands:  3 eigenvalues not converged
     ethr =  1.62E-05,  avg # of iterations = 14.6

     negative rho (up, down):  2.348E-03 0.000E+00

     total cpu time spent up to now is     5474.1 secs

     total energy              =  -27818.62454868 Ry
     estimated scf accuracy    <       0.02221698 Ry

     iteration #  7     ecut=    60.00 Ry     beta= 0.70
     Davidson diagonalization with overlap
     ethr =  5.88E-06,  avg # of iterations = 10.4

     negative rho (up, down):  2.315E-03 0.000E+00

     total cpu time spent up to now is     6222.3 secs

     total energy              =  -27818.62602271 Ry
     estimated scf accuracy    <       0.01584486 Ry

     iteration #  8     ecut=    60.00 Ry     beta= 0.70
     Davidson diagonalization with overlap
     c_bands:  1 eigenvalues not converged
     ethr =  4.19E-06,  avg # of iterations =  9.7

     negative rho (up, down):  2.901E-03 0.000E+00

     total cpu time spent up to now is     6939.5 secs

     total energy              =  -27818.62669319 Ry
     estimated scf accuracy    <       0.00920534 Ry

     iteration #  9     ecut=    60.00 Ry     beta= 0.70
     Davidson diagonalization with overlap
     c_bands:  1 eigenvalues not converged
     c_bands:  1 eigenvalues not converged
     ethr =  2.44E-06,  avg # of iterations = 11.8

     negative rho (up, down):  4.130E-03 0.000E+00

     total cpu time spent up to now is     7670.4 secs

     total energy              =  -27818.62709126 Ry
     estimated scf accuracy    <       0.00228655 Ry

     iteration # 10     ecut=    60.00 Ry     beta= 0.70
     Davidson diagonalization with overlap
     c_bands:  1 eigenvalues not converged
     c_bands:  1 eigenvalues not converged
     ethr =  6.05E-07,  avg # of iterations =  7.5

     negative rho (up, down):  4.975E-03 0.000E+00

     total cpu time spent up to now is     8357.3 secs

     total energy              =  -27818.62731462 Ry
     estimated scf accuracy    <       0.00081765 Ry

     iteration # 11     ecut=    60.00 Ry     beta= 0.70
     Davidson diagonalization with overlap
     ethr =  2.16E-07,  avg # of iterations =  4.1

     negative rho (up, down):  5.733E-03 0.000E+00

     total cpu time spent up to now is     9041.4 secs

     total energy              =  -27818.62743998 Ry
     estimated scf accuracy    <       0.00076463 Ry

     iteration # 12     ecut=    60.00 Ry     beta= 0.70
     Davidson diagonalization with overlap
     ethr =  2.02E-07,  avg # of iterations =  1.7

     negative rho (up, down):  6.533E-03 0.000E+00

     total cpu time spent up to now is     9640.6 secs

     total energy              =  -27818.62747139 Ry
     estimated scf accuracy    <       0.00049171 Ry

     iteration # 13     ecut=    60.00 Ry     beta= 0.70
     Davidson diagonalization with overlap
     ethr =  1.30E-07,  avg # of iterations =  2.8

     negative rho (up, down):  1.059E-02 0.000E+00

     total cpu time spent up to now is    10257.9 secs

     total energy              =  -27818.62743564 Ry
     estimated scf accuracy    <       0.00035422 Ry

     iteration # 14     ecut=    60.00 Ry     beta= 0.70
     Davidson diagonalization with overlap
     ethr =  9.37E-08,  avg # of iterations =  2.0

     negative rho (up, down):  1.106E-02 0.000E+00

     total cpu time spent up to now is    10900.0 secs

     total energy              =  -27818.62743368 Ry
     estimated scf accuracy    <       0.00023483 Ry

     iteration # 15     ecut=    60.00 Ry     beta= 0.70
     Davidson diagonalization with overlap
     ethr =  6.21E-08,  avg # of iterations =  1.2

     negative rho (up, down):  1.161E-02 0.000E+00

     total cpu time spent up to now is    11477.9 secs

     total energy              =  -27818.62744297 Ry
     estimated scf accuracy    <       0.00006608 Ry

     iteration # 16     ecut=    60.00 Ry     beta= 0.70
     Davidson diagonalization with overlap
     ethr =  1.75E-08,  avg # of iterations =  4.0

     negative rho (up, down):  1.258E-02 0.000E+00

     total cpu time spent up to now is    12199.4 secs

     total energy              =  -27818.62745589 Ry
     estimated scf accuracy    <       0.00002614 Ry

     iteration # 17     ecut=    60.00 Ry     beta= 0.70
     Davidson diagonalization with overlap
     ethr =  6.92E-09,  avg # of iterations =  4.0

     negative rho (up, down):  1.266E-02 0.000E+00

     total cpu time spent up to now is    12948.5 secs

     total energy              =  -27818.62746170 Ry
     estimated scf accuracy    <       0.00001098 Ry

     iteration # 18     ecut=    60.00 Ry     beta= 0.70
     Davidson diagonalization with overlap
     ethr =  2.91E-09,  avg # of iterations =  4.0

     negative rho (up, down):  1.278E-02 0.000E+00

     total cpu time spent up to now is    13660.4 secs

     total energy              =  -27818.62746405 Ry
     estimated scf accuracy    <       0.00000535 Ry

     iteration # 19     ecut=    60.00 Ry     beta= 0.70
     Davidson diagonalization with overlap
     ethr =  1.42E-09,  avg # of iterations =  2.9

     negative rho (up, down):  1.309E-02 0.000E+00

     total cpu time spent up to now is    14352.4 secs

     total energy              =  -27818.62746425 Ry
     estimated scf accuracy    <       0.00000202 Ry

     iteration # 20     ecut=    60.00 Ry     beta= 0.70
     Davidson diagonalization with overlap
     ethr =  5.36E-10,  avg # of iterations =  4.1

     negative rho (up, down):  1.301E-02 0.000E+00

     total cpu time spent up to now is    15128.2 secs

     End of self-consistent calculation

          k = 0.0000 0.0000 0.0000 ( 92037 PWs)   bands (ev):

   -13.0926 -10.2926  -7.8649  -6.9420  -5.6812  -4.9028  -4.6873  -4.5660
    -4.5555  -4.5401  -4.5366  -4.5226  -4.5040  -4.4993  -4.4019  -3.9976
    -3.9895  -3.9803  -3.9783  -3.9682  -3.9477  -3.7589  -3.5292  -3.5186
    -3.5180  -3.5050  -3.4984  -3.4813  -3.3185  -3.3025  -3.2939  -3.2894
    -3.2853  -3.2529  -3.0875  -3.0837  -3.0711  -3.0702  -3.0666  -3.0595
    -3.0486  -3.0373  -3.0237  -3.0104  -2.9986  -2.9862  -2.5912  -2.5225
    -2.4795  -2.4517  -2.4468  -2.4356  -2.4140  -2.3935  -2.3607  -2.3473
    -2.2978  -2.2352  -2.2270  -2.1835  -2.1690  -2.0937  -1.7765  -1.7552
    -1.6432  -1.6299  -1.6090  -1.5847  -1.5605  -1.5422  -1.4989  -1.4703
    -1.4494  -1.4480  -1.4457  -1.4288  -1.4247  -1.4122  -1.3977  -1.3824
    -1.3744  -1.3672  -1.3463  -1.3272  -1.3231  -1.2707  -1.2338  -1.2223
    -1.2091  -1.2030  -1.0578  -1.0461  -1.0405  -1.0099  -0.9998  -0.9859
    -0.9757  -0.9690  -0.9269  -0.9228  -0.8769  -0.8739  -0.8338  -0.8012
    -0.7889  -0.7884  -0.7500  -0.7484  -0.7277  -0.6843  -0.6179  -0.5924
    -0.5627  -0.5608  -0.5298  -0.3207  -0.1676  -0.1473  -0.1455  -0.1298
    -0.0981  -0.0938  -0.0898  -0.0582   0.0023   0.0222   0.0275   0.0396
     0.0666   0.0811   0.1033   0.1777   0.1953   0.2496   0.2553   0.2991
     0.3338   0.3556   0.3736   0.3926   0.3967   0.4070   0.4363   0.6132
     0.6241   0.6287   0.6438   0.6607   0.6632   0.6952   0.7123   0.8853
     0.8937   0.9010   0.9173   0.9610   0.9802   1.0476   1.0615   1.0670
     1.0817   1.0937   1.0961   1.0979   1.1133   1.1236   1.1327   1.1553
     1.1781   1.2000   1.2182   1.2277   1.2342   1.2543   1.2573   1.3203
     1.3279   1.3294   1.3384   1.3524   1.3608   1.3869   1.3925   1.4475
     1.4515   1.4593   1.4655   1.4803   1.4856   1.4947   1.5014   1.5638
     1.5802   1.5858   1.6126   1.6148   1.7689   1.7874   1.8671   1.8845
     1.9085   1.9111   1.9255   1.9349   2.2211   2.2665   2.7152   2.7926
     2.7955   2.8059   2.8226   3.8404   4.2686   5.0446   5.0657   5.1068
     5.1157   5.6908   5.7975   6.2920   6.5208   6.6983   6.7082   6.7175
     6.7206   6.7423   6.7483

          k = 0.0000 0.2309 0.0000 ( 91982 PWs)   bands (ev):

   -13.0924 -10.2937  -7.8614  -6.7969  -5.5412  -5.0487  -4.8879  -4.6763
    -4.6434  -4.5924  -4.4140  -4.3792  -4.3289  -4.2936  -4.2689  -4.0996
    -4.0651  -3.9256  -3.9066  -3.9056  -3.8743  -3.7564  -3.6099  -3.4848
    -3.4789  -3.4749  -3.4547  -3.3925  -3.3803  -3.3447  -3.3271  -3.3029
    -3.2787  -3.2570  -3.1971  -3.1841  -3.1030  -3.0897  -3.0782  -3.0561
    -3.0475  -2.8732  -2.8695  -2.8564  -2.8296  -2.8188  -2.6398  -2.5904
    -2.5703  -2.5375  -2.5132  -2.4935  -2.4814  -2.4069  -2.3280  -2.3054
    -2.2404  -2.1990  -2.1798  -2.1567  -2.1353  -2.0944  -1.9440  -1.8754
    -1.8359  -1.7815  -1.7547  -1.7224  -1.6962  -1.6700  -1.6347  -1.6065
    -1.5794  -1.5649  -1.5392  -1.5188  -1.4709  -1.4408  -1.4355  -1.4150
    -1.3674  -1.3393  -1.3137  -1.3068  -1.2596  -1.2455  -1.2171  -1.1755
    -1.1584  -1.1332  -1.1139  -1.0805  -1.0672  -1.0431  -1.0326  -1.0153
    -0.9753  -0.9595  -0.9337  -0.9004  -0.8864  -0.8733  -0.8436  -0.8376
    -0.8139  -0.7876  -0.7721  -0.7278  -0.6718  -0.6572  -0.6412  -0.6070
    -0.5716  -0.5483  -0.5352  -0.5117  -0.4969  -0.4785  -0.4656  -0.4202
    -0.3788  -0.2323  -0.1708  -0.1482  -0.1141  -0.0971  -0.0685  -0.0565
    -0.0443   0.0106   0.0456   0.1173   0.1644   0.1740   0.2528   0.2915
     0.3051   0.3387   0.3690   0.3753   0.3941   0.4350   0.4759   0.4852
     0.5188   0.5317   0.5401   0.5582   0.7033   0.7108   0.7394   0.7600
     0.7733   0.8127   0.8316   0.8752   0.9059   0.9168   0.9257   0.9703
     1.0078   1.0214   1.0382   1.0656   1.1329   1.1420   1.2205   1.2249
     1.2477   1.2730   1.2923   1.3202   1.3285   1.3464   1.3959   1.4291
     1.4562   1.4734   1.4979   1.5185   1.5327   1.5583   1.5662   1.5749
     1.5782   1.6238   1.6361   1.7543   1.7705   1.7964   1.8147   1.8223
     1.8346   1.8682   1.8814   1.9038   1.9229   1.9801   2.0181   2.0406
     2.0476   2.1196   2.2062   2.2166   2.2313   2.5193   2.5429   2.9374
     3.2191   3.4037   3.4679   3.8331   4.3477   4.5650   4.9445   5.3673
     5.5443   5.5487   5.7572   5.8385   6.0184   6.3759   6.4921   6.5863
     6.6320   6.7611   6.9006

          k = 0.0000 0.4619 0.0000 ( 91978 PWs)   bands (ev):

   -13.0921 -10.2955  -7.8563  -6.3774  -5.7452  -5.1602  -4.8806  -4.7010
    -4.6738  -4.6342  -4.4567  -4.3051  -4.1525  -4.0427  -4.0112  -3.9596
    -3.9408  -3.8170  -3.7834  -3.7503  -3.7388  -3.7193  -3.7000  -3.6095
    -3.5626  -3.5530  -3.5168  -3.4974  -3.4809  -3.4494  -3.3798  -3.3756
    -3.3676  -3.1422  -3.1232  -3.1103  -3.1029  -3.0865  -3.0781  -2.8826
    -2.8657  -2.8503  -2.8409  -2.8295  -2.7998  -2.6547  -2.5755  -2.5544
    -2.5472  -2.5276  -2.5124  -2.4821  -2.4581  -2.4006  -2.3789  -2.3619
    -2.3368  -2.3275  -2.2128  -2.1748  -2.1565  -2.1400  -2.0954  -2.0251
    -2.0139  -1.9719  -1.9472  -1.9147  -1.8360  -1.7874  -1.7467  -1.7280
    -1.7056  -1.6848  -1.6464  -1.6170  -1.5982  -1.5603  -1.4751  -1.4562
    -1.4207  -1.3959  -1.3522  -1.3366  -1.3227  -1.3153  -1.2868  -1.2461
    -1.2352  -1.2172  -1.2031  -1.2003  -1.1726  -1.1589  -1.1407  -1.0927
    -1.0624  -1.0488  -1.0338  -1.0196  -0.9899  -0.9404  -0.8816  -0.8693
    -0.8229  -0.8076  -0.7907  -0.7709  -0.7319  -0.7142  -0.6610  -0.6113
    -0.5796  -0.5468  -0.5157  -0.4784  -0.4287  -0.3800  -0.3539  -0.3304
    -0.2806  -0.2548  -0.2234  -0.1994  -0.1544  -0.1360  -0.1162  -0.1050
    -0.0602  -0.0403  -0.0327  -0.0216   0.0060   0.0417   0.0660   0.0761
     0.1038   0.1527   0.2012   0.2310   0.2508   0.2980   0.3054   0.4094
     0.4175   0.4554   0.5146   0.5272   0.6297   0.6654   0.6822   0.7000
     0.7301   0.7630   0.7893   0.7979   0.8505   0.8670   0.8996   0.9425
     0.9476   1.0340   1.0505   1.0602   1.0762   1.1065   1.1476   1.2337
     1.2524   1.3072   1.3340   1.3396   1.3713   1.3823   1.4548   1.4803
     1.5020   1.5613   1.5688   1.6227   1.6356   1.6613   1.6690   1.7288
     1.7762   1.7792   1.8094   1.8257   1.8299   1.8544   1.8594   2.0171
     2.0343   2.0417   2.0597   2.0892   2.2219   2.2933   2.4286   2.5198
     2.7309   2.8085   3.1043   3.1153   3.2569   3.4778   3.5058   3.6962
     3.8506   4.0988   4.3283   4.3345   4.3822   4.5063   4.6188   4.6477
     4.9082   4.9765   5.0635   5.3935   5.6604   5.8446   6.1720   6.2255
     6.3640   6.6551   6.8284

          k = 0.2000-0.1155 0.0000 ( 91982 PWs)   bands (ev):

   -13.0925 -10.2926  -7.8637  -6.7966  -5.5421  -5.0579  -4.8805  -4.6655
    -4.6465  -4.6009  -4.4147  -4.3822  -4.3133  -4.2976  -4.2807  -4.0751
    -4.0579  -3.9358  -3.9149  -3.9077  -3.8853  -3.7496  -3.6080  -3.4842
    -3.4816  -3.4732  -3.4456  -3.3930  -3.3895  -3.3465  -3.3314  -3.3059
    -3.2824  -3.2561  -3.1934  -3.1848  -3.1022  -3.0982  -3.0745  -3.0535
    -3.0501  -2.8808  -2.8664  -2.8545  -2.8275  -2.8173  -2.6375  -2.5957
    -2.5798  -2.5762  -2.5018  -2.4876  -2.4465  -2.4430  -2.2711  -2.2636
    -2.2518  -2.2169  -2.1926  -2.1644  -2.1530  -2.0709  -1.9354  -1.8894
    -1.8360  -1.7695  -1.7458  -1.7400  -1.6718  -1.6675  -1.6294  -1.6065
    -1.5974  -1.5859  -1.5214  -1.5055  -1.4837  -1.4440  -1.4310  -1.4008
    -1.3594  -1.3412  -1.3221  -1.3042  -1.2651  -1.2548  -1.2028  -1.1752
    -1.1647  -1.1327  -1.0972  -1.0922  -1.0553  -1.0454  -1.0438  -0.9996
    -0.9788  -0.9560  -0.9172  -0.9050  -0.8854  -0.8803  -0.8640  -0.8379
    -0.8165  -0.7784  -0.7727  -0.7238  -0.7217  -0.6432  -0.6347  -0.6002
    -0.5853  -0.5538  -0.5487  -0.5301  -0.5027  -0.4985  -0.4346  -0.3748
    -0.3666  -0.2844  -0.1686  -0.1223  -0.1205  -0.0737  -0.0656  -0.0623
    -0.0453   0.0218   0.0378   0.1131   0.1603   0.1674   0.2558   0.2983
     0.3129   0.3440   0.3588   0.3824   0.3972   0.4426   0.4530   0.4871
     0.5178   0.5216   0.5426   0.5497   0.6894   0.7054   0.7392   0.7593
     0.7637   0.8084   0.8579   0.8787   0.9167   0.9209   0.9315   0.9825
     1.0074   1.0240   1.0455   1.0711   1.1245   1.1369   1.2011   1.2168
     1.2517   1.2746   1.2895   1.3005   1.3394   1.3613   1.3869   1.4364
     1.4405   1.4647   1.5080   1.5124   1.5264   1.5628   1.5661   1.5725
     1.5773   1.6310   1.6374   1.7568   1.7802   1.7827   1.8214   1.8354
     1.8438   1.8695   1.8859   1.9005   1.9172   1.9712   2.0141   2.0264
     2.0479   2.1984   2.2061   2.2205   2.2381   2.3575   2.5939   3.0754
     3.0830   3.3886   3.5144   3.9634   4.0787   4.6642   5.1347   5.2074
     5.5452   5.5483   5.7199   5.8908   6.0252   6.3037   6.4811   6.5581
     6.6271   6.7770   6.9140

          k = 0.2000 0.1155 0.0000 ( 91982 PWs)   bands (ev):

   -13.0924 -10.2937  -7.8614  -6.7970  -5.5413  -5.0523  -4.8884  -4.6746
    -4.6397  -4.5925  -4.4142  -4.3799  -4.3350  -4.2876  -4.2680  -4.0988
    -4.0641  -3.9272  -3.9088  -3.9067  -3.8744  -3.7576  -3.6080  -3.4849
    -3.4781  -3.4752  -3.4587  -3.3898  -3.3800  -3.3438  -3.3271  -3.3047
    -3.2804  -3.2581  -3.1934  -3.1822  -3.1088  -3.0910  -3.0786  -3.0542
    -3.0470  -2.8720  -2.8697  -2.8562  -2.8294  -2.8142  -2.6398  -2.5889
    -2.5688  -2.5399  -2.5135  -2.4926  -2.4830  -2.4069  -2.3249  -2.3058
    -2.2364  -2.1989  -2.1815  -2.1580  -2.1375  -2.0911  -1.9382  -1.8737
    -1.8360  -1.7806  -1.7504  -1.7158  -1.6915  -1.6710  -1.6360  -1.6074
    -1.5849  -1.5674  -1.5383  -1.5193  -1.4677  -1.4417  -1.4343  -1.4132
    -1.3826  -1.3402  -1.3199  -1.3114  -1.2593  -1.2448  -1.2156  -1.1626
    -1.1527  -1.1424  -1.1082  -1.0784  -1.0619  -1.0446  -1.0366  -1.0151
    -0.9768  -0.9611  -0.9359  -0.9017  -0.8884  -0.8749  -0.8433  -0.8374
    -0.8163  -0.7898  -0.7720  -0.7278  -0.6741  -0.6577  -0.6420  -0.6084
    -0.5716  -0.5494  -0.5339  -0.5106  -0.4969  -0.4770  -0.4661  -0.4183
    -0.3794  -0.2284  -0.1665  -0.1517  -0.1153  -0.0966  -0.0682  -0.0582
    -0.0439   0.0081   0.0465   0.1149   0.1621   0.1727   0.2496   0.2843
     0.3202   0.3309   0.3671   0.3743   0.3917   0.4320   0.4737   0.4850
     0.5188   0.5310   0.5405   0.5610   0.6994   0.7081   0.7382   0.7593
     0.7752   0.8124   0.8337   0.8762   0.9077   0.9180   0.9270   0.9733
     1.0073   1.0215   1.0393   1.0663   1.1338   1.1441   1.2184   1.2236
     1.2484   1.2725   1.2912   1.3184   1.3294   1.3426   1.3940   1.4281
     1.4568   1.4710   1.4974   1.5184   1.5313   1.5601   1.5660   1.5741
     1.5809   1.6213   1.6328   1.7518   1.7701   1.7974   1.8157   1.8239
     1.8383   1.8732   1.8877   1.9070   1.9262   1.9793   2.0175   2.0398
     2.0470   2.1186   2.2086   2.2171   2.2340   2.5225   2.5485   2.9362
     3.2188   3.3989   3.4684   3.8297   4.3488   4.5663   4.9475   5.3696
     5.5438   5.5479   5.7592   5.8384   6.0147   6.3769   6.4872   6.5854
     6.6319   6.7544   6.9041

          k = 0.2000 0.3464 0.0000 ( 92000 PWs)   bands (ev):

   -13.0921 -10.2955  -7.8565  -6.5141  -5.3162  -5.2820  -5.2679  -4.8706
    -4.6064  -4.2259  -4.2156  -4.2082  -4.2024  -4.1702  -4.1404  -4.1223
    -4.0644  -4.0335  -4.0063  -3.7670  -3.6534  -3.6426  -3.6274  -3.6167
    -3.5492  -3.5314  -3.4050  -3.3943  -3.3876  -3.3761  -3.3560  -3.2846
    -3.2489  -3.2179  -3.2146  -3.2049  -3.1492  -3.1281  -3.1076  -3.0770
    -3.0467  -2.9795  -2.7304  -2.6833  -2.6488  -2.6360  -2.6247  -2.5997
    -2.5772  -2.5554  -2.5237  -2.5048  -2.4827  -2.4270  -2.3442  -2.3344
    -2.2538  -2.2168  -2.2030  -2.1816  -2.1454  -2.1171  -2.0896  -2.0498
    -1.9757  -1.8857  -1.8471  -1.8429  -1.8002  -1.7767  -1.7599  -1.7306
    -1.7160  -1.6944  -1.6667  -1.5469  -1.5352  -1.5012  -1.4897  -1.4426
    -1.4325  -1.4020  -1.3807  -1.3549  -1.3244  -1.3081  -1.2308  -1.2089
    -1.1946  -1.1862  -1.1680  -1.1597  -1.1371  -1.1087  -1.0959  -1.0486
    -1.0287  -0.9916  -0.9460  -0.9326  -0.9048  -0.8965  -0.8569  -0.8400
    -0.8143  -0.8085  -0.7856  -0.7636  -0.7511  -0.7290  -0.7226  -0.6831
    -0.6646  -0.6575  -0.5862  -0.5658  -0.5337  -0.4714  -0.4621  -0.4509
    -0.3873  -0.3523  -0.2549  -0.2408  -0.1788  -0.1218  -0.1069  -0.0436
    -0.0353  -0.0171  -0.0122   0.0233   0.0372   0.0536   0.0820   0.1196
     0.1845   0.2319   0.2782   0.3361   0.3560   0.3663   0.3953   0.4129
     0.4674   0.5127   0.5429   0.5928   0.5993   0.6292   0.6581   0.7029
     0.7689   0.7826   0.7903   0.8255   0.8621   0.8800   0.8865   0.9012
     0.9051   0.9211   0.9684   1.0075   1.0555   1.1290   1.1498   1.2330
     1.2610   1.2721   1.3979   1.4405   1.4573   1.4819   1.5072   1.5624
     1.5856   1.5993   1.6096   1.6431   1.6549   1.6636   1.6718   1.7028
     1.7321   1.7391   1.7994   1.8240   1.8422   1.8752   1.8884   1.9196
     1.9953   2.0666   2.1002   2.1345   2.1755   2.1960   2.2008   2.3231
     2.3390   2.4891   2.8435   2.8761   3.1567   3.2932   3.4030   3.4309
     3.4585   3.8865   4.0859   4.2103   4.3434   4.3877   4.7340   5.0001
     5.0950   5.5284   5.5471   5.7703   5.9516   6.1452   6.1778   6.2260
     6.3496   6.3524   6.6260

          k = 0.2000-0.5774 0.0000 ( 91980 PWs)   bands (ev):

   -13.0921 -10.2955  -7.8559  -5.9884  -5.9752  -5.3787  -4.9543  -4.7819
    -4.7411  -4.5092  -4.2154  -4.1908  -4.0727  -4.0372  -3.9428  -3.9214
    -3.8367  -3.8183  -3.7537  -3.7248  -3.7054  -3.6922  -3.6626  -3.6554
    -3.6326  -3.6201  -3.5105  -3.4910  -3.4841  -3.4472  -3.4392  -3.3756
    -3.2832  -3.2352  -3.1961  -3.1089  -3.1021  -3.0782  -3.0660  -3.0462
    -2.9698  -2.9592  -2.8735  -2.8529  -2.6866  -2.6509  -2.6364  -2.5677
    -2.5536  -2.4995  -2.4639  -2.4530  -2.3487  -2.3193  -2.2979  -2.2744
    -2.2423  -2.2058  -2.1912  -2.1683  -2.1289  -2.0652  -2.0437  -2.0313
    -2.0269  -2.0095  -1.9866  -1.9486  -1.9266  -1.9094  -1.8631  -1.8049
    -1.7624  -1.7328  -1.6965  -1.6435  -1.6250  -1.5821  -1.5626  -1.5344
    -1.5002  -1.4863  -1.4576  -1.3991  -1.3916  -1.3765  -1.3316  -1.3113
    -1.2821  -1.2226  -1.1957  -1.1829  -1.1697  -1.1313  -1.1103  -1.0356
    -0.9861  -0.9627  -0.9483  -0.9375  -0.9052  -0.8970  -0.8834  -0.8500
    -0.8368  -0.8238  -0.7984  -0.7875  -0.7708  -0.7406  -0.7205  -0.7137
    -0.7043  -0.6832  -0.6790  -0.6299  -0.5917  -0.4949  -0.4564  -0.3746
    -0.3271  -0.3137  -0.2924  -0.2174  -0.2001  -0.1573  -0.1318  -0.1185
    -0.0859  -0.0744  -0.0590  -0.0238   0.0249   0.0374   0.0601   0.1109
     0.1443   0.1573   0.1897   0.2655   0.3531   0.3769   0.4169   0.4497
     0.4736   0.4807   0.5391   0.5613   0.5703   0.5901   0.6051   0.6401
     0.6730   0.7014   0.7403   0.7750   0.8001   0.8155   0.8281   0.8706
     0.8753   0.9425   0.9965   1.0052   1.1245   1.1385   1.2172   1.2692
     1.2894   1.3136   1.3742   1.4179   1.4538   1.4732   1.5575   1.5834
     1.5930   1.6188   1.6412   1.6565   1.6759   1.7022   1.7709   1.7836
     1.8049   1.8289   1.8354   1.8546   1.8641   1.9276   2.0159   2.0329
     2.0528   2.0747   2.0914   2.1352   2.1524   2.2575   2.3824   2.8923
     3.0413   3.2240   3.2271   3.4641   3.5765   3.5990   3.6178   3.7490
     4.0286   4.2300   4.2477   4.5237   4.6912   4.8113   4.8291   4.8476
     4.8933   5.0480   5.1415   5.2482   5.3927   5.6467   5.7234   5.9142
     6.2561   6.3228   6.3632

          k = 0.2000-0.3464 0.0000 ( 92000 PWs)   bands (ev):

   -13.0923 -10.2937  -7.8602  -6.5135  -5.3045  -5.2964  -5.2700  -4.8699
    -4.6046  -4.2245  -4.2197  -4.2126  -4.1903  -4.1557  -4.1425  -4.1274
    -4.0658  -4.0204  -4.0182  -3.7695  -3.6553  -3.6421  -3.6281  -3.6227
    -3.5521  -3.5242  -3.4062  -3.3914  -3.3861  -3.3680  -3.3625  -3.2883
    -3.2436  -3.2236  -3.2209  -3.2149  -3.1468  -3.1187  -3.1089  -3.0920
    -3.0573  -2.9722  -2.7380  -2.6809  -2.6526  -2.6412  -2.6211  -2.6033
    -2.5904  -2.5840  -2.5256  -2.5093  -2.4812  -2.3609  -2.3549  -2.3121
    -2.2424  -2.2253  -2.1962  -2.1687  -2.1501  -2.1167  -2.0886  -2.0690
    -1.9504  -1.9061  -1.8851  -1.8447  -1.7975  -1.7739  -1.7661  -1.7343
    -1.6782  -1.6688  -1.6456  -1.5747  -1.5299  -1.5095  -1.4762  -1.4550
    -1.4306  -1.4259  -1.3696  -1.3444  -1.3321  -1.3033  -1.2301  -1.2114
    -1.1984  -1.1833  -1.1590  -1.1403  -1.1259  -1.1044  -1.0806  -1.0587
    -1.0235  -0.9880  -0.9537  -0.9348  -0.9073  -0.8901  -0.8592  -0.8336
    -0.8249  -0.8175  -0.8004  -0.7624  -0.7483  -0.7351  -0.7171  -0.7023
    -0.6679  -0.6387  -0.5897  -0.5769  -0.5317  -0.5026  -0.4475  -0.4296
    -0.3901  -0.3623  -0.2726  -0.2112  -0.1597  -0.1170  -0.0844  -0.0696
    -0.0532  -0.0331   0.0041   0.0242   0.0351   0.0530   0.1030   0.1442
     0.1572   0.2003   0.2724   0.3336   0.3692   0.3873   0.3959   0.4306
     0.4679   0.4740   0.5593   0.5742   0.6012   0.6319   0.6487   0.6957
     0.7767   0.7916   0.8081   0.8180   0.8692   0.8783   0.8880   0.8976
     0.9190   0.9314   0.9430   1.0040   1.0613   1.1259   1.1427   1.2119
     1.2510   1.3309   1.3651   1.4373   1.4583   1.4750   1.5123   1.5634
     1.5861   1.6013   1.6254   1.6479   1.6609   1.6659   1.6817   1.7002
     1.7265   1.7367   1.7892   1.8352   1.8400   1.8741   1.8877   1.9345
     2.0088   2.0312   2.0950   2.1276   2.1501   2.1900   2.1997   2.3343
     2.3407   2.5569   2.8369   2.8701   2.9979   3.3004   3.4088   3.4182
     3.6767   3.7664   4.0839   4.2386   4.3453   4.3662   4.6271   5.0147
     5.1835   5.5285   5.6733   5.7767   5.7989   6.0981   6.2118   6.2279
     6.3381   6.3581   6.5181

          k = 0.4000-0.2309 0.0000 ( 91978 PWs)   bands (ev):

   -13.0924 -10.2927  -7.8621  -6.3775  -5.7453  -5.1705  -4.8812  -4.6885
    -4.6807  -4.6386  -4.4553  -4.2844  -4.1515  -4.0348  -4.0005  -3.9677
    -3.9466  -3.8367  -3.7932  -3.7522  -3.7320  -3.7105  -3.7072  -3.6097
    -3.5595  -3.5589  -3.5108  -3.5042  -3.4826  -3.4462  -3.3821  -3.3763
    -3.3666  -3.1418  -3.1225  -3.1178  -3.1113  -3.0834  -3.0760  -2.8969
    -2.8703  -2.8425  -2.8384  -2.8365  -2.8021  -2.6761  -2.6213  -2.5519
    -2.5487  -2.5093  -2.5071  -2.4695  -2.4434  -2.4173  -2.3738  -2.3727
    -2.3255  -2.2862  -2.1932  -2.1670  -2.1340  -2.1214  -2.1181  -2.0353
    -1.9996  -1.9541  -1.9421  -1.9341  -1.8284  -1.7853  -1.7350  -1.7150
    -1.6906  -1.6894  -1.6429  -1.6050  -1.5820  -1.5602  -1.4868  -1.4738
    -1.4286  -1.4058  -1.3589  -1.3440  -1.3334  -1.3009  -1.2664  -1.2488
    -1.2279  -1.2237  -1.2135  -1.1925  -1.1781  -1.1606  -1.1358  -1.0858
    -1.0576  -1.0502  -1.0327  -1.0091  -1.0041  -0.9807  -0.8788  -0.8656
    -0.8407  -0.7854  -0.7818  -0.7488  -0.7355  -0.7274  -0.6533  -0.6091
    -0.5761  -0.5734  -0.5416  -0.5018  -0.4718  -0.3466  -0.3335  -0.3166
    -0.2692  -0.2547  -0.2189  -0.1649  -0.1496  -0.1468  -0.1137  -0.0825
    -0.0570  -0.0434  -0.0340  -0.0148   0.0019   0.0285   0.0436   0.0617
     0.1018   0.1707   0.2089   0.2158   0.2447   0.2594   0.3077   0.4093
     0.4161   0.4242   0.5141   0.5226   0.6353   0.6798   0.6963   0.6993
     0.7544   0.7689   0.7798   0.8137   0.8527   0.8763   0.9017   0.9400
     0.9463   1.0354   1.0450   1.0603   1.0767   1.0866   1.1285   1.2375
     1.2484   1.3283   1.3361   1.3515   1.3641   1.3739   1.4625   1.4650
     1.5007   1.5494   1.5646   1.6292   1.6359   1.6660   1.6697   1.7504
     1.7530   1.8009   1.8068   1.8199   1.8225   1.8571   1.8624   2.0215
     2.0343   2.0478   2.0615   2.0748   2.2212   2.2932   2.4444   2.5012
     2.7136   2.8079   3.1014   3.1159   3.3905   3.4130   3.5065   3.6043
     3.8491   4.0594   4.3293   4.3302   4.3772   4.5169   4.6439   4.6600
     4.9628   4.9684   5.1815   5.2693   5.6131   5.8603   6.0801   6.2390
     6.3912   6.5653   6.8407

          k = 0.4000-0.0000 0.0000 ( 92000 PWs)   bands (ev):

   -13.0923 -10.2938  -7.8602  -6.5138  -5.3050  -5.2971  -5.2703  -4.8703
    -4.6045  -4.2254  -4.2212  -4.2151  -4.1908  -4.1503  -4.1428  -4.1228
    -4.0666  -4.0203  -4.0178  -3.7694  -3.6609  -3.6474  -3.6269  -3.6234
    -3.5562  -3.5236  -3.4065  -3.3912  -3.3869  -3.3665  -3.3612  -3.2813
    -3.2401  -3.2223  -3.2198  -3.2145  -3.1457  -3.1223  -3.1101  -3.0913
    -3.0562  -2.9804  -2.7371  -2.6811  -2.6498  -2.6392  -2.6222  -2.5976
    -2.5892  -2.5854  -2.5235  -2.5115  -2.4807  -2.3588  -2.3541  -2.3080
    -2.2436  -2.2240  -2.1984  -2.1659  -2.1506  -2.1166  -2.0898  -2.0650
    -1.9478  -1.9033  -1.8813  -1.8430  -1.7949  -1.7671  -1.7620  -1.7304
    -1.6773  -1.6678  -1.6462  -1.5789  -1.5316  -1.5125  -1.4818  -1.4564
    -1.4339  -1.4245  -1.3716  -1.3531  -1.3301  -1.3052  -1.2230  -1.2115
    -1.1984  -1.1820  -1.1624  -1.1361  -1.1254  -1.1044  -1.0869  -1.0625
    -1.0303  -0.9896  -0.9548  -0.9340  -0.9069  -0.8888  -0.8622  -0.8357
    -0.8281  -0.8175  -0.7999  -0.7632  -0.7448  -0.7365  -0.7161  -0.7033
    -0.6698  -0.6390  -0.5901  -0.5759  -0.5308  -0.5021  -0.4480  -0.4334
    -0.3924  -0.3629  -0.2708  -0.2084  -0.1611  -0.1259  -0.0831  -0.0715
    -0.0542  -0.0334   0.0034   0.0274   0.0341   0.0538   0.1057   0.1461
     0.1592   0.2044   0.2634   0.3327   0.3689   0.3875   0.3955   0.4295
     0.4652   0.4723   0.5580   0.5740   0.6003   0.6311   0.6483   0.6916
     0.7783   0.7918   0.8098   0.8197   0.8704   0.8787   0.8894   0.8992
     0.9196   0.9312   0.9483   1.0023   1.0619   1.1276   1.1425   1.2101
     1.2487   1.3300   1.3655   1.4378   1.4580   1.4756   1.5124   1.5659
     1.5866   1.6025   1.6237   1.6451   1.6597   1.6633   1.6792   1.7021
     1.7253   1.7385   1.7873   1.8310   1.8386   1.8739   1.8886   1.9328
     2.0120   2.0365   2.1033   2.1357   2.1568   2.1900   2.1995   2.3330
     2.3385   2.5521   2.8321   2.8681   2.9982   3.3015   3.4133   3.4234
     3.6806   3.7659   4.0828   4.2387   4.3461   4.3646   4.6295   5.0188
     5.1839   5.5295   5.6778   5.7728   5.8009   6.0990   6.2068   6.2294
     6.3370   6.3561   6.5229

          k = 0.4000 0.2309 0.0000 ( 91978 PWs)   bands (ev):

   -13.0921 -10.2955  -7.8562  -6.3779  -5.7467  -5.1603  -4.8811  -4.6995
    -4.6713  -4.6344  -4.4574  -4.3114  -4.1522  -4.0432  -4.0126  -3.9547
    -3.9394  -3.8172  -3.7826  -3.7532  -3.7405  -3.7209  -3.7038  -3.6133
    -3.5615  -3.5493  -3.5186  -3.4997  -3.4816  -3.4547  -3.3784  -3.3737
    -3.3664  -3.1410  -3.1224  -3.1084  -3.0999  -3.0827  -3.0754  -2.8815
    -2.8642  -2.8481  -2.8389  -2.8276  -2.7984  -2.6570  -2.5747  -2.5540
    -2.5457  -2.5293  -2.5120  -2.4814  -2.4569  -2.3952  -2.3789  -2.3637
    -2.3377  -2.3278  -2.2130  -2.1720  -2.1541  -2.1351  -2.0961  -2.0180
    -2.0094  -1.9671  -1.9424  -1.9085  -1.8280  -1.7861  -1.7489  -1.7273
    -1.7080  -1.6881  -1.6508  -1.6157  -1.5996  -1.5639  -1.4914  -1.4607
    -1.4239  -1.4056  -1.3501  -1.3342  -1.3226  -1.3119  -1.2849  -1.2412
    -1.2310  -1.2183  -1.2084  -1.2014  -1.1742  -1.1551  -1.1407  -1.0901
    -1.0607  -1.0467  -1.0320  -1.0192  -0.9880  -0.9370  -0.8888  -0.8722
    -0.8280  -0.8163  -0.7956  -0.7699  -0.7401  -0.7199  -0.6680  -0.6114
    -0.5771  -0.5490  -0.5187  -0.4782  -0.4267  -0.3815  -0.3518  -0.3283
    -0.2762  -0.2565  -0.2250  -0.1997  -0.1555  -0.1355  -0.1152  -0.0975
    -0.0584  -0.0415  -0.0327  -0.0206   0.0032   0.0396   0.0634   0.0743
     0.1150   0.1499   0.1966   0.2284   0.2473   0.2968   0.3009   0.4045
     0.4118   0.4546   0.5136   0.5280   0.6342   0.6662   0.6797   0.6964
     0.7265   0.7622   0.7923   0.8007   0.8527   0.8698   0.9016   0.9443
     0.9499   1.0358   1.0523   1.0604   1.0749   1.1025   1.1462   1.2316
     1.2536   1.3075   1.3324   1.3375   1.3702   1.3795   1.4546   1.4814
     1.4995   1.5576   1.5682   1.6227   1.6335   1.6566   1.6665   1.7273
     1.7776   1.7820   1.8121   1.8245   1.8338   1.8609   1.8654   2.0197
     2.0361   2.0486   2.0691   2.0916   2.2202   2.2930   2.4311   2.5230
     2.7239   2.8061   3.1045   3.1149   3.2546   3.4768   3.5048   3.6987
     3.8594   4.1010   4.3288   4.3346   4.3927   4.5021   4.6182   4.6507
     4.9085   4.9771   5.0639   5.3893   5.6720   5.8442   6.1693   6.2251
     6.3619   6.6558   6.8317

          k = 0.4000-0.6928 0.0000 ( 91980 PWs)   bands (ev):

   -13.0921 -10.2955  -7.8559  -5.9896  -5.9754  -5.3775  -4.9539  -4.7825
    -4.7417  -4.5094  -4.2196  -4.1917  -4.0719  -4.0364  -3.9379  -3.9210
    -3.8371  -3.8201  -3.7537  -3.7254  -3.7069  -3.6917  -3.6632  -3.6567
    -3.6352  -3.6181  -3.5158  -3.4910  -3.4835  -3.4477  -3.4405  -3.3762
    -3.2828  -3.2319  -3.1912  -3.1075  -3.1031  -3.0783  -3.0655  -3.0424
    -2.9693  -2.9587  -2.8698  -2.8494  -2.6906  -2.6472  -2.6391  -2.5699
    -2.5500  -2.5013  -2.4628  -2.4531  -2.3534  -2.3227  -2.2976  -2.2757
    -2.2398  -2.2010  -2.1842  -2.1637  -2.1286  -2.0622  -2.0424  -2.0312
    -2.0253  -2.0078  -1.9861  -1.9497  -1.9227  -1.9075  -1.8584  -1.8035
    -1.7603  -1.7347  -1.6980  -1.6465  -1.6290  -1.5793  -1.5638  -1.5342
    -1.5050  -1.4933  -1.4621  -1.3976  -1.3902  -1.3776  -1.3328  -1.3113
    -1.2825  -1.2200  -1.2002  -1.1867  -1.1614  -1.1250  -1.1109  -1.0390
    -0.9903  -0.9622  -0.9436  -0.9362  -0.9054  -0.8984  -0.8857  -0.8529
    -0.8480  -0.8214  -0.8014  -0.7942  -0.7712  -0.7319  -0.7213  -0.7132
    -0.7062  -0.6850  -0.6764  -0.6333  -0.5949  -0.4984  -0.4579  -0.3745
    -0.3277  -0.3140  -0.2931  -0.2178  -0.2008  -0.1588  -0.1303  -0.1137
    -0.0844  -0.0721  -0.0563  -0.0266   0.0246   0.0349   0.0621   0.1119
     0.1422   0.1598   0.1866   0.2603   0.3520   0.3773   0.4164   0.4502
     0.4741   0.4830   0.5393   0.5613   0.5702   0.5895   0.6048   0.6412
     0.6740   0.7005   0.7423   0.7766   0.8014   0.8165   0.8271   0.8660
     0.8755   0.9385   0.9972   1.0043   1.1220   1.1373   1.2173   1.2711
     1.2927   1.3123   1.3750   1.4186   1.4539   1.4731   1.5558   1.5832
     1.5910   1.6143   1.6409   1.6552   1.6773   1.7052   1.7733   1.7847
     1.8052   1.8237   1.8319   1.8543   1.8645   1.9273   2.0154   2.0374
     2.0569   2.0824   2.0929   2.1377   2.1581   2.2578   2.3809   2.8916
     3.0361   3.2238   3.2271   3.4667   3.5740   3.5956   3.6140   3.7525
     4.0319   4.2293   4.2500   4.5245   4.6940   4.8119   4.8274   4.8504
     4.8922   5.0715   5.1450   5.2463   5.3924   5.6439   5.7200   5.9163
     6.2576   6.3109   6.3595

          k = 0.4000-0.4619 0.0000 ( 91980 PWs)   bands (ev):

   -13.0923 -10.2938  -7.8595  -6.0026  -5.9605  -5.3773  -4.9802  -4.7806
    -4.7198  -4.5000  -4.2320  -4.1710  -4.0706  -4.0416  -3.9590  -3.9218
    -3.8436  -3.8062  -3.7599  -3.7229  -3.7075  -3.6805  -3.6598  -3.6514
    -3.6344  -3.6106  -3.5303  -3.4894  -3.4838  -3.4478  -3.4385  -3.3761
    -3.2917  -3.2360  -3.1996  -3.1039  -3.0943  -3.0888  -3.0662  -3.0570
    -2.9675  -2.9604  -2.8657  -2.8522  -2.6990  -2.6583  -2.6476  -2.6003
    -2.5496  -2.4824  -2.4622  -2.4271  -2.3454  -2.3226  -2.2890  -2.2508
    -2.2412  -2.2293  -2.1872  -2.1568  -2.1125  -2.0617  -2.0492  -2.0301
    -2.0124  -2.0065  -1.9765  -1.9715  -1.9600  -1.8894  -1.8337  -1.7753
    -1.7640  -1.7445  -1.6611  -1.6483  -1.6266  -1.5837  -1.5722  -1.5289
    -1.5116  -1.4989  -1.4683  -1.3951  -1.3904  -1.3836  -1.3355  -1.3168
    -1.2854  -1.2254  -1.1921  -1.1874  -1.1513  -1.1463  -1.0945  -1.0398
    -0.9904  -0.9775  -0.9463  -0.9339  -0.9003  -0.8921  -0.8799  -0.8479
    -0.8432  -0.8259  -0.7966  -0.7883  -0.7524  -0.7339  -0.7275  -0.7129
    -0.7028  -0.6838  -0.6689  -0.6337  -0.6124  -0.5626  -0.4251  -0.3676
    -0.3317  -0.3080  -0.2618  -0.2176  -0.1830  -0.1662  -0.1291  -0.1113
    -0.1073  -0.0709  -0.0585  -0.0218   0.0098   0.0412   0.0678   0.0793
     0.1475   0.1594   0.1929   0.2733   0.3603   0.3891   0.4026   0.4332
     0.4604   0.4893   0.5342   0.5435   0.5826   0.5940   0.6057   0.6437
     0.6660   0.6930   0.7550   0.7783   0.7987   0.8228   0.8370   0.8556
     0.8751   0.9671   0.9745   1.0061   1.1143   1.1487   1.1914   1.2797
     1.2970   1.3524   1.3773   1.4114   1.4195   1.5001   1.5176   1.5798
     1.6079   1.6326   1.6365   1.6525   1.6809   1.7107   1.7813   1.7938
     1.7984   1.8319   1.8416   1.8476   1.8527   1.9291   2.0273   2.0333
     2.0469   2.0677   2.0814   2.1315   2.1500   2.2576   2.3781   2.9128
     3.0959   3.2227   3.2341   3.3568   3.5430   3.6017   3.6285   3.6937
     4.1684   4.2324   4.3065   4.4321   4.6956   4.7122   4.8228   4.8464
     5.0106   5.0309   5.1223   5.1646   5.5877   5.6436   5.6814   5.8908
     6.2007   6.3010   6.3275

     the Fermi energy is     1.8483 ev

!    total energy              =  -27818.62746444 Ry

     total all-electron energy =  -1326878.685151 Ry
     estimated scf accuracy    <       0.00000060 Ry
     smearing contrib. (-TS)   =       0.00172139 Ry
     internal energy E=F+TS    =  -27818.62918583 Ry

     The total energy is F=E-TS. E is the sum of the following terms:
     one-electron contribution =  -28992.01257290 Ry
     hartree contribution      =   14800.54969263 Ry
     xc contribution           =    -909.04325904 Ry
     ewald contribution        =   12775.47384080 Ry
     one-center paw contrib.   =  -25493.59688732 Ry

     convergence has been achieved in  20 iterations

     negative rho (up, down):  1.301E-02 0.000E+00

     Forces acting on atoms (cartesian axes, Ry/au):

     atom    1 type  1   force =     0.00015347   -0.00017587   -0.00646728
     atom    2 type  1   force =    -0.00091356    0.00030018   -0.00340834
     atom    3 type  1   force =     0.00031221   -0.00004976   -0.00319706
     atom    4 type  1   force =    -0.00002281   -0.00030660   -0.00650242
     atom    5 type  1   force =    -0.00082330   -0.00027492   -0.00358111
     atom    6 type  1   force =     0.00054877   -0.00054635   -0.00333825
     atom    7 type  1   force =     0.00006153   -0.00030175   -0.00338890
     atom    8 type  1   force =    -0.00037304    0.00051632   -0.00358537
     atom    9 type  1   force =     0.00004125   -0.00058317   -0.00319558
     atom   10 type  1   force =     0.00020527    0.00020797   -0.00410787
     atom   11 type  1   force =     0.00033057    0.00195102    0.00800514
     atom   12 type  1   force =     0.00002653    0.00027843   -0.00184387
     atom   13 type  1   force =     0.00159538   -0.00092575    0.00448500
     atom   14 type  1   force =    -0.00078930    0.00102883    0.01411914
     atom   15 type  1   force =     0.00012958    0.00043982   -0.00179309
     atom   16 type  1   force =     0.00203006   -0.00017727    0.00451046
     atom   17 type  1   force =    -0.00118146   -0.00062496    0.00817596
     atom   18 type  1   force =    -0.00017070    0.00046093    0.00074361
     atom   19 type  1   force =    -0.00000654    0.00014054   -0.00008386
     atom   20 type  1   force =     0.00003145   -0.00005351    0.00035801
     atom   21 type  1   force =     0.00023811   -0.00006406    0.00044917
     atom   22 type  1   force =    -0.00010832    0.00003402    0.00012812
     atom   23 type  1   force =    -0.00037868   -0.00000687   -0.00009414
     atom   24 type  1   force =     0.00003635   -0.00011578    0.00020027
     atom   25 type  1   force =     0.00011022    0.00002847    0.00023905
     atom   26 type  1   force =    -0.00011800    0.00002839    0.00025271
     atom   27 type  1   force =     0.00030347   -0.00013971    0.00027277
     atom   28 type  1   force =    -0.00014963    0.00000813   -0.00009801
     atom   29 type  1   force =    -0.00014345   -0.00006750   -0.00023746
     atom   30 type  1   force =    -0.00012272   -0.00007509    0.00010911
     atom   31 type  1   force =     0.00002378   -0.00014209    0.00018340
     atom   32 type  1   force =    -0.00022178   -0.00009576   -0.00003067
     atom   33 type  1   force =    -0.00020582    0.00018968   -0.00014148
     atom   34 type  1   force =     0.00019201   -0.00044938   -0.00033914
     atom   35 type  1   force =    -0.00073312    0.00015783    0.00081614
     atom   36 type  1   force =    -0.00028052   -0.00022453    0.00007084
     atom   37 type  2   force =     0.00012313    0.00070480    0.00072947
     atom   38 type  2   force =    -0.00053464   -0.00141231    0.00191432
     atom   39 type  2   force =    -0.00132153    0.00144361    0.00271371
     atom   40 type  3   force =    -0.00006939    0.00028135   -0.00008376
     atom   41 type  3   force =     0.00053984   -0.00024060    0.00053331
     atom   42 type  3   force =    -0.00089181    0.00060056   -0.00054117
     atom   43 type  3   force =     0.00046403    0.00009310   -0.00027837
     atom   44 type  3   force =    -0.00048503   -0.00005968   -0.00053957
     atom   45 type  3   force =     0.00254816   -0.00178070   -0.00213295

     Total force =     0.006202     Total SCF correction =     0.001707
     SCF correction compared to forces is large: reduce conv_thr to get better values

     negative rho (up, down):  1.301E-02 0.000E+00

     negative rho (up, down):  1.301E-02 0.000E+00

     negative rho (up, down):  1.301E-02 0.000E+00

     negative rho (up, down):  1.301E-02 0.000E+00

     negative rho (up, down):  1.301E-02 0.000E+00

     negative rho (up, down):  1.301E-02 0.000E+00

     negative rho (up, down):  1.301E-02 0.000E+00

     negative rho (up, down):  1.301E-02 0.000E+00

     negative rho (up, down):  1.301E-02 0.000E+00

     negative rho (up, down):  1.301E-02 0.000E+00

     negative rho (up, down):  1.301E-02 0.000E+00

     negative rho (up, down):  1.301E-02 0.000E+00

     negative rho (up, down):  1.301E-02 0.000E+00

     negative rho (up, down):  1.301E-02 0.000E+00

     negative rho (up, down):  1.301E-02 0.000E+00

     negative rho (up, down):  1.301E-02 0.000E+00

     negative rho (up, down):  1.301E-02 0.000E+00

     negative rho (up, down):  1.301E-02 0.000E+00

     negative rho (up, down):  1.301E-02 0.000E+00

     negative rho (up, down):  1.301E-02 0.000E+00

     negative rho (up, down):  1.301E-02 0.000E+00

     negative rho (up, down):  1.301E-02 0.000E+00

     negative rho (up, down):  1.301E-02 0.000E+00

     negative rho (up, down):  1.301E-02 0.000E+00

     negative rho (up, down):  1.301E-02 0.000E+00

     negative rho (up, down):  1.301E-02 0.000E+00

     negative rho (up, down):  1.301E-02 0.000E+00

     negative rho (up, down):  1.301E-02 0.000E+00

     negative rho (up, down):  1.301E-02 0.000E+00

     negative rho (up, down):  1.301E-02 0.000E+00

     negative rho (up, down):  1.301E-02 0.000E+00

     negative rho (up, down):  1.301E-02 0.000E+00

     negative rho (up, down):  1.301E-02 0.000E+00

     negative rho (up, down):  1.301E-02 0.000E+00
 BEEFens 2000 ensemble energies
             -0.608932754833984E+02
             -0.361916986873715E+01
             -0.158670805950973E+02
              0.430711288728739E+02
             -0.221772374158762E+02
             -0.205660013045770E+02
             -0.353879253257578E+02
             -0.868032089216811E+02
             -0.465721074554988E+02
             -0.473270167648037E+02
             -0.370441954922588E+02
              0.231630827741700E+01
              0.409756176269386E+01
              0.757423876483034E+01
              0.266697452316618E+01
              0.476381900200205E+02
             -0.209159508355784E+02
             -0.230033983509738E+02
              0.193898376610136E+02
             -0.112714031443745E+03
              0.538005362634489E+02
             -0.290179052582051E+02
             -0.335923557943408E+01
             -0.114206512754413E+02
             -0.879503755234259E+01
             -0.462082024234991E+01
              0.885290798469094E+02
             -0.188257323947031E+02
             -0.901178414635569E+01
             -0.520256278370804E+02
              0.816951536644256E+02
             -0.186940444847219E+02
             -0.376132659840542E+02
              0.249473329747260E+02
             -0.284595404503517E+01
              0.165369990158077E+02
             -0.482710410985158E+01
              0.107759744742178E+02
              0.290100847789899E+02
             -0.103528759754271E+03
              0.560110220964292E+02
              0.142857773950830E+02
             -0.178989343346507E+01
             -0.362202289419780E+02
              0.123597639530975E+02
             -0.147529925995962E+02
              0.400057085249663E+02
              0.365693159164919E+02
             -0.308258594500858E+02
             -0.276066945266213E+02
             -0.329471022441625E+02
             -0.353427637267332E+02
              0.137560728966290E+02
             -0.492342413926962E+02
              0.116190471665450E+02
              0.625033509626433E+02
              0.637943607354267E+02
              0.356715521986688E+02
              0.154392306080705E+02
              0.271849610948498E+02
              0.894268748365905E+02
              0.212656814374573E+02
             -0.550062881320949E+02
             -0.157175621522913E+02
             -0.236931950080366E+02
              0.631606437866121E+02
             -0.775144240996354E+02
             -0.673527992773405E+02
             -0.260894377260301E+02
             -0.659337628745607E+01
             -0.471555461104101E+02
              0.271513922761532E+02
              0.804989732586375E+01
              0.872839587695495E+01
             -0.398504075635240E+02
             -0.347941172743381E+02
             -0.543847036233506E+02
              0.390885833931119E+02
             -0.297115630480469E+02
              0.266560814528550E+02
             -0.720436549603204E+01
             -0.318688858964431E+02
             -0.577236931210862E+02
             -0.176984484763002E+02
             -0.910569009116000E+01
             -0.124820019712498E+02
              0.413424574470782E+02
              0.685612987948384E+02
             -0.387074037668696E+02
             -0.796854776962514E+02
             -0.220131496539150E+02
              0.111799065655241E+03
             -0.594257610173830E+02
              0.356978926233824E+02
             -0.962313992450913E+01
             -0.664675479949769E+02
              0.255167270417164E+02
              0.398521704963669E+02
             -0.199394963617168E+02
              0.400971804224413E+02
             -0.296514461087911E+02
             -0.480478461717242E+02
              0.869259421690053E+02
              0.455158347976653E+02
              0.336742741973745E+02
              0.146764041766926E+02
              0.206634857992235E+02
              0.858873413153582E+02
             -0.257499351332777E+02
              0.789034635005457E+01
             -0.142786984452082E+03
              0.181348811715416E+02
             -0.718060522354772E+02
              0.151381324913281E+02
              0.205305558902971E+02
             -0.334207380464527E+02
             -0.558520495305098E+02
              0.652004143075010E+01
             -0.305249529254821E+02
              0.309426934329211E+02
             -0.531193085903869E+02
              0.167091162807299E+01
             -0.358090853527205E+02
             -0.424747328916607E+01
             -0.977600125729822E+00
              0.182469637762249E+02
              0.142077981799798E+01
             -0.651989153752993E+01
              0.592742979005744E+02
              0.911052402594588E+02
              0.485739595091122E+02
              0.831656660339869E+02
             -0.115410702722553E+02
              0.143115937338111E+02
              0.542460564868879E+02
             -0.110108987482378E+02
             -0.738079065304839E+02
             -0.385839963105197E+02
             -0.523307034787917E+02
             -0.277540840149947E+02
              0.328132764757663E+02
             -0.117146445863619E+03
             -0.187470426426307E+02
              0.415595261597976E+02
             -0.387456467522093E+02
             -0.365938840704480E+02
              0.546395287272435E+02
              0.402017852259469E+02
             -0.354780760138596E+02
              0.139310968947433E+02
             -0.274124226839232E+02
              0.344264620911954E+02
              0.445905073242750E+01
              0.211165029749114E+02
             -0.887016059751553E+02
             -0.481437944076147E+02
             -0.998951666701737E+01
              0.319598581160792E+01
             -0.368132539735909E+02
              0.106368240090243E+03
             -0.230981633254401E+02
             -0.399442674515714E+02
              0.389749076589062E+02
             -0.495335144310535E+02
             -0.364768764036228E+02
              0.325976009730070E+02
              0.125039330155452E+02
              0.165164982921923E+02
              0.117381980773570E+02
             -0.133171294874763E+02
              0.225171188551536E+02
              0.591653302274219E+02
             -0.312132880768069E+02
              0.163167410895948E+02
              0.937033258932051E+02
              0.341745125844238E+02
             -0.728553464356798E+01
             -0.189442613419224E+02
              0.153811665747266E+03
             -0.165135742050068E+02
              0.364631206531307E+02
              0.195626707423319E+02
              0.361933055461974E+02
              0.894562168420703E+02
              0.544227781826014E+02
             -0.240855304941505E+01
              0.228708267949868E+02
              0.486576213426977E+02
              0.364520470901139E+02
             -0.527437768776288E+02
              0.938822742791098E+02
             -0.828145449622553E+02
             -0.198023307976752E+02
              0.584285115448603E+02
              0.687176667727157E+01
              0.791570564770927E+01
              0.341292839668828E+02
              0.299523727818429E+02
              0.354471444628062E+02
             -0.639315152243053E+02
              0.286166986583294E+01
             -0.298262291815123E+02
             -0.868806739618600E+01
             -0.147694869795282E+01
             -0.729446022824367E+01
             -0.417248461732862E+01
              0.861777764215433E+02
             -0.101159683947211E+02
             -0.277088460452238E+02
             -0.496130677813134E+01
              0.140532812410372E+02
             -0.565934393712115E+02
             -0.409469157088161E+02
             -0.382996150075095E+02
             -0.632164764258997E+02
             -0.170320307069442E+02
             -0.448670291871741E+02
              0.163696942715731E+02
             -0.236436139176904E+01
             -0.104898234877440E+02
             -0.935962393636447E+01
              0.808238755893956E+01
             -0.242591986559862E+02
              0.691393746359143E+02
             -0.810042604183027E+02
             -0.141462147680158E+02
             -0.174265034190927E+02
              0.182299229634490E+02
              0.215650448703118E+02
             -0.465364675749020E+02
             -0.201990266019017E+02
              0.442297979650310E+02
             -0.276597108266250E+02
              0.187593082383688E+02
              0.383584922220053E+02
             -0.322472157010566E+01
              0.114463931885469E+03
             -0.229841595981932E+02
             -0.341806745165646E+02
              0.576263962329443E+01
             -0.229247689132974E+02
              0.529352248173599E+02
             -0.339101759740160E+02
              0.107143088826327E+02
              0.641479672559314E+02
             -0.126549857605036E+02
              0.120579675491381E+03
              0.126240583120786E+03
             -0.651917089286576E+02
              0.592325213703780E+02
              0.167571409642859E+02
             -0.519530347560634E+02
              0.216428651448680E+02
              0.355681116490611E+02
              0.364427125892485E+02
              0.134837941913557E+01
              0.160672451296728E+02
              0.698304070456833E+02
             -0.247691052037086E+02
              0.181550796327244E+02
              0.740538177141229E+02
             -0.373464564886107E+02
             -0.130889384753003E+02
              0.510645545531300E+02
              0.298464083117960E+02
              0.782326894008356E+02
              0.224029421142131E+02
              0.632917979191200E+01
              0.281130214685836E+02
              0.384651280944586E+02
             -0.473947913641412E+02
              0.337666708801214E+01
              0.131202413832139E+02
              0.114213713840694E+02
              0.221436319810540E+02
             -0.576912801586470E+02
              0.366799125346239E+02
             -0.445031745086817E+02
             -0.348509245762969E+02
              0.178975478188107E+02
             -0.181410433963479E+02
              0.557183478187124E+02
             -0.255781240075081E+02
              0.267698208645853E+02
              0.369088731644405E+02
              0.831381338456399E+02
              0.576106190947077E+02
              0.463356481927770E+02
             -0.104898442256975E+02
             -0.396803823316714E+01
             -0.333000494088477E+02
              0.753351535922326E+02
              0.799629858466752E+02
              0.363192140846588E+02
             -0.193028948307627E+02
              0.513241198117291E+02
             -0.162414666235239E+02
              0.214823568424070E+02
              0.616788226181895E+02
              0.212709076520974E+01
             -0.104737069517865E+02
             -0.283174122222057E+02
             -0.514048407277910E+02
              0.948203504677872E+02
              0.441814219631398E+02
             -0.561324191295699E+02
             -0.971043720883694E+01
              0.250354152570501E+02
             -0.997407764311939E+01
              0.594173312078203E+02
              0.152551198955209E+02
              0.801643875331607E+02
              0.280793700825740E+02
             -0.264159640840329E+02
              0.249068694579900E+02
             -0.504320552828597E+01
             -0.323979018094005E+02
              0.133459434723891E+02
              0.205795420975206E+02
              0.935915273579315E+02
              0.799558825144213E+02
              0.552948473881981E+02
              0.732358490882091E+02
              0.803444258149253E+01
             -0.274381322824529E+02
              0.163570067390357E+02
             -0.368864405433709E+02
             -0.478316555768957E+02
             -0.565053595070333E+02
             -0.267665182507004E+02
             -0.110015104037148E+03
             -0.292824217953377E+02
             -0.840075860657108E+02
              0.210892955133346E+02
             -0.478352255661497E+02
              0.398728529876598E+02
             -0.944755170318398E+02
             -0.330937230825369E+02
              0.549061753694742E+02
              0.208246669430378E+02
             -0.833629472893468E+02
              0.632176040463276E+02
             -0.257841855586011E+02
              0.514139151115747E+02
             -0.242988056037612E+02
             -0.753684557218439E+02
              0.112424554665571E+02
             -0.613394631196112E+02
             -0.167758974660286E+02
             -0.152001630202304E+01
              0.419232895614830E+02
              0.127398592161590E+03
             -0.462793897437496E+02
             -0.363711174399871E+02
             -0.100984792494461E+01
             -0.130285066413250E+02
             -0.825004996296971E+02
             -0.598361147426835E+02
              0.518487172368574E+02
             -0.289237530053041E+02
              0.170361271603320E+02
             -0.490836803906658E+02
             -0.132562622725691E+02
             -0.438467457190015E+02
              0.567006161884555E+02
              0.150917565806965E+02
             -0.232462566419724E+02
             -0.127870678161967E+02
              0.672644364481084E+01
             -0.620745676519653E+01
              0.442681088452678E+02
             -0.252717766297767E+02
              0.285834118561377E+01
              0.340494860183402E+02
              0.171291738645323E+02
             -0.160892772502785E+02
              0.156722669669404E+03
              0.540248104977614E+02
              0.121540945927109E+01
              0.161699670576536E+02
             -0.616703835634210E+02
              0.316154996158263E+02
             -0.724265301482266E+02
             -0.253305605667405E+02
             -0.524510869652756E+02
             -0.220744991847495E+02
              0.571203408388299E+02
             -0.538751104176146E+02
              0.162109939877054E+02
             -0.411798487089459E+01
              0.386669969749684E+01
             -0.434690018866104E+02
             -0.479489922787943E+02
             -0.407491018799362E+01
             -0.425252717265404E+02
             -0.217624729314882E+02
             -0.439887995192056E+02
             -0.119306161663511E+02
             -0.359913128939301E+02
             -0.517896633007127E+02
              0.213113330674239E+02
             -0.209331572210636E+02
              0.188720106571581E+02
              0.975588182736357E+01
             -0.740447214433289E+02
             -0.549379650376103E+02
             -0.400254837827662E+02
              0.354864169829009E+02
              0.266374133112382E+01
             -0.628264022367057E+02
              0.587622894419154E+02
             -0.402448514270420E+02
              0.547037093807302E+02
             -0.290712704158711E+02
             -0.447277456407077E+02
              0.298912060433501E+02
             -0.659917393421477E+02
             -0.380641768969339E+02
              0.674213495738985E+02
              0.204737623218656E+02
             -0.361934391667767E+02
              0.491245503396543E+02
             -0.174590671065599E+02
             -0.324045495885961E+02
             -0.302607913462165E+02
             -0.502313226156964E+02
              0.250530898188670E+02
             -0.935706112345359E+02
             -0.842257958622482E+02
             -0.737181151445270E+01
             -0.307697735212753E+02
             -0.577716178033630E+02
              0.724275725858254E+02
              0.131966093835268E+03
             -0.361146250790728E+02
             -0.258305003945640E+01
             -0.638719225379731E+02
              0.652613816260919E+02
              0.171511344159755E+02
             -0.182699585607625E+02
             -0.411033626841155E+02
              0.148982114691681E+02
             -0.587760042051163E+02
             -0.198071618065677E+02
             -0.907074646952880E+02
              0.338159798079625E+02
              0.169056348455003E+02
              0.180884223691078E+01
             -0.713480946274819E+01
             -0.331430394272497E+02
             -0.764447945270410E+01
              0.125974819992461E+03
             -0.199398912739155E+02
             -0.439202614177043E+02
             -0.686246494568392E+02
              0.109771016466797E+02
             -0.343587929443613E+02
              0.596262044218710E+01
              0.262601408291549E+02
              0.102402356568289E+02
              0.279200202543101E+02
              0.120714639320255E+02
              0.631422530729349E+02
              0.317160964152106E+02
             -0.327882639785269E+02
              0.357867110440840E+02
              0.380512719331252E+02
              0.121257505949233E+02
              0.488036800621288E+02
             -0.226196065245129E+02
              0.767945250280931E+02
              0.173511677603941E+02
             -0.273328863053158E+02
             -0.724957045954282E+01
             -0.186902691338645E+02
              0.262036624436568E+02
             -0.234877340797014E+02
             -0.204585481014476E+00
             -0.853612065133404E+01
              0.812111217341266E+02
              0.501893495682266E+02
             -0.688553656318178E+02
             -0.481759444714953E+01
             -0.556669331529862E+02
             -0.159585380822134E+02
             -0.268998866696599E+02
              0.380277419422430E+01
              0.598624024135958E+00
             -0.258641983173976E+02
              0.821896669585058E+01
             -0.606277287627172E+01
             -0.128535444639352E+02
              0.861674740834227E+02
              0.182059558180126E+02
             -0.809831955923528E+02
             -0.459291967972682E+02
              0.948283731237591E+02
              0.278602119281544E+02
             -0.107138713165195E+02
              0.104901809263590E+03
             -0.194969910688816E+02
             -0.123139750666154E+02
             -0.544903469691792E+01
              0.107959858240736E+02
              0.273823438840797E+02
              0.781673710898536E+01
              0.306294552501697E+02
             -0.188074976609425E+02
             -0.305541775423482E+02
             -0.419172027462201E+02
             -0.478290800027304E+02
              0.465046313279107E+02
              0.127257836139430E+02
              0.388842385673825E+02
              0.133993548726170E+02
              0.858508266617209E+02
              0.157240628586706E+02
             -0.848507459181666E+02
             -0.335421804260409E+02
              0.133555313886189E+02
             -0.303685459178056E+02
              0.628713814861479E+02
             -0.891511122477664E+01
              0.149179458786794E+02
              0.499147177669515E+02
             -0.709971009521399E+02
              0.150190908219286E+03
              0.209333607629948E+02
              0.272157221711839E+02
              0.348931098214123E+02
              0.103714421346342E+02
             -0.155785617517051E+01
              0.359245254025645E+02
             -0.358399561364436E+02
              0.776216882426052E+02
              0.687429511043887E+02
             -0.407284732125723E+02
              0.150055536555918E+02
              0.672527137771136E+02
             -0.224482458681224E+02
              0.155233518021273E+02
              0.435698458958768E+02
              0.423265980193642E+02
             -0.787063384201441E+02
             -0.152664042437343E+02
             -0.356602474152508E+02
             -0.150176989213395E+01
             -0.770327749399868E+01
             -0.537565125446315E+01
             -0.180651858605976E+02
             -0.295089550481794E+02
              0.643194502779146E+01
              0.111708809190098E+02
              0.537321899874904E+02
             -0.391964493028021E+02
              0.376401604358546E+02
              0.440235796376968E+02
             -0.186437134917461E+02
              0.874204584813761E+02
             -0.700057997780503E+02
             -0.103503044832549E+03
             -0.664748948706432E+01
             -0.270314089267993E+01
              0.384016773159340E+01
              0.792151732040885E+02
             -0.106928673763003E+02
              0.418169081173777E+02
              0.445951263978643E+02
              0.386447124887480E+02
             -0.998555103254478E+01
              0.629001934789060E+02
             -0.134104628652162E+02
             -0.308912463759866E+02
             -0.480000685788090E+02
              0.594413696399400E+01
              0.370215106656720E+02
             -0.601954942960302E+01
              0.393745214223141E+02
             -0.174616850125091E+01
              0.656705350417809E+02
              0.187509637005539E+02
              0.100129257586880E+02
             -0.121513700442689E+02
              0.332928589657976E+02
              0.363883350688803E+02
              0.232947876375700E+02
             -0.524669507583837E+00
             -0.552451264519727E+02
              0.261727969417863E+02
              0.175876438994016E+02
              0.403426190290334E+02
              0.273054253709745E+02
              0.373753299173193E+02
             -0.608124529113556E+01
              0.252540982386024E+02
             -0.299701622664545E+02
             -0.198431149658325E+01
             -0.570742478670148E+02
             -0.308973924523069E+02
              0.380163730040785E+02
             -0.938357662330804E+02
              0.294936597242998E+02
              0.184429807341618E+02
              0.843136078766002E+02
             -0.300238772032700E+02
              0.330735403789229E+02
             -0.137980003063624E+02
             -0.465555135720385E+02
             -0.763323180793100E+02
             -0.534302183382229E+01
             -0.862942609964997E+02
              0.199642936164062E+02
             -0.248174038610739E+02
              0.307009610103904E+02
              0.238048065582293E+02
             -0.242309085875380E+02
             -0.266696448042109E+02
              0.392278770582791E+02
             -0.590375463186984E+02
             -0.117269859461705E+02
             -0.196536021634325E+02
              0.213849228272768E+02
             -0.883688157694354E+01
              0.362236013673527E+01
             -0.200858066134314E+02
              0.560415758905978E+02
             -0.442064012437348E+02
              0.787635842951033E+01
              0.587478560494028E+02
             -0.324780238422621E+02
              0.363462856755382E+01
             -0.877856268086146E+01
             -0.671130688734672E+02
             -0.483165722063492E+02
             -0.858929822253123E+01
              0.241924750940466E+02
              0.303633038871108E+02
              0.861798631530309E+01
             -0.420201723256628E+01
              0.152083288150113E+02
             -0.440860055295015E+02
              0.328725556481550E+01
             -0.532925666411529E+02
             -0.325797868596079E+02
              0.476466857944847E+02
             -0.296160562053706E+02
              0.624985681002748E+02
             -0.215728002888482E+02
              0.354495673355066E+02
              0.242548754134111E+02
             -0.646030667205393E+02
             -0.280935800920841E+02
              0.937168697900159E+01
             -0.373414005815630E+02
             -0.340911732883098E+02
             -0.832979090090516E+02
             -0.540928186953360E+02
             -0.511942085110283E+02
             -0.417141687782712E+02
             -0.997614883808581E+00
              0.100630617285840E+02
              0.112365654324341E+01
              0.154447255953720E+02
             -0.551174934858239E+02
              0.142413969851003E+02
              0.258262060370402E+02
             -0.669013984535111E+02
             -0.703682702722402E+02
             -0.432744059403212E+02
             -0.173468019875348E+02
              0.178664708732352E+02
              0.452921317955520E+01
             -0.427034581309264E+02
              0.366748574651966E+02
             -0.217204598720242E+02
              0.519106686910299E+02
             -0.890141560681366E+02
              0.600169952883805E+02
             -0.221150491883431E+01
             -0.370002245264879E+02
             -0.217092954737713E+02
              0.471296725700226E+01
              0.376429867902297E+02
             -0.758479289330109E+02
             -0.121075565907719E+02
             -0.217215543871569E+02
              0.512133819695832E+02
              0.867499703029762E+02
             -0.968707362214898E+02
              0.946859268915044E+02
              0.468622922226739E+02
             -0.727880442043271E+02
             -0.367380950028839E+02
              0.754660582019368E+02
              0.633728208367377E+02
             -0.182032559302111E+02
             -0.466716432132370E+01
              0.740906027957172E+01
              0.651881471884545E+02
             -0.510605379721911E+02
              0.158540372156128E+02
             -0.475775390116559E+01
              0.348316692058634E+02
             -0.749197191009082E+02
             -0.646674555014624E+01
             -0.351598365660880E+02
              0.462356040046057E+02
              0.469944319133241E+02
             -0.864914784142692E+02
             -0.488489808410001E+02
             -0.256772762503034E+02
             -0.341233261590252E+02
             -0.109511132022125E+02
[...]
              0.284184223146284E+02
              0.142181850155538E+03
              0.243566210687839E+02
              0.123123366575139E+02
             -0.465574508681065E+02
             -0.639035932591261E+02
             -0.189354474630304E+02
              0.330721343057954E+02
             -0.429389858013633E+01
              0.191102424828536E+02
              0.337273783455792E+02
             -0.587955214226344E+02
              0.223318395206048E+02
              0.582309816131584E+02
              0.554248858270462E+02
             -0.422935235926877E+01
             -0.132357555346914E+01
             -0.995326484582660E+01
             -0.483356742174578E+02
             -0.677301391281105E+02
              0.787367965002073E+02
             -0.526986769155127E+01
             -0.589205262736657E+02
              0.177226910663668E+01
             -0.206381713558828E+02
              0.940880189745433E+02
             -0.217309847924603E+02
             -0.354883514696119E+02
              0.336677645002278E+02
             -0.146404523489835E+02
              0.391021218673546E+02
             -0.230672298330666E+01
              0.101324449480509E+03
              0.491570979518233E+02
             -0.501223811618525E+01
             -0.323233152011176E+02
              0.233343036156888E+02
             -0.530057743627327E+02
             -0.127826721522697E+02
              0.587606066625847E+02
             -0.288456652148001E+02
             -0.439399839660430E+02
             -0.224034554699342E+02
              0.520040701196522E+02
              0.124921604236557E+02
             -0.851115302427969E+02
              0.304949862978501E+02
              0.151886870921900E+02
              0.582547504673076E+01
             -0.514856592339028E+02
             -0.373721708553711E+01
              0.323977874184991E+02
              0.513773465075573E+02
              0.634881752832822E+02
              0.230227319794927E+02
              0.774985339138311E+00
             -0.499953856110373E+02
             -0.511270688988086E+02
             -0.749245205329896E+02
             -0.623102884392631E+01
              0.310062555684069E+02
             -0.377313592714771E+01
              0.548270426651389E+02
             -0.319043644552295E+02
              0.166837273178264E+02
             -0.103791143747675E+02
             -0.290415291083557E+02
              0.587497418123096E+02
              0.793020765073021E+01
              0.606394340157510E+02
              0.512197249707390E+01
              0.265306977374196E+02
             -0.193130168522870E+02
              0.587775918169478E+02
             -0.112361118775881E+02
             -0.108199794914874E+00
             -0.792443774306766E+02
             -0.128388961197082E+02
              0.720936598759963E+02
              0.674727747840233E+02
              0.252830194824579E+02
             -0.130985736144297E+02
              0.348528951620284E+01
             -0.174534316287274E+02
             -0.218392123861415E+01
              0.910713871791189E+02
              0.129447028171990E+01
             -0.191532197472375E+02
             -0.111036962626086E+03
             -0.553242302268414E+02
             -0.376234300895909E+02
             -0.660115081916103E+02
             -0.557412617619319E+02
             -0.684463717892998E+02
             -0.448433379035909E+02
             -0.411321282960573E+02
             -0.453431839687541E+02
              0.484786377420279E+02
             -0.294217083052638E+02
             -0.996868916749710E+02
              0.420138367838901E+02
             -0.261132933595528E+02
             -0.793020629418502E+02
              0.946722166553551E+02
             -0.220527861543158E+02
              0.228288036546381E+02
              0.455997489174809E+02
             -0.124547571825758E+01
              0.255349169405030E+02
              0.471968259946959E+01
              0.425338498194964E+00
             -0.151161931706868E+02
             -0.718105328737056E+02
              0.133577573192763E+02
             -0.129683753395217E+03
              0.626768115457156E+02
             -0.441800337877583E+02
             -0.163816438591364E+02
             -0.158891598670108E+02
              0.724545811436176E+01
             -0.227985463273930E+02
              0.297741756240227E+02
             -0.522419028961948E+02
              0.367962812011149E+02
              0.372459905191578E+02
              0.168153572279925E+02
              0.100943675143772E+02
              0.198536908706766E+02
              0.627331243324232E+01
              0.310935871175670E+02
             -0.798176166673923E+01
             -0.595217015028410E+02
              0.759597546524981E+01
             -0.153773494809840E+02
             -0.195206159129532E+01
              0.508369155385826E+02
             -0.828995024270378E+02
             -0.147231965483348E+01
              0.600236183610264E+00
              0.999225289464169E+01
              0.319181285657705E+02
             -0.123806126938087E+02
              0.838060541176492E+02
              0.488125948928975E+02
             -0.183499287120747E+02
             -0.954922492315507E+01
              0.110037402570808E+01
              0.771667664541545E+02
             -0.587410719182647E+02
             -0.106043643038366E+03
              0.310115328551944E+02
             -0.163582066759222E+02
             -0.140180752543174E+02
              0.131143136344178E+02
              0.770543344643239E+02
              0.465192849455127E+02
             -0.153780139403059E+02
             -0.504756568745380E+02
             -0.555583609927959E+01
              0.307147901532602E+02
             -0.112280865552306E+02
             -0.758057932114511E+02
             -0.277500009751478E+01
             -0.893019163191184E+02
             -0.477306040690412E+02
              0.771407222571754E+02
             -0.485148149802970E+02
             -0.638809328117823E+02
             -0.515769715188035E+02
             -0.351084126819602E+02
              0.342154399366022E+02
              0.824247050719843E+02
             -0.363245384726844E+01
              0.277290874497695E+02
             -0.184644055829076E+02
             -0.696020097717290E+02
              0.466553176598632E+02
             -0.446627733245502E+02
              0.322153397976108E+02
              0.376771037434781E+02
             -0.663389386325912E+01
              0.391069218362272E+02
              0.439174803395948E+02
              0.101074659799080E+03
             -0.155902759923499E+02
             -0.458377763429327E+02
             -0.614652202060192E+02
             -0.124672580104724E+02
             -0.234753590194127E+02
              0.103233462857129E+03
             -0.450331690571354E+02
              0.105559600924760E+02
              0.969385988674350E+01
             -0.264904749972916E+02
             -0.801777843190001E+02
             -0.701338714019448E+01
              0.982874373214838E+02
              0.949402280525027E+01
              0.810171941873017E+01
             -0.529180105177620E+02
             -0.606947496482499E+02
             -0.572040432155617E+01
              0.501584027954907E+02
             -0.222794664311128E+02
              0.108238746605751E+03
             -0.437435705538285E+02
              0.147014398550265E+02
             -0.224008686364680E+02
             -0.720209405471682E+02
              0.171175845376877E+01
             -0.503400551048328E+02
             -0.762775931016179E+02
              0.622375061356865E+01
              0.236414620211201E+01
              0.515582594186861E+02
              0.188241620429919E+02
             -0.324662108454770E+02
              0.230522893047435E+02
             -0.814070033847169E+02
             -0.522782127459448E+02
              0.904397239757291E+02
              0.142047805961902E+02
             -0.187710415611596E+02
             -0.352882374607104E+02
             -0.270380225968177E+01
             -0.592556935596679E+01
              0.833395677883492E+02
              0.419025211063865E+02
             -0.165899507404513E+02
             -0.121416062392899E+02
             -0.428571747296421E+02
             -0.200670638845411E+02
             -0.671477898212675E+02
              0.461240842574683E+02
              0.548444266666033E+01
              0.144835639703973E+02
              0.156979189387516E+02
             -0.626580958779012E+00
             -0.169259070951858E+02
             -0.298966863608820E+01
             -0.100779682174600E+03
             -0.229981245846788E+02
             -0.770357234548646E+01
             -0.948903584685445E+01
              0.547262316762213E+02
              0.625919629996600E+02
              0.165433887839805E+02
             -0.973211146945108E+02
              0.649230354680282E+02
             -0.215663985907987E+02
             -0.378056076429733E+02
             -0.866744363570194E+02
             -0.387329212318772E+02
              0.566807117102358E+02
              0.245534945232663E+02
              0.519921479292185E+01
              0.293479411261682E+02
             -0.566456497269401E+02
             -0.424011159656213E+02
              0.517223020640776E+02
              0.388431819406694E+02
              0.519981399980506E+02
             -0.113020048587768E+01
              0.690167817152337E+01
              0.570962979984236E+02
              0.965486856252241E+02
             -0.300380712698793E+02
              0.324230961017920E+02
             -0.120355795523008E+02
             -0.413435052553694E+02
             -0.315448114679879E+02
             -0.301524869809401E+02
             -0.131739607629133E+02
             -0.524639386023301E+02
             -0.217383786642146E+02
             -0.141515806889467E+03
              0.369747418318822E+02
              0.207784074133507E+02
             -0.396348233624619E+01
             -0.380937474880020E+02
             -0.204468224195534E+02
             -0.528635371317860E+02
              0.151177662618549E+02
              0.822175543937955E+02
             -0.252733156381490E+02
             -0.163615551011257E+02
              0.238761438662196E+02
             -0.491050990381614E+02
              0.882742529487257E+02
              0.154618744179342E+02
              0.226051146033450E+02
              0.491505311959789E+02
              0.314434991773874E+01
              0.543726127711906E+02
              0.143754393814582E+02
             -0.106169768256306E+02
              0.735013279540834E+01
              0.718312873768696E+00
              0.728694700124853E+02
              0.101388488551277E+02
              0.121465258909992E+02
             -0.130476272126369E+02
              0.132675093568891E+02
             -0.913809669590010E+02
             -0.326629390275425E+02
             -0.458972780573384E+02
              0.486321505321741E+02
             -0.292266484202064E+02
             -0.659659505217180E+02
              0.540250555816053E+02
             -0.122276212494223E+02
              0.441033057655823E+02
             -0.901123290097863E+02
              0.232024138081763E+02
              0.856685766181843E+01
              0.586566491889596E+01
             -0.838187091312813E+01
             -0.906891341606490E+01
              0.480892708309315E+02
              0.200902715034658E+01
             -0.476909547688419E+02
             -0.176943444051786E+02
              0.276860270514378E+02
             -0.118245079856788E+03
             -0.931867909449466E+02
              0.395412704752442E+01
              0.118390276814025E+02
             -0.415015078411207E+02
             -0.386343854736305E+01
              0.112365106589745E+03
              0.306930114698517E+02
             -0.572971550696436E+02
              0.927400639604190E+01
             -0.968430256841113E+01
              0.106180583856077E+02
             -0.338911773193952E+02
              0.196410947446268E+02
              0.285172246825571E+02
             -0.301490809295063E+01
              0.108500273822400E+03
             -0.140109508281545E+02
             -0.316791780784611E+02
              0.144263110968536E+02
              0.467830196190038E+02
             -0.356519067856581E+02
             -0.317381886606429E+01
              0.967702456908179E+02
             -0.463910362510160E+01
              0.623159494321407E+02
              0.135922018589297E+02
             -0.900835904744885E+01
             -0.305533624431071E+02
              0.567553759927045E+02
             -0.516048439212080E+02
             -0.219877304799024E+01
             -0.170790415443902E+02
             -0.406155900964514E+02
              0.185284033150842E+02
              0.240252935386705E+02
              0.115762153933015E+02
              0.725025207819613E+00
             -0.385908685562410E+02
              0.215579741337549E+02
             -0.674575098023152E+01
             -0.246904317181119E+02
             -0.211003696265537E+02
              0.203365765073376E+02
             -0.596006174979186E+01
             -0.350335717585328E+02
             -0.106957366811557E+03
              0.103279383529214E+02
              0.248680198128543E+02
             -0.388848531622799E+02
             -0.211749888309928E+02
              0.809449790470940E+02
              0.658810349852098E+01
              0.312436407024735E+02
              0.396323484024109E+01
              0.323181234992592E+02
              0.646881305161736E+01
             -0.374039949110111E+02
             -0.241896759137182E+01
              0.876468839438098E+01
              0.275037502616958E+02
              0.783581745438697E+02
              0.508829389257871E+02
              0.204532999546643E+00
              0.169621863127510E+02
              0.614969912597046E+02
              0.236813888999474E+02
             -0.754507271085327E+02
             -0.274577461601889E+02
              0.151093626634934E+02
              0.564984056927784E+01
              0.255658089969689E+02
             -0.549103864776651E+02
              0.897134242529565E+01
              0.387407108130761E+02
              0.499332188940270E+02
             -0.436018564305301E+02
             -0.684775065220276E+01
             -0.209492217798652E+01
             -0.134554548820710E+02
             -0.365933088355140E+02
             -0.215332474785508E+02
             -0.212011169617283E+01
              0.797826956906238E+01
              0.422630757133428E+02
             -0.309279382540224E+02
              0.828464085512276E+02
              0.328369895141274E+02
              0.220695527606539E+02
              0.334325794639694E+02
              0.323499493908800E+02
              0.347564795308821E+02
              0.538729920146336E+02
             -0.435276723299710E+02
              0.621356543125168E+02
             -0.112617887590190E+03
              0.308210182723328E+02
             -0.106811537485804E+03
              0.856894398217172E+02
              0.693016437687560E+02
             -0.110017433108110E+02
             -0.494396150641664E+02
             -0.430850106962623E+02
             -0.624845362954375E+02
             -0.630760670790148E+02
              0.553455299360758E+02
              0.406597364897286E+02
              0.237487590224294E+02
              0.374164946043996E+02
              0.404845363762903E+02
             -0.383359041571733E+02
             -0.198152360464185E+02
              0.587917417195505E+02
             -0.116435897679830E+02
              0.553254296628924E+02
              0.701793709679025E+02
             -0.557284178473143E+01
             -0.708536483097015E+02
             -0.844695537012058E+00
             -0.247736800891833E+01
             -0.885880567794163E+01
             -0.179796137269756E+01
             -0.654589317075264E+02
             -0.210415780865029E+02
              0.545789282917191E+01
              0.907073961765462E+01
              0.470473356842524E+02
             -0.399153892002309E+02
              0.658239521986044E+02
             -0.426354971784727E+02
              0.211490730583438E+02
              0.351656427217120E+02
 
 BEEF-vdW xc energy contributions
           1 :   -784.762525845046     
           2 :    720.694669789444     
           3 :   -609.811933142453     
           4 :    479.349668344769     
           5 :   -356.945470286201     
           6 :    262.497650534259     
           7 :   -203.671795225388     
           8 :    175.886299629872     
           9 :   -166.356812512552     
          10 :    160.303416932062     
          11 :   -146.790153475625     
          12 :    121.993369244787     
          13 :   -89.0426078608568     
          14 :    55.0698382052942     
          15 :   -27.1734393627517     
          16 :    9.12176661071635     
          17 :  -7.142605454509976E-002
          18 :   -4.44465714644821     
          19 :    9.98343258906777     
          20 :   -20.4536305807037     
          21 :    36.4355218794049     
          22 :   -55.2131503445348     
          23 :    72.3255897541234     
          24 :   -83.7944861788012     
          25 :    87.9362840004605     
          26 :   -85.9606039713871     
          27 :    81.1786872809530     
          28 :   -77.3035530243586     
          29 :    76.6923619786795     
          30 :   -79.3539917490344     
          31 :   -86.1927702352472     
          32 :   -66.0139396045714     

     Writing output data file ./pwscf.save/
 
     init_run     :    370.43s CPU    375.38s WALL (       1 calls)
     electrons    :  14621.04s CPU  14752.74s WALL (       1 calls)
     forces       :    105.06s CPU    106.30s WALL (       1 calls)

     Called by init_run:
     wfcinit      :    322.94s CPU    326.86s WALL (       1 calls)
     potinit      :     44.31s CPU     44.66s WALL (       1 calls)
     hinit0       :      1.15s CPU      1.20s WALL (       1 calls)

     Called by electrons:
     c_bands      :  12197.55s CPU  12300.06s WALL (      21 calls)
     sum_band     :   1746.14s CPU   1758.92s WALL (      21 calls)
     v_of_rho     :    112.52s CPU    116.96s WALL (      21 calls)
     newd         :     32.44s CPU     44.50s WALL (      21 calls)
     PAW_pot      :    140.04s CPU    140.05s WALL (      21 calls)
     mix_rho      :    437.54s CPU    438.28s WALL (      21 calls)
     vdW_kernel   :     33.47s CPU     33.47s WALL (       1 calls)

     Called by c_bands:
     init_us_2    :     85.35s CPU     85.64s WALL (     572 calls)
     cegterg      :  11333.84s CPU  11435.81s WALL (     273 calls)

     Called by *egterg:
     cdiaghg      :    107.19s CPU    107.23s WALL (    1683 calls)
     h_psi        :   7342.08s CPU   7378.33s WALL (    1709 calls)
     s_psi        :   1195.22s CPU   1195.32s WALL (    1709 calls)
     g_psi        :     17.63s CPU     17.65s WALL (    1423 calls)

     Called by h_psi:
     h_psi:calbec :   1109.43s CPU   1109.66s WALL (    1709 calls)
     vloc_psi     :   5009.05s CPU   5010.64s WALL (    1709 calls)
     add_vuspsi   :   1195.54s CPU   1195.73s WALL (    1709 calls)

     General routines
     calbec       :   1629.26s CPU   1629.51s WALL (    2034 calls)
     fft          :     52.97s CPU     53.00s WALL (    3281 calls)
     ffts         :    142.67s CPU    142.70s WALL (    9356 calls)
     fftw         :   5108.84s CPU   5109.83s WALL (  351371 calls)
 
     Parallel routines
 
     PWSCF        :      4h13m CPU      4h15m WALL

 
   This run was terminated on:   2:49: 9   4Jan2023            

=------------------------------------------------------------------------------=
   JOB DONE.
=------------------------------------------------------------------------------=
