
     Program PWSCF v.6.7MaX starts on 20Dec2022 at 15:44:30 

     This program is part of the open-source Quantum ESPRESSO suite
     for quantum simulation of materials; please cite
         "P. Giannozzi et al., J. Phys.:Condens. Matter 21 395502 (2009);
         "P. Giannozzi et al., J. Phys.:Condens. Matter 29 465901 (2017);
          URL http://www.quantum-espresso.org", 
     in publications or presentations arising from this work. More details at
     http://www.quantum-espresso.org/quote

     Parallel version (MPI), running on     1 processors

     MPI processes distributed on     1 nodes
     Reading input from ch2ch2-ensemble.in
Warning: card &CELL ignored
Warning: card / ignored

     Current dimensions of program PWSCF are:
     Max number of different atomic species (ntypx) = 10
     Max number of k-points (npk) =  40000
     Max angular momentum in pseudopotentials (lmaxx) =  3
     file Pt.pbe-n-kjpaw_psl.1.0.0.UPF: wavefunction(s)  6S 5D renormalized
     file C.pbe-n-kjpaw_psl.1.0.0.UPF: wavefunction(s)  2S 2P renormalized
     file H.pbe-kjpaw_psl.1.0.0.UPF: wavefunction(s)  1S renormalized

     **************************************************************************
     Initializing libbeef V0.1.2 with the BEEF-vdW functional.
     Citation: Wellendorff et al., PRB 85, 235149 (2012).
     **************************************************************************


     IMPORTANT: XC functional enforced from input :
     Exchange-correlation= BEEF-VDW
                           (   1   4  43  14   2   0   0)
     Any further DFT definition will be discarded
     Please, verify this is what you really want


     Subspace diagonalization in iterative solution of the eigenvalue problem:
     a serial algorithm will be used

 
     G-vector sticks info
     --------------------
     sticks:   dense  smooth     PW     G-vecs:    dense   smooth      PW
     Sum        4267    4267   1159               701017   701017   98919
 


     bravais-lattice index     =            0
     lattice parameter (alat)  =      16.0349  a.u.
     unit-cell volume          =   11158.0003 (a.u.)^3
     number of atoms/cell      =           42
     number of atomic types    =            3
     number of electrons       =       372.00
     number of Kohn-Sham states=          223
     kinetic-energy cutoff     =      60.0000  Ry
     charge density cutoff     =     240.0000  Ry
     scf convergence threshold =      1.0E-06
     mixing beta               =       0.7000
     number of iterations used =            8  local-TF  mixing
     Exchange-correlation= BEEF-VDW
                           (   1   4  43  14   2   0   0)

     celldm(1)=  16.034858  celldm(2)=   0.000000  celldm(3)=   0.000000
     celldm(4)=   0.000000  celldm(5)=   0.000000  celldm(6)=   0.000000

     crystal axes: (cart. coord. in units of alat)
               a(1) = (   1.000000   0.000000   0.000000 )  
               a(2) = (   0.500000   0.866025   0.000000 )  
               a(3) = (   0.000000   0.000000   3.125075 )  

     reciprocal axes: (cart. coord. in units 2 pi/alat)
               b(1) = (  1.000000 -0.577350  0.000000 )  
               b(2) = (  0.000000  1.154701  0.000000 )  
               b(3) = (  0.000000  0.000000  0.319992 )  


     PseudoPot. # 1 for Pt read from file:
     /users/bkreitz1/quantum-espresso/potentials/Pt.pbe-n-kjpaw_psl.1.0.0.UPF
     MD5 check sum: 04dc8a03c51ece93fc7b5889c2958091
     Pseudo is Projector augmented-wave + core cor, Zval = 10.0
     Generated using 'atomic' code by A. Dal Corso  v.6.7MaX
     Shape of augmentation charge: PSQ
     Using radial grid of 1277 points,  6 beta functions with: 
                l(1) =   0
                l(2) =   0
                l(3) =   1
                l(4) =   1
                l(5) =   2
                l(6) =   2
     Q(r) pseudized with 0 coefficients 


     PseudoPot. # 2 for C  read from file:
     /users/bkreitz1/quantum-espresso/potentials/C.pbe-n-kjpaw_psl.1.0.0.UPF
     MD5 check sum: a169b0ebad56f5ec0d79c4633f80bf22
     Pseudo is Projector augmented-wave + core cor, Zval =  4.0
     Generated using 'atomic' code by A. Dal Corso  v.6.7MaX
     Shape of augmentation charge: PSQ
     Using radial grid of 1073 points,  4 beta functions with: 
                l(1) =   0
                l(2) =   0
                l(3) =   1
                l(4) =   1
     Q(r) pseudized with 0 coefficients 


     PseudoPot. # 3 for H  read from file:
     /users/bkreitz1/quantum-espresso/potentials/H.pbe-kjpaw_psl.1.0.0.UPF
     MD5 check sum: ae98473e6dc62675f0d0baffdab24f65
     Pseudo is Projector augmented-wave, Zval =  1.0
     Generated using 'atomic' code by A. Dal Corso  v.6.7MaX
     Shape of augmentation charge: PSQ
     Using radial grid of  929 points,  2 beta functions with: 
                l(1) =   0
                l(2) =   0
     Q(r) pseudized with 0 coefficients 


     atomic species   valence    mass     pseudopotential
        Pt            10.00   195.08400     Pt( 1.00)
        C              4.00    12.01100     C ( 1.00)
        H              1.00     1.00800     H ( 1.00)

     No symmetry found



   Cartesian axes

     site n.     atom                  positions (alat units)
         1           Pt  tau(   1) = (   0.0000000   0.0000000   1.0017346  )
         2           Pt  tau(   2) = (   0.3333333   0.0000000   1.0017346  )
         3           Pt  tau(   3) = (   0.6666667   0.0000000   1.0017346  )
         4           Pt  tau(   4) = (   0.1666667   0.2886751   1.0017346  )
         5           Pt  tau(   5) = (   0.5000000   0.2886751   1.0017346  )
         6           Pt  tau(   6) = (   0.8333333   0.2886751   1.0017346  )
         7           Pt  tau(   7) = (   0.3333333   0.5773503   1.0017346  )
         8           Pt  tau(   8) = (   0.6666667   0.5773503   1.0017346  )
         9           Pt  tau(   9) = (   1.0000000   0.5773503   1.0017346  )
        10           Pt  tau(  10) = (   0.1666667   0.0962250   1.2739001  )
        11           Pt  tau(  11) = (   0.5000000   0.0962250   1.2739001  )
        12           Pt  tau(  12) = (   0.8333333   0.0962250   1.2739001  )
        13           Pt  tau(  13) = (   0.3333333   0.3849002   1.2739001  )
        14           Pt  tau(  14) = (   0.6666667   0.3849002   1.2739001  )
        15           Pt  tau(  15) = (   1.0000000   0.3849002   1.2739001  )
        16           Pt  tau(  16) = (   0.5000000   0.6735753   1.2739001  )
        17           Pt  tau(  17) = (   0.8333333   0.6735753   1.2739001  )
        18           Pt  tau(  18) = (   1.1666667   0.6735753   1.2739001  )
        19           Pt  tau(  19) = (   0.0022145   0.1945398   1.5473295  )
        20           Pt  tau(  20) = (   0.3331968   0.1924577   1.5445798  )
        21           Pt  tau(  21) = (   0.6640827   0.1945444   1.5473812  )
        22           Pt  tau(  22) = (   0.1669758   0.4787279   1.5450065  )
        23           Pt  tau(  23) = (   0.4994278   0.4787260   1.5450582  )
        24           Pt  tau(  24) = (   0.8331851   0.4803280   1.5428559  )
        25           Pt  tau(  25) = (   0.3331840   0.7710745   1.5402517  )
        26           Pt  tau(  26) = (   0.6657242   0.7688987   1.5409512  )
        27           Pt  tau(  27) = (   1.0007057   0.7689276   1.5409448  )
        28           Pt  tau(  28) = (  -0.0004006   0.0006328   1.8155308  )
        29           Pt  tau(  29) = (   0.3330678  -0.0043580   1.8114803  )
        30           Pt  tau(  30) = (   0.6664109   0.0006622   1.8156609  )
        31           Pt  tau(  31) = (   0.1700329   0.2880375   1.8367602  )
        32           Pt  tau(  32) = (   0.4957874   0.2880994   1.8372310  )
        33           Pt  tau(  33) = (   0.8329437   0.2889149   1.8182667  )
        34           Pt  tau(  34) = (   0.3330130   0.5819650   1.8126144  )
        35           Pt  tau(  35) = (   0.6660822   0.5763291   1.8157854  )
        36           Pt  tau(  36) = (   0.9999696   0.5763465   1.8157191  )
        37           C   tau(  37) = (   0.2449542   0.2876633   2.0759899  )
        38           C   tau(  38) = (   0.4200445   0.2882827   2.0759852  )
        39           H   tau(  39) = (   0.1916502   0.1805063   2.1225866  )
        40           H   tau(  40) = (   1.1908225   0.3938115   2.1238108  )
        41           H   tau(  41) = (   0.4738175   0.1816770   2.1234294  )
        42           H   tau(  42) = (   0.4730828   0.3950394   2.1250342  )

     number of k points=    13  Marzari-Vanderbilt smearing, width (Ry)=  0.0200
                       cart. coord. in units 2pi/alat
        k(    1) = (   0.0000000   0.0000000   0.0000000), wk =   0.0800000
        k(    2) = (   0.0000000   0.2309401   0.0000000), wk =   0.1600000
        k(    3) = (   0.0000000   0.4618802   0.0000000), wk =   0.1600000
        k(    4) = (   0.2000000  -0.1154701   0.0000000), wk =   0.1600000
        k(    5) = (   0.2000000   0.1154701   0.0000000), wk =   0.1600000
        k(    6) = (   0.2000000   0.3464102   0.0000000), wk =   0.1600000
        k(    7) = (   0.2000000  -0.5773503   0.0000000), wk =   0.1600000
        k(    8) = (   0.2000000  -0.3464102   0.0000000), wk =   0.1600000
        k(    9) = (   0.4000000  -0.2309401   0.0000000), wk =   0.1600000
        k(   10) = (   0.4000000  -0.0000000   0.0000000), wk =   0.1600000
        k(   11) = (   0.4000000   0.2309401   0.0000000), wk =   0.1600000
        k(   12) = (   0.4000000  -0.6928203   0.0000000), wk =   0.1600000
        k(   13) = (   0.4000000  -0.4618802   0.0000000), wk =   0.1600000

     Dense  grid:   701017 G-vectors     FFT dimensions: (  80,  80, 250)

     Estimated max dynamical RAM per process >       8.44 GB

     Check: negative core charge=   -0.000002

     Initial potential from superposition of free atoms

     starting charge  371.99377, renormalised to  372.00000

     negative rho (up, down):  1.115E-02 0.000E+00


     %%%%%%%%%%%%%%%%%%%%%%%%%%%%%%%%%%%%%%%%%%%%%%%%%%%%%%%%%%%%%%%%%%%%%%%%
     %                                                                      %
     % You are using vdW-DF, which was implemented by the Thonhauser group. %
     % Please cite the following two papers that made this development      %
     % possible and the two reviews that describe the various versions:     %
     %                                                                      %
     %   T. Thonhauser et al., PRL 115, 136402 (2015).                      %
     %   T. Thonhauser et al., PRB 76, 125112 (2007).                       %
     %   K. Berland et al., Rep. Prog. Phys. 78, 066501 (2015).             %
     %   D.C. Langreth et al., J. Phys.: Condens. Matter 21, 084203 (2009). %
     %                                                                      %
     %                                                                      %
     % If you are calculating the stress with vdW-DF, please also cite:     %
     %                                                                      %
     %   R. Sabatini et al., J. Phys.: Condens. Matter 24, 424209 (2012).   %
     %                                                                      %
     %%%%%%%%%%%%%%%%%%%%%%%%%%%%%%%%%%%%%%%%%%%%%%%%%%%%%%%%%%%%%%%%%%%%%%%%


     Starting wfcs are  336 randomized atomic wfcs
     Checking if some PAW data can be deallocated... 

     total cpu time spent up to now is      307.0 secs

     Self-consistent Calculation

     iteration #  1     ecut=    60.00 Ry     beta= 0.70
     Davidson diagonalization with overlap
     ethr =  1.00E-02,  avg # of iterations =  2.1

     Threshold (ethr) on eigenvalues was too large:
     Diagonalizing with lowered threshold

     Davidson diagonalization with overlap
     ethr =  7.73E-04,  avg # of iterations =  2.8

     negative rho (up, down):  1.158E-02 0.000E+00

     total cpu time spent up to now is     1583.6 secs

     total energy              =  -27796.90719495 Ry
     estimated scf accuracy    <       3.13514335 Ry

     iteration #  2     ecut=    60.00 Ry     beta= 0.70
     Davidson diagonalization with overlap
     ethr =  8.43E-04,  avg # of iterations =  2.0

     negative rho (up, down):  9.540E-03 0.000E+00

     total cpu time spent up to now is     2116.5 secs

     total energy              =  -27797.05290919 Ry
     estimated scf accuracy    <       1.26383675 Ry

     iteration #  3     ecut=    60.00 Ry     beta= 0.70
     Davidson diagonalization with overlap
     ethr =  3.40E-04,  avg # of iterations =  2.5

     negative rho (up, down):  6.395E-03 0.000E+00

     total cpu time spent up to now is     2693.9 secs

     total energy              =  -27797.10153963 Ry
     estimated scf accuracy    <       0.44837503 Ry

     iteration #  4     ecut=    60.00 Ry     beta= 0.70
     Davidson diagonalization with overlap
     c_bands:  1 eigenvalues not converged
     ethr =  1.21E-04,  avg # of iterations = 12.8

     negative rho (up, down):  4.985E-03 0.000E+00

     total cpu time spent up to now is     3484.8 secs

     total energy              =  -27797.15967165 Ry
     estimated scf accuracy    <       0.27943828 Ry

     iteration #  5     ecut=    60.00 Ry     beta= 0.70
     Davidson diagonalization with overlap
     ethr =  7.51E-05,  avg # of iterations =  2.0

     negative rho (up, down):  3.295E-03 0.000E+00

     total cpu time spent up to now is     4056.3 secs

     total energy              =  -27797.16761914 Ry
     estimated scf accuracy    <       0.04384966 Ry

     iteration #  6     ecut=    60.00 Ry     beta= 0.70
     Davidson diagonalization with overlap
     ethr =  1.18E-05,  avg # of iterations =  7.5

     negative rho (up, down):  2.845E-03 0.000E+00

     total cpu time spent up to now is     4838.3 secs

     total energy              =  -27797.17933738 Ry
     estimated scf accuracy    <       0.00909290 Ry

     iteration #  7     ecut=    60.00 Ry     beta= 0.70
     Davidson diagonalization with overlap
     c_bands:  2 eigenvalues not converged
     c_bands:  1 eigenvalues not converged
     c_bands:  1 eigenvalues not converged
     c_bands:  1 eigenvalues not converged
     ethr =  2.44E-06,  avg # of iterations = 13.4

     negative rho (up, down):  2.865E-03 0.000E+00

     total cpu time spent up to now is     5605.6 secs

     total energy              =  -27797.18086555 Ry
     estimated scf accuracy    <       0.00506958 Ry

     iteration #  8     ecut=    60.00 Ry     beta= 0.70
     Davidson diagonalization with overlap
     ethr =  1.36E-06,  avg # of iterations =  6.0

     negative rho (up, down):  3.142E-03 0.000E+00

     total cpu time spent up to now is     6156.8 secs

     total energy              =  -27797.18122711 Ry
     estimated scf accuracy    <       0.00299233 Ry

     iteration #  9     ecut=    60.00 Ry     beta= 0.70
     Davidson diagonalization with overlap
     c_bands:  1 eigenvalues not converged
     ethr =  8.04E-07,  avg # of iterations =  7.3

     negative rho (up, down):  4.105E-03 0.000E+00

     total cpu time spent up to now is     6709.1 secs

     total energy              =  -27797.18146156 Ry
     estimated scf accuracy    <       0.00109711 Ry

     iteration # 10     ecut=    60.00 Ry     beta= 0.70
     Davidson diagonalization with overlap
     ethr =  2.95E-07,  avg # of iterations =  8.2

     negative rho (up, down):  4.731E-03 0.000E+00

     total cpu time spent up to now is     7288.2 secs

     total energy              =  -27797.18156181 Ry
     estimated scf accuracy    <       0.00058049 Ry

     iteration # 11     ecut=    60.00 Ry     beta= 0.70
     Davidson diagonalization with overlap
     ethr =  1.56E-07,  avg # of iterations =  2.0

     negative rho (up, down):  6.941E-03 0.000E+00

     total cpu time spent up to now is     7802.6 secs

     total energy              =  -27797.18160972 Ry
     estimated scf accuracy    <       0.00051913 Ry

     iteration # 12     ecut=    60.00 Ry     beta= 0.70
     Davidson diagonalization with overlap
     ethr =  1.40E-07,  avg # of iterations =  2.9

     negative rho (up, down):  7.873E-03 0.000E+00

     total cpu time spent up to now is     8314.3 secs

     total energy              =  -27797.18161274 Ry
     estimated scf accuracy    <       0.00026637 Ry

     iteration # 13     ecut=    60.00 Ry     beta= 0.70
     Davidson diagonalization with overlap
     ethr =  7.16E-08,  avg # of iterations =  2.0

     negative rho (up, down):  1.175E-02 0.000E+00

     total cpu time spent up to now is     8832.9 secs

     total energy              =  -27797.18158998 Ry
     estimated scf accuracy    <       0.00023610 Ry

     iteration # 14     ecut=    60.00 Ry     beta= 0.70
     Davidson diagonalization with overlap
     ethr =  6.35E-08,  avg # of iterations =  2.1

     negative rho (up, down):  1.205E-02 0.000E+00

     total cpu time spent up to now is     9347.8 secs

     total energy              =  -27797.18159944 Ry
     estimated scf accuracy    <       0.00008427 Ry

     iteration # 15     ecut=    60.00 Ry     beta= 0.70
     Davidson diagonalization with overlap
     ethr =  2.27E-08,  avg # of iterations =  2.3

     negative rho (up, down):  1.216E-02 0.000E+00

     total cpu time spent up to now is     9886.2 secs

     total energy              =  -27797.18160737 Ry
     estimated scf accuracy    <       0.00001687 Ry

     iteration # 16     ecut=    60.00 Ry     beta= 0.70
     Davidson diagonalization with overlap
     ethr =  4.54E-09,  avg # of iterations =  5.1

     negative rho (up, down):  1.227E-02 0.000E+00

     total cpu time spent up to now is    10698.2 secs

     total energy              =  -27797.18161554 Ry
     estimated scf accuracy    <       0.00000666 Ry

     iteration # 17     ecut=    60.00 Ry     beta= 0.70
     Davidson diagonalization with overlap
     ethr =  1.79E-09,  avg # of iterations =  3.2

     negative rho (up, down):  1.209E-02 0.000E+00

     total cpu time spent up to now is    11280.5 secs

     total energy              =  -27797.18161717 Ry
     estimated scf accuracy    <       0.00000394 Ry

     iteration # 18     ecut=    60.00 Ry     beta= 0.70
     Davidson diagonalization with overlap
     ethr =  1.06E-09,  avg # of iterations =  1.7

     negative rho (up, down):  1.229E-02 0.000E+00

     total cpu time spent up to now is    11766.8 secs

     End of self-consistent calculation

          k = 0.0000 0.0000 0.0000 ( 87759 PWs)   bands (ev):

   -12.2791  -8.2941  -6.7098  -5.4376  -4.8643  -4.4133  -4.3220  -4.3029
    -4.2964  -4.2957  -4.2738  -4.2729  -4.2540  -3.9650  -3.7502  -3.7497
    -3.7327  -3.7299  -3.7233  -3.7048  -3.2915  -3.2771  -3.2737  -3.2717
    -3.2497  -3.2175  -3.0879  -3.0582  -3.0579  -3.0461  -3.0441  -3.0349
    -2.8536  -2.8378  -2.8304  -2.8233  -2.8195  -2.8144  -2.7980  -2.7890
    -2.7742  -2.7733  -2.7715  -2.7562  -2.5158  -2.4484  -2.2109  -2.2072
    -2.1950  -2.1789  -2.1556  -2.1418  -2.1163  -2.0888  -2.0725  -2.0628
    -1.9766  -1.9572  -1.9123  -1.8428  -1.4604  -1.4306  -1.3899  -1.3730
    -1.3663  -1.3518  -1.3109  -1.2201  -1.2181  -1.2094  -1.2050  -1.1912
    -1.1876  -1.1828  -1.1691  -1.1535  -1.1482  -1.1306  -1.1277  -1.1032
    -1.0858  -1.0598  -1.0417  -0.9958  -0.9816  -0.9623  -0.9619  -0.8672
    -0.8234  -0.8018  -0.7985  -0.7771  -0.7594  -0.7397  -0.7222  -0.7146
    -0.6767  -0.6701  -0.6322  -0.6311  -0.5495  -0.5475  -0.5114  -0.5089
    -0.4991  -0.4661  -0.3805  -0.3573  -0.3492  -0.3322  -0.3308  -0.3084
    -0.0077  -0.0027   0.0891   0.1007   0.1170   0.1276   0.1492   0.1577
     0.1668   0.2028   0.2657   0.2806   0.2896   0.3129   0.3190   0.3883
     0.4138   0.4444   0.4577   0.5136   0.5737   0.5775   0.5865   0.6349
     0.6384   0.6401   0.6604   0.7113   0.8486   0.8738   0.8850   0.8969
     0.9001   0.9022   0.9395   0.9505   1.1307   1.1398   1.1408   1.1490
     1.1983   1.2059   1.2844   1.3056   1.3087   1.3209   1.3251   1.3331
     1.3465   1.3546   1.3554   1.3726   1.3789   1.4248   1.4494   1.4519
     1.4727   1.4887   1.5011   1.5083   1.5602   1.5695   1.5704   1.5835
     1.5894   1.5991   1.6073   1.6256   1.6427   1.6926   1.7025   1.7061
     1.7282   1.7327   1.7409   1.7555   1.7961   1.8240   1.8267   1.8537
     1.8542   2.0137   2.0260   2.1131   2.1258   2.1436   2.1629   2.1690
     2.1739   2.4026   2.6894   2.9423   3.0153   3.0422   3.0536   3.0719
     4.3616   4.4391   5.2736   5.3251   5.3565   5.3622   6.0945   6.1284
     6.4773   6.9260   6.9545   6.9585   6.9837   6.9910   7.0077

          k = 0.0000 0.2309 0.0000 ( 87548 PWs)   bands (ev):

   -12.2790  -8.2941  -6.5633  -5.2969  -4.8716  -4.8022  -4.4018  -4.4012
    -4.2852  -4.1662  -4.1011  -4.0578  -4.0486  -3.9769  -3.8349  -3.7812
    -3.6835  -3.6704  -3.6572  -3.6503  -3.3707  -3.2445  -3.2381  -3.2308
    -3.1800  -3.1598  -3.1409  -3.0998  -3.0938  -3.0644  -3.0476  -2.9913
    -2.9583  -2.9510  -2.8738  -2.8560  -2.8419  -2.8096  -2.8070  -2.6460
    -2.6246  -2.6161  -2.5889  -2.5820  -2.5154  -2.4576  -2.3316  -2.3310
    -2.2687  -2.2408  -2.2369  -2.1854  -2.1391  -2.0443  -2.0145  -1.9561
    -1.9394  -1.9099  -1.8948  -1.8584  -1.6505  -1.5944  -1.5565  -1.4964
    -1.4915  -1.4719  -1.4090  -1.4025  -1.3689  -1.3506  -1.3415  -1.3340
    -1.2801  -1.2286  -1.2112  -1.2014  -1.1919  -1.1218  -1.1018  -1.0871
    -1.0331  -1.0208  -1.0139  -0.9420  -0.9323  -0.9247  -0.8995  -0.8976
    -0.8472  -0.8361  -0.8077  -0.7949  -0.7784  -0.7364  -0.7095  -0.6893
    -0.6667  -0.6386  -0.6265  -0.5992  -0.5887  -0.5662  -0.5639  -0.5323
    -0.5314  -0.4303  -0.4100  -0.3882  -0.3739  -0.3451  -0.3236  -0.3018
    -0.2981  -0.2668  -0.2540  -0.2384  -0.1882  -0.0516  -0.0290   0.0782
     0.0911   0.1318   0.1774   0.1856   0.1905   0.2017   0.2193   0.3153
     0.3578   0.4229   0.4311   0.4875   0.5394   0.5491   0.5687   0.5833
     0.6241   0.6427   0.7105   0.7227   0.7400   0.7665   0.7760   0.7810
     0.8059   0.9369   0.9492   0.9802   1.0055   1.0158   1.0427   1.0825
     1.1032   1.1490   1.1620   1.1815   1.2257   1.2508   1.2585   1.2910
     1.3045   1.3693   1.3822   1.4372   1.4428   1.4975   1.5072   1.5368
     1.5428   1.5770   1.6023   1.6525   1.6778   1.6868   1.7134   1.7522
     1.7540   1.7690   1.8004   1.8099   1.8171   1.8184   1.8719   1.8787
     2.0048   2.0142   2.0175   2.0577   2.0671   2.0850   2.1046   2.1150
     2.1491   2.1500   2.1616   2.2649   2.2685   2.2888   2.4345   2.4584
     2.4630   2.4864   2.7406   2.8058   3.2279   3.4544   3.6276   3.7451
     4.2696   4.4852   4.8759   5.3710   5.4476   5.7905   5.7948   5.9728
     6.3236   6.3422   6.4990   6.7590   6.8084   6.9319   7.0918

          k = 0.0000 0.4619 0.0000 ( 87568 PWs)   bands (ev):

   -12.2788  -8.2942  -6.1420  -5.5083  -4.9394  -4.8276  -4.4356  -4.4342
    -4.3561  -4.1152  -4.0091  -3.9086  -3.7873  -3.7332  -3.7074  -3.6966
    -3.5611  -3.5478  -3.4972  -3.4929  -3.4656  -3.3655  -3.3246  -3.3238
    -3.2805  -3.2635  -3.2303  -3.1896  -3.1341  -3.1332  -3.0943  -2.8862
    -2.8847  -2.8751  -2.8735  -2.8404  -2.8391  -2.6648  -2.6331  -2.6200
    -2.6086  -2.5888  -2.5548  -2.4962  -2.4819  -2.3683  -2.2910  -2.2821
    -2.2697  -2.2585  -2.2011  -2.1977  -2.1366  -2.1341  -2.1004  -2.0669
    -2.0425  -1.9076  -1.9069  -1.8948  -1.8683  -1.7679  -1.7216  -1.7009
    -1.6713  -1.6444  -1.5438  -1.4979  -1.4855  -1.4847  -1.4495  -1.3830
    -1.3649  -1.3463  -1.3282  -1.2579  -1.2301  -1.2256  -1.1415  -1.1326
    -1.1058  -1.1003  -1.0781  -1.0334  -1.0093  -1.0026  -0.9824  -0.9814
    -0.9621  -0.9520  -0.9252  -0.9001  -0.8430  -0.8271  -0.8196  -0.7922
    -0.7569  -0.7242  -0.6835  -0.6649  -0.6275  -0.6204  -0.5463  -0.5414
    -0.5316  -0.4995  -0.4988  -0.4269  -0.3717  -0.3345  -0.3160  -0.2678
    -0.2610  -0.2435  -0.1293  -0.0913  -0.0786  -0.0575  -0.0138   0.0373
     0.0703   0.0796   0.0945   0.1334   0.1417   0.1890   0.2010   0.2119
     0.2219   0.2343   0.2683   0.2932   0.3156   0.3428   0.4151   0.4263
     0.4561   0.5029   0.5376   0.5855   0.6483   0.6654   0.6919   0.7609
     0.7759   0.8668   0.9236   0.9328   0.9763   0.9926   1.0190   1.0230
     1.0437   1.1006   1.1208   1.1294   1.1784   1.1907   1.2814   1.2820
     1.3028   1.3181   1.3443   1.3866   1.4447   1.4781   1.5687   1.5769
     1.6004   1.6046   1.6515   1.7056   1.7072   1.7392   1.7982   1.8076
     1.8662   1.8767   1.9050   1.9075   1.9924   1.9945   2.0366   2.0514
     2.0600   2.0661   2.1006   2.1067   2.2737   2.2879   2.2950   2.2990
     2.3131   2.4702   2.5339   2.6025   2.7911   2.9696   3.0080   3.3489
     3.3557   3.5355   3.7480   3.7550   4.0926   4.1779   4.2046   4.5689
     4.5706   4.6087   4.7534   4.9055   4.9072   5.1821   5.2311   5.3958
     5.6165   5.8554   6.0984   6.4796   6.4956   6.7591   6.9311

          k = 0.2000-0.1155 0.0000 ( 87548 PWs)   bands (ev):

   -12.2789  -8.2948  -6.5626  -5.2939  -4.8699  -4.7966  -4.4171  -4.3976
    -4.2782  -4.1654  -4.0998  -4.0595  -4.0510  -3.9388  -3.8577  -3.8146
    -3.6796  -3.6644  -3.6609  -3.6369  -3.3667  -3.2477  -3.2380  -3.2299
    -3.2147  -3.1510  -3.1365  -3.0953  -3.0894  -3.0614  -3.0501  -3.0135
    -2.9641  -2.9419  -2.8859  -2.8603  -2.8409  -2.8086  -2.7982  -2.6375
    -2.6269  -2.6101  -2.5996  -2.5821  -2.5266  -2.4409  -2.3293  -2.3052
    -2.2836  -2.2438  -2.2086  -2.1753  -2.1597  -2.0266  -2.0109  -1.9700
    -1.9432  -1.9184  -1.8966  -1.8498  -1.6571  -1.5782  -1.5559  -1.5133
    -1.5069  -1.4589  -1.4084  -1.4034  -1.3722  -1.3538  -1.3434  -1.3274
    -1.2795  -1.2437  -1.2124  -1.1861  -1.1763  -1.1128  -1.1024  -1.0941
    -1.0321  -1.0189  -0.9975  -0.9624  -0.9319  -0.9128  -0.9012  -0.8881
    -0.8434  -0.8291  -0.8146  -0.8006  -0.7751  -0.7484  -0.7135  -0.6803
    -0.6575  -0.6540  -0.6439  -0.6168  -0.5915  -0.5886  -0.5534  -0.5384
    -0.5249  -0.4271  -0.4100  -0.3873  -0.3631  -0.3300  -0.3225  -0.3023
    -0.2834  -0.2624  -0.2529  -0.2350  -0.1514  -0.1343  -0.0092   0.0703
     0.1000   0.1264   0.1633   0.1753   0.1874   0.2000   0.2394   0.3399
     0.3875   0.4013   0.4347   0.4892   0.5145   0.5543   0.5736   0.5803
     0.6260   0.6349   0.6776   0.7092   0.7348   0.7594   0.7796   0.7887
     0.8164   0.9340   0.9538   0.9836   1.0011   1.0106   1.0619   1.0804
     1.1234   1.1393   1.1571   1.1745   1.2196   1.2462   1.2629   1.2844
     1.3127   1.3740   1.3920   1.4307   1.4748   1.4923   1.5167   1.5402
     1.5586   1.5649   1.5833   1.6508   1.6711   1.7021   1.7097   1.7438
     1.7627   1.7784   1.8022   1.8078   1.8152   1.8219   1.8683   1.8758
     1.9913   2.0089   2.0399   2.0510   2.0625   2.0790   2.0898   2.1188
     2.1435   2.1636   2.1727   2.2661   2.2697   2.2909   2.4138   2.4517
     2.4628   2.4746   2.7481   2.8487   3.1918   3.5326   3.6227   3.7346
     4.1179   4.6413   4.8481   5.2540   5.5605   5.7873   5.7952   6.0202
     6.1400   6.3338   6.6635   6.7541   6.8408   6.9368   6.9964

          k = 0.2000 0.1155 0.0000 ( 87548 PWs)   bands (ev):

   -12.2789  -8.2948  -6.5626  -5.2939  -4.8698  -4.7962  -4.4172  -4.3982
    -4.2782  -4.1654  -4.0989  -4.0596  -4.0518  -3.9389  -3.8577  -3.8148
    -3.6794  -3.6640  -3.6605  -3.6369  -3.3669  -3.2476  -3.2381  -3.2298
    -3.2141  -3.1514  -3.1366  -3.0954  -3.0894  -3.0612  -3.0499  -3.0132
    -2.9644  -2.9420  -2.8856  -2.8595  -2.8410  -2.8089  -2.7984  -2.6374
    -2.6265  -2.6105  -2.5994  -2.5825  -2.5277  -2.4408  -2.3297  -2.3053
    -2.2835  -2.2439  -2.2088  -2.1760  -2.1588  -2.0264  -2.0110  -1.9701
    -1.9428  -1.9186  -1.8966  -1.8500  -1.6582  -1.5780  -1.5559  -1.5144
    -1.5076  -1.4597  -1.4077  -1.4037  -1.3720  -1.3531  -1.3429  -1.3270
    -1.2795  -1.2439  -1.2131  -1.1862  -1.1769  -1.1109  -1.1014  -1.0925
    -1.0325  -1.0193  -0.9975  -0.9626  -0.9324  -0.9141  -0.9003  -0.8892
    -0.8441  -0.8288  -0.8142  -0.8003  -0.7750  -0.7487  -0.7135  -0.6800
    -0.6586  -0.6530  -0.6435  -0.6169  -0.5918  -0.5882  -0.5529  -0.5378
    -0.5253  -0.4272  -0.4104  -0.3864  -0.3631  -0.3299  -0.3222  -0.3020
    -0.2835  -0.2627  -0.2528  -0.2352  -0.1504  -0.1356  -0.0087   0.0694
     0.1002   0.1268   0.1633   0.1753   0.1876   0.2001   0.2394   0.3401
     0.3874   0.4015   0.4349   0.4898   0.5151   0.5532   0.5746   0.5804
     0.6261   0.6346   0.6780   0.7089   0.7351   0.7592   0.7795   0.7884
     0.8168   0.9338   0.9545   0.9840   1.0010   1.0106   1.0617   1.0803
     1.1231   1.1390   1.1570   1.1748   1.2192   1.2461   1.2630   1.2843
     1.3127   1.3740   1.3917   1.4306   1.4750   1.4926   1.5164   1.5406
     1.5589   1.5649   1.5834   1.6512   1.6710   1.7021   1.7097   1.7439
     1.7627   1.7785   1.8020   1.8078   1.8154   1.8218   1.8686   1.8762
     1.9915   2.0085   2.0406   2.0509   2.0624   2.0786   2.0894   2.1181
     2.1433   2.1626   2.1724   2.2660   2.2698   2.2909   2.4141   2.4514
     2.4629   2.4741   2.7473   2.8483   3.1915   3.5334   3.6235   3.7341
     4.1180   4.6410   4.8480   5.2531   5.5612   5.7874   5.7953   6.0192
     6.1406   6.3335   6.6642   6.7545   6.8417   6.9371   6.9964

          k = 0.2000 0.3464 0.0000 ( 87552 PWs)   bands (ev):

   -12.2788  -8.2948  -6.2780  -5.0628  -5.0465  -5.0302  -4.8518  -4.1645
    -3.9822  -3.9723  -3.9670  -3.9473  -3.9050  -3.9035  -3.8875  -3.8155
    -3.7773  -3.7317  -3.4190  -3.4082  -3.3911  -3.3843  -3.3098  -3.2890
    -3.1653  -3.1521  -3.1425  -3.1255  -3.1002  -3.0510  -2.9982  -2.9838
    -2.9771  -2.9535  -2.9040  -2.8870  -2.8727  -2.8419  -2.8223  -2.7467
    -2.5674  -2.5406  -2.4575  -2.3981  -2.3887  -2.3588  -2.3447  -2.3318
    -2.2946  -2.2759  -2.2442  -2.1919  -2.1091  -2.0898  -2.0650  -1.9853
    -1.9653  -1.9174  -1.9109  -1.8808  -1.8283  -1.7838  -1.6696  -1.6362
    -1.5988  -1.5505  -1.5440  -1.5230  -1.5046  -1.4661  -1.4435  -1.4274
    -1.3317  -1.2827  -1.2710  -1.2598  -1.2159  -1.1975  -1.1737  -1.1558
    -1.1103  -1.0932  -1.0365  -0.9963  -0.9726  -0.9561  -0.9405  -0.9336
    -0.9102  -0.8870  -0.8678  -0.8589  -0.8219  -0.7737  -0.7454  -0.7209
    -0.7021  -0.6807  -0.6575  -0.6308  -0.5988  -0.5784  -0.5613  -0.5544
    -0.5319  -0.5073  -0.4978  -0.4809  -0.4607  -0.4259  -0.4010  -0.3826
    -0.3278  -0.2976  -0.2817  -0.2100  -0.1795  -0.1705  -0.0899  -0.0135
     0.0219   0.0668   0.1375   0.1543   0.1698   0.1864   0.2140   0.2303
     0.2549   0.2872   0.2969   0.3347   0.3905   0.4084   0.4694   0.5112
     0.5737   0.6106   0.6185   0.6355   0.6923   0.7099   0.7385   0.8099
     0.8258   0.8546   0.8789   0.8997   0.9301   0.9949   1.0322   1.0547
     1.0632   1.1069   1.1246   1.1337   1.1399   1.1642   1.1711   1.1906
     1.2300   1.3317   1.3821   1.3903   1.4594   1.4935   1.5840   1.6077
     1.6846   1.6933   1.7139   1.7658   1.8072   1.8283   1.8408   1.8647
     1.8864   1.8977   1.9049   1.9229   1.9473   1.9573   1.9768   2.0353
     2.0736   2.0856   2.1140   2.1289   2.1727   2.2161   2.2923   2.3357
     2.3625   2.4039   2.4362   2.4392   2.5615   2.5853   2.7339   3.1027
     3.1179   3.4136   3.4689   3.6575   3.6661   3.8680   4.1334   4.3257
     4.5268   4.5886   4.6040   4.9888   5.2344   5.3800   5.7721   5.9086
     6.0174   6.0786   6.4561   6.4856   6.5355   6.5799   6.6638

          k = 0.2000-0.5774 0.0000 ( 87586 PWs)   bands (ev):

   -12.2787  -8.2949  -5.7641  -5.7248  -5.1319  -4.8830  -4.5571  -4.4978
    -4.0797  -3.9860  -3.9203  -3.8244  -3.7993  -3.6970  -3.6790  -3.5909
    -3.5589  -3.4908  -3.4728  -3.4410  -3.4304  -3.4155  -3.3837  -3.3610
    -3.2843  -3.2489  -3.2306  -3.2146  -3.2050  -3.1121  -3.0224  -2.9940
    -2.9561  -2.8608  -2.8567  -2.8537  -2.8275  -2.7954  -2.7323  -2.7205
    -2.6505  -2.6219  -2.5348  -2.4822  -2.4207  -2.4070  -2.3345  -2.2569
    -2.2364  -2.1969  -2.1886  -2.0960  -2.0501  -2.0185  -2.0043  -1.9835
    -1.9283  -1.9068  -1.8807  -1.8026  -1.8010  -1.7827  -1.7757  -1.7479
    -1.7245  -1.7131  -1.6860  -1.6347  -1.5596  -1.5383  -1.5058  -1.4551
    -1.3988  -1.3590  -1.3504  -1.3395  -1.3002  -1.2686  -1.2586  -1.2206
    -1.1734  -1.1457  -1.1320  -1.1087  -1.0856  -1.0572  -0.9861  -0.9651
    -0.9127  -0.9042  -0.8950  -0.8538  -0.8025  -0.7660  -0.7368  -0.7308
    -0.6976  -0.6704  -0.6571  -0.6474  -0.6157  -0.5881  -0.5845  -0.5727
    -0.5464  -0.5248  -0.5154  -0.4890  -0.4685  -0.4632  -0.4584  -0.4247
    -0.3898  -0.3791  -0.2720  -0.1831  -0.1125  -0.1066  -0.0730  -0.0643
     0.0131   0.0452   0.0690   0.1163   0.1244   0.1309   0.1650   0.1794
     0.2453   0.2541   0.2852   0.3116   0.3265   0.3986   0.4015   0.4383
     0.5274   0.5834   0.6380   0.6492   0.6778   0.7107   0.7419   0.7852
     0.7947   0.8169   0.8432   0.8629   0.8915   0.9050   0.9291   0.9924
     1.0187   1.0584   1.0609   1.0772   1.1039   1.1164   1.2187   1.2529
     1.2614   1.3477   1.4035   1.4420   1.5227   1.5426   1.5899   1.6175
     1.6542   1.6580   1.7416   1.7699   1.8244   1.8443   1.8640   1.8799
     1.8961   1.9211   1.9520   2.0226   2.0345   2.0423   2.0675   2.0824
     2.0909   2.0937   2.1696   2.2762   2.2901   2.2945   2.3038   2.3199
     2.3656   2.3900   2.5018   2.6079   2.9752   3.4574   3.4642   3.5751
     3.6148   3.7952   3.8542   3.8697   3.9738   4.4403   4.4635   4.5635
     4.6802   4.9376   4.9576   5.0818   5.1016   5.2703   5.3029   5.3727
     5.4159   5.8198   5.8774   5.9323   6.2032   6.4114   6.5688

          k = 0.2000-0.3464 0.0000 ( 87552 PWs)   bands (ev):

   -12.2788  -8.2948  -6.2780  -5.0630  -5.0465  -5.0302  -4.8518  -4.1645
    -3.9823  -3.9728  -3.9670  -3.9474  -3.9047  -3.9032  -3.8869  -3.8157
    -3.7772  -3.7317  -3.4195  -3.4089  -3.3908  -3.3844  -3.3105  -3.2888
    -3.1652  -3.1521  -3.1428  -3.1252  -3.1003  -3.0501  -2.9981  -2.9834
    -2.9774  -2.9532  -2.9041  -2.8871  -2.8733  -2.8419  -2.8222  -2.7479
    -2.5662  -2.5405  -2.4576  -2.3977  -2.3884  -2.3590  -2.3447  -2.3313
    -2.2949  -2.2754  -2.2444  -2.1903  -2.1090  -2.0898  -2.0653  -1.9856
    -1.9654  -1.9175  -1.9107  -1.8808  -1.8282  -1.7831  -1.6693  -1.6356
    -1.5985  -1.5496  -1.5436  -1.5226  -1.5044  -1.4660  -1.4432  -1.4273
    -1.3325  -1.2831  -1.2725  -1.2602  -1.2161  -1.1984  -1.1729  -1.1555
    -1.1111  -1.0931  -1.0361  -0.9961  -0.9718  -0.9559  -0.9403  -0.9338
    -0.9109  -0.8867  -0.8683  -0.8591  -0.8232  -0.7738  -0.7459  -0.7213
    -0.7022  -0.6803  -0.6576  -0.6309  -0.5986  -0.5788  -0.5613  -0.5547
    -0.5319  -0.5075  -0.4980  -0.4808  -0.4603  -0.4262  -0.4010  -0.3821
    -0.3279  -0.2969  -0.2820  -0.2112  -0.1792  -0.1713  -0.0903  -0.0136
     0.0221   0.0670   0.1367   0.1539   0.1692   0.1861   0.2143   0.2311
     0.2550   0.2872   0.2967   0.3353   0.3915   0.4083   0.4693   0.5105
     0.5733   0.6105   0.6188   0.6357   0.6923   0.7096   0.7380   0.8097
     0.8258   0.8540   0.8791   0.9002   0.9296   0.9954   1.0321   1.0548
     1.0632   1.1072   1.1245   1.1340   1.1403   1.1639   1.1714   1.1912
     1.2300   1.3319   1.3816   1.3901   1.4593   1.4931   1.5843   1.6076
     1.6845   1.6934   1.7139   1.7659   1.8074   1.8286   1.8409   1.8643
     1.8862   1.8974   1.9047   1.9225   1.9477   1.9575   1.9766   2.0349
     2.0736   2.0850   2.1140   2.1289   2.1724   2.2161   2.2934   2.3367
     2.3638   2.4047   2.4364   2.4391   2.5613   2.5850   2.7332   3.1020
     3.1176   3.4138   3.4690   3.6579   3.6672   3.8676   4.1340   4.3257
     4.5282   4.5888   4.6034   4.9890   5.2333   5.3815   5.7723   5.9086
     6.0172   6.0796   6.4552   6.4852   6.5349   6.5800   6.6637

          k = 0.4000-0.2309 0.0000 ( 87568 PWs)   bands (ev):

   -12.2787  -8.2960  -6.1394  -5.5044  -4.9090  -4.8467  -4.4499  -4.4296
    -4.3375  -4.0950  -4.0341  -3.9043  -3.7904  -3.7468  -3.7130  -3.6921
    -3.5568  -3.5444  -3.5000  -3.4828  -3.4732  -3.3731  -3.3218  -3.3159
    -3.2757  -3.2665  -3.2377  -3.2098  -3.1456  -3.1378  -3.1243  -2.8966
    -2.8869  -2.8717  -2.8571  -2.8522  -2.8426  -2.6962  -2.6283  -2.6119
    -2.5958  -2.5892  -2.5796  -2.5328  -2.4097  -2.3290  -2.2985  -2.2801
    -2.2687  -2.2437  -2.2064  -2.1861  -2.1440  -2.1272  -2.0999  -2.0622
    -2.0114  -1.9219  -1.9088  -1.8859  -1.8708  -1.7691  -1.7335  -1.7023
    -1.6800  -1.6516  -1.5496  -1.4848  -1.4811  -1.4592  -1.4505  -1.4022
    -1.3746  -1.3286  -1.2932  -1.2737  -1.2264  -1.2172  -1.1435  -1.1303
    -1.1003  -1.0825  -1.0792  -1.0415  -1.0122  -0.9936  -0.9772  -0.9718
    -0.9605  -0.9450  -0.9285  -0.8992  -0.8543  -0.8234  -0.8098  -0.7949
    -0.7886  -0.7435  -0.6830  -0.6482  -0.6434  -0.6141  -0.5671  -0.5508
    -0.5334  -0.5035  -0.4929  -0.4306  -0.3846  -0.3652  -0.3381  -0.3021
    -0.2593  -0.2313  -0.1152  -0.1111  -0.0760  -0.0179   0.0072   0.0266
     0.0539   0.0892   0.1030   0.1248   0.1330   0.1785   0.1986   0.2127
     0.2249   0.2494   0.2777   0.2904   0.3176   0.3383   0.4134   0.4333
     0.4548   0.5180   0.5356   0.5692   0.6411   0.6762   0.6926   0.7690
     0.7907   0.8538   0.8977   0.9433   0.9547   0.9843   1.0052   1.0342
     1.0446   1.0958   1.1159   1.1494   1.1899   1.1979   1.2732   1.2948
     1.3043   1.3218   1.3461   1.3875   1.4833   1.5045   1.5440   1.5718
     1.5934   1.6104   1.6451   1.6951   1.7246   1.7349   1.8062   1.8127
     1.8640   1.8736   1.9057   1.9147   1.9665   2.0195   2.0237   2.0534
     2.0587   2.0727   2.0940   2.1011   2.2639   2.2791   2.2851   2.3069
     2.3277   2.4635   2.5330   2.5538   2.8373   2.9794   3.0344   3.3457
     3.3632   3.5450   3.7197   3.7503   4.0169   4.0931   4.3891   4.5715
     4.5785   4.6423   4.7367   4.8561   4.9042   5.1656   5.2239   5.3972
     5.5806   5.9346   6.0203   6.4171   6.5403   6.7652   6.9132

          k = 0.4000-0.0000 0.0000 ( 87552 PWs)   bands (ev):

   -12.2787  -8.2960  -6.2761  -5.0730  -5.0353  -5.0153  -4.8592  -4.1494
    -3.9759  -3.9722  -3.9659  -3.9465  -3.9338  -3.9021  -3.8694  -3.8233
    -3.7865  -3.7336  -3.4191  -3.3988  -3.3907  -3.3726  -3.3193  -3.3027
    -3.1633  -3.1516  -3.1446  -3.1324  -3.1216  -3.0385  -3.0171  -2.9784
    -2.9707  -2.9585  -2.9291  -2.8961  -2.8629  -2.8564  -2.8233  -2.7294
    -2.5828  -2.5165  -2.4704  -2.3970  -2.3829  -2.3777  -2.3357  -2.3091
    -2.2765  -2.2706  -2.2507  -2.1800  -2.1018  -2.0697  -2.0516  -1.9919
    -1.9623  -1.9268  -1.9037  -1.8943  -1.8367  -1.7842  -1.6829  -1.6271
    -1.6131  -1.5624  -1.5364  -1.5204  -1.4997  -1.4604  -1.4316  -1.4199
    -1.3375  -1.2949  -1.2587  -1.2549  -1.2275  -1.1812  -1.1673  -1.1487
    -1.1221  -1.0818  -1.0220  -1.0024  -0.9698  -0.9511  -0.9407  -0.9243
    -0.9131  -0.8958  -0.8770  -0.8537  -0.8451  -0.7921  -0.7403  -0.7219
    -0.6961  -0.6753  -0.6480  -0.6306  -0.5929  -0.5850  -0.5759  -0.5491
    -0.5320  -0.5177  -0.5036  -0.4711  -0.4483  -0.4306  -0.4120  -0.3660
    -0.3302  -0.2952  -0.2867  -0.2239  -0.2164  -0.1457  -0.1157  -0.0078
     0.0141   0.0867   0.1217   0.1368   0.1780   0.2063   0.2249   0.2347
     0.2566   0.2912   0.2982   0.3471   0.3548   0.3941   0.4498   0.5402
     0.5780   0.6007   0.6423   0.6511   0.6634   0.7034   0.7242   0.7910
     0.8365   0.8423   0.8766   0.8997   0.9405   1.0139   1.0218   1.0560
     1.0775   1.1036   1.1134   1.1372   1.1446   1.1543   1.1686   1.2142
     1.2452   1.3401   1.3573   1.4048   1.4831   1.4984   1.5405   1.6434
     1.6814   1.6994   1.7303   1.7455   1.8068   1.8266   1.8454   1.8491
     1.8860   1.8995   1.9074   1.9121   1.9496   1.9647   1.9811   2.0434
     2.0694   2.0830   2.1174   2.1298   2.1612   2.2349   2.2738   2.3348
     2.3730   2.4186   2.4386   2.4466   2.5548   2.5813   2.6849   3.0974
     3.1276   3.3555   3.6344   3.6643   3.6929   3.7871   4.0833   4.3417
     4.4750   4.5837   4.6360   5.0978   5.1139   5.4167   5.7712   5.7988
     6.0168   6.1483   6.4512   6.4632   6.5950   6.5996   6.6144

          k = 0.4000 0.2309 0.0000 ( 87568 PWs)   bands (ev):

   -12.2787  -8.2960  -6.1393  -5.5042  -4.9089  -4.8467  -4.4500  -4.4300
    -4.3375  -4.0944  -4.0338  -3.9043  -3.7903  -3.7467  -3.7135  -3.6922
    -3.5564  -3.5442  -3.4998  -3.4827  -3.4729  -3.3727  -3.3219  -3.3163
    -3.2756  -3.2660  -3.2376  -3.2091  -3.1458  -3.1377  -3.1244  -2.8967
    -2.8867  -2.8721  -2.8575  -2.8525  -2.8429  -2.6952  -2.6289  -2.6126
    -2.5961  -2.5893  -2.5791  -2.5361  -2.4081  -2.3297  -2.2984  -2.2804
    -2.2685  -2.2438  -2.2065  -2.1862  -2.1450  -2.1271  -2.1000  -2.0623
    -2.0103  -1.9224  -1.9091  -1.8861  -1.8709  -1.7697  -1.7348  -1.7030
    -1.6804  -1.6530  -1.5496  -1.4846  -1.4815  -1.4591  -1.4500  -1.4012
    -1.3752  -1.3285  -1.2927  -1.2729  -1.2252  -1.2152  -1.1436  -1.1300
    -1.1005  -1.0830  -1.0795  -1.0415  -1.0124  -0.9936  -0.9775  -0.9718
    -0.9608  -0.9448  -0.9286  -0.8987  -0.8546  -0.8240  -0.8097  -0.7960
    -0.7893  -0.7434  -0.6836  -0.6477  -0.6426  -0.6140  -0.5659  -0.5506
    -0.5330  -0.5023  -0.4918  -0.4295  -0.3838  -0.3651  -0.3383  -0.3016
    -0.2586  -0.2311  -0.1157  -0.1107  -0.0757  -0.0176   0.0070   0.0262
     0.0539   0.0890   0.1034   0.1239   0.1326   0.1782   0.1988   0.2125
     0.2244   0.2488   0.2785   0.2913   0.3172   0.3382   0.4137   0.4338
     0.4549   0.5181   0.5360   0.5695   0.6415   0.6765   0.6926   0.7688
     0.7900   0.8527   0.8976   0.9434   0.9557   0.9853   1.0052   1.0339
     1.0443   1.0955   1.1156   1.1492   1.1899   1.1977   1.2729   1.2947
     1.3042   1.3220   1.3467   1.3880   1.4834   1.5050   1.5439   1.5718
     1.5936   1.6104   1.6452   1.6951   1.7246   1.7352   1.8065   1.8128
     1.8638   1.8739   1.9063   1.9152   1.9669   2.0189   2.0237   2.0530
     2.0588   2.0722   2.0930   2.1003   2.2636   2.2790   2.2842   2.3056
     2.3274   2.4636   2.5330   2.5540   2.8371   2.9797   3.0350   3.3457
     3.3631   3.5458   3.7198   3.7500   4.0166   4.0917   4.3875   4.5715
     4.5783   4.6413   4.7371   4.8566   4.9039   5.1651   5.2241   5.3973
     5.5809   5.9333   6.0208   6.4171   6.5409   6.7654   6.9127

          k = 0.4000-0.6928 0.0000 ( 87586 PWs)   bands (ev):

   -12.2786  -8.2960  -5.7481  -5.7356  -5.1380  -4.8697  -4.5465  -4.5016
    -4.0977  -3.9724  -3.9265  -3.8216  -3.7991  -3.6907  -3.6813  -3.5798
    -3.5693  -3.4760  -3.4678  -3.4557  -3.4197  -3.4132  -3.3963  -3.3780
    -3.2848  -3.2515  -3.2504  -3.2110  -3.1933  -3.1297  -3.0457  -2.9915
    -2.9580  -2.8703  -2.8550  -2.8404  -2.8291  -2.8094  -2.7247  -2.7186
    -2.6401  -2.6065  -2.5623  -2.5076  -2.4091  -2.3751  -2.3165  -2.2598
    -2.2240  -2.2148  -2.1809  -2.0832  -2.0379  -2.0174  -2.0049  -1.9764
    -1.9372  -1.9165  -1.8827  -1.8130  -1.7945  -1.7789  -1.7623  -1.7586
    -1.7436  -1.6925  -1.6872  -1.6515  -1.5548  -1.5318  -1.4922  -1.4757
    -1.3951  -1.3806  -1.3391  -1.3149  -1.2754  -1.2620  -1.2327  -1.2034
    -1.1725  -1.1533  -1.1447  -1.1185  -1.0818  -1.0401  -1.0204  -0.9448
    -0.9315  -0.9062  -0.9019  -0.8550  -0.8293  -0.7733  -0.7210  -0.7119
    -0.6959  -0.6737  -0.6578  -0.6394  -0.6153  -0.5979  -0.5901  -0.5691
    -0.5420  -0.5242  -0.5084  -0.4877  -0.4820  -0.4682  -0.4468  -0.4358
    -0.4156  -0.3683  -0.3382  -0.1741  -0.1444  -0.0808  -0.0730  -0.0193
     0.0165   0.0333   0.0728   0.0943   0.1251   0.1293   0.1543   0.1900
     0.2265   0.2627   0.2849   0.3215   0.3441   0.3947   0.4074   0.4404
     0.5458   0.5811   0.6132   0.6607   0.6992   0.7113   0.7360   0.7754
     0.7941   0.8212   0.8345   0.8584   0.8914   0.9116   0.9394   0.9821
     1.0153   1.0435   1.0686   1.0830   1.1106   1.1205   1.1950   1.2343
     1.2816   1.3708   1.3913   1.4801   1.5068   1.5350   1.5605   1.6208
     1.6620   1.6992   1.7171   1.8022   1.8304   1.8353   1.8622   1.8799
     1.8963   1.9202   1.9427   2.0100   2.0290   2.0445   2.0619   2.0778
     2.0954   2.0981   2.1703   2.2572   2.2750   2.3006   2.3185   2.3297
     2.3725   2.3872   2.4998   2.6207   2.9903   3.4123   3.4670   3.4728
     3.7134   3.8235   3.8428   3.8685   4.0244   4.4022   4.4744   4.5225
     4.6678   4.9334   5.0339   5.0738   5.1161   5.1854   5.3095   5.3889
     5.5159   5.6309   5.8798   5.9766   6.1449   6.5131   6.5649

          k = 0.4000-0.4619 0.0000 ( 87586 PWs)   bands (ev):

   -12.2786  -8.2960  -5.7478  -5.7360  -5.1378  -4.8697  -4.5464  -4.5018
    -4.0978  -3.9731  -3.9265  -3.8215  -3.7990  -3.6903  -3.6812  -3.5802
    -3.5695  -3.4763  -3.4674  -3.4559  -3.4196  -3.4134  -3.3962  -3.3782
    -3.2856  -3.2514  -3.2505  -3.2107  -3.1938  -3.1296  -3.0461  -2.9911
    -2.9574  -2.8703  -2.8555  -2.8405  -2.8290  -2.8089  -2.7244  -2.7181
    -2.6396  -2.6064  -2.5611  -2.5081  -2.4085  -2.3764  -2.3152  -2.2598
    -2.2243  -2.2152  -2.1807  -2.0841  -2.0382  -2.0175  -2.0049  -1.9762
    -1.9361  -1.9159  -1.8824  -1.8126  -1.7941  -1.7788  -1.7625  -1.7582
    -1.7429  -1.6924  -1.6871  -1.6516  -1.5543  -1.5320  -1.4919  -1.4756
    -1.3953  -1.3806  -1.3397  -1.3149  -1.2763  -1.2623  -1.2336  -1.2038
    -1.1716  -1.1535  -1.1444  -1.1186  -1.0820  -1.0403  -1.0200  -0.9452
    -0.9320  -0.9051  -0.9014  -0.8555  -0.8293  -0.7738  -0.7207  -0.7124
    -0.6958  -0.6736  -0.6576  -0.6396  -0.6155  -0.5998  -0.5906  -0.5693
    -0.5420  -0.5245  -0.5065  -0.4877  -0.4820  -0.4690  -0.4463  -0.4356
    -0.4159  -0.3683  -0.3396  -0.1745  -0.1455  -0.0808  -0.0733  -0.0192
     0.0164   0.0333   0.0729   0.0945   0.1252   0.1294   0.1543   0.1903
     0.2272   0.2623   0.2843   0.3213   0.3451   0.3951   0.4074   0.4397
     0.5453   0.5812   0.6129   0.6607   0.6991   0.7113   0.7364   0.7758
     0.7940   0.8214   0.8348   0.8586   0.8917   0.9116   0.9392   0.9824
     1.0155   1.0437   1.0684   1.0826   1.1103   1.1208   1.1945   1.2342
     1.2806   1.3705   1.3914   1.4801   1.5071   1.5353   1.5604   1.6211
     1.6621   1.6992   1.7170   1.8023   1.8302   1.8352   1.8616   1.8800
     1.8958   1.9207   1.9431   2.0104   2.0291   2.0447   2.0613   2.0773
     2.0954   2.0981   2.1702   2.2571   2.2757   2.3012   2.3195   2.3299
     2.3730   2.3877   2.4999   2.6205   2.9898   3.4116   3.4669   3.4728
     3.7139   3.8235   3.8422   3.8676   4.0253   4.4030   4.4746   4.5226
     4.6675   4.9336   5.0341   5.0740   5.1159   5.1861   5.3121   5.3899
     5.5152   5.6318   5.8789   5.9755   6.1455   6.5123   6.5626

     the Fermi energy is     2.0880 ev

!    total energy              =  -27797.18161672 Ry

     total all-electron energy =  -1326799.475215 Ry
     estimated scf accuracy    <       0.00000071 Ry
     smearing contrib. (-TS)   =       0.00149930 Ry
     internal energy E=F+TS    =  -27797.18311601 Ry

     The total energy is F=E-TS. E is the sum of the following terms:
     one-electron contribution =  -26052.88721241 Ry
     hartree contribution      =   13332.01688279 Ry
     xc contribution           =    -902.66840082 Ry
     ewald contribution        =   11313.41176860 Ry
     one-center paw contrib.   =  -25487.05615416 Ry

     convergence has been achieved in  18 iterations

     negative rho (up, down):  1.229E-02 0.000E+00

     Forces acting on atoms (cartesian axes, Ry/au):

     atom    1 type  1   force =     0.00088743    0.00025719   -0.00596707
     atom    2 type  1   force =     0.00003631    0.00010791   -0.00387079
     atom    3 type  1   force =    -0.00080751    0.00024970   -0.00596622
     atom    4 type  1   force =    -0.00032826   -0.00046814   -0.00365592
     atom    5 type  1   force =     0.00040734   -0.00047255   -0.00365996
     atom    6 type  1   force =     0.00004116   -0.00099675   -0.00259921
     atom    7 type  1   force =     0.00003942    0.00030992   -0.00289667
     atom    8 type  1   force =    -0.00013735    0.00057288   -0.00345185
     atom    9 type  1   force =     0.00021333    0.00056939   -0.00345251
     atom   10 type  1   force =    -0.00317489    0.00096030    0.00322309
     atom   11 type  1   force =     0.00310868    0.00101010    0.00330832
     atom   12 type  1   force =    -0.00005184    0.00123235    0.00079344
     atom   13 type  1   force =    -0.00001237   -0.00059999    0.01013286
     atom   14 type  1   force =    -0.00088761   -0.00196228    0.00895829
     atom   15 type  1   force =     0.00079787   -0.00193725    0.00892355
     atom   16 type  1   force =    -0.00038395    0.00019591   -0.00135562
     atom   17 type  1   force =    -0.00003092   -0.00098036    0.00073551
     atom   18 type  1   force =     0.00031751    0.00021594   -0.00134179
     atom   19 type  1   force =    -0.00002756   -0.00063705   -0.00040967
     atom   20 type  1   force =     0.00005599   -0.00008315    0.00032867
     atom   21 type  1   force =     0.00005282   -0.00063676   -0.00027583
     atom   22 type  1   force =    -0.00027989    0.00052616    0.00008529
     atom   23 type  1   force =     0.00025083    0.00048125    0.00010573
     atom   24 type  1   force =     0.00004867    0.00081338   -0.00059094
     atom   25 type  1   force =     0.00000840   -0.00031995    0.00014544
     atom   26 type  1   force =     0.00020560   -0.00010259    0.00031711
     atom   27 type  1   force =    -0.00020403   -0.00016136    0.00033011
     atom   28 type  1   force =    -0.00008868   -0.00053791    0.00054543
     atom   29 type  1   force =    -0.00001964    0.00042380    0.00013588
     atom   30 type  1   force =     0.00014949   -0.00053223    0.00045376
     atom   31 type  1   force =    -0.00044458   -0.00020849   -0.00009719
     atom   32 type  1   force =     0.00068278    0.00015608   -0.00022930
     atom   33 type  1   force =     0.00003354   -0.00023727   -0.00012127
     atom   34 type  1   force =     0.00004863    0.00011494    0.00012062
     atom   35 type  1   force =     0.00005267    0.00052588    0.00034855
     atom   36 type  1   force =    -0.00006363    0.00055237    0.00036582
     atom   37 type  2   force =    -0.00115702    0.00037602    0.00014568
     atom   38 type  2   force =     0.00219831    0.00414821    0.00473954
     atom   39 type  3   force =     0.00068929    0.00036267   -0.00003705
     atom   40 type  3   force =     0.00050895    0.00013708   -0.00018208
     atom   41 type  3   force =    -0.00066641    0.00031252   -0.00070568
     atom   42 type  3   force =    -0.00206886   -0.00373790   -0.00337610

     Total force =     0.009164     Total SCF correction =     0.001064
     SCF correction compared to forces is large: reduce conv_thr to get better values

     negative rho (up, down):  1.229E-02 0.000E+00

     negative rho (up, down):  1.229E-02 0.000E+00

     negative rho (up, down):  1.229E-02 0.000E+00

     negative rho (up, down):  1.229E-02 0.000E+00

     negative rho (up, down):  1.229E-02 0.000E+00

     negative rho (up, down):  1.229E-02 0.000E+00

     negative rho (up, down):  1.229E-02 0.000E+00

     negative rho (up, down):  1.229E-02 0.000E+00

     negative rho (up, down):  1.229E-02 0.000E+00

     negative rho (up, down):  1.229E-02 0.000E+00

     negative rho (up, down):  1.229E-02 0.000E+00

     negative rho (up, down):  1.229E-02 0.000E+00

     negative rho (up, down):  1.229E-02 0.000E+00

     negative rho (up, down):  1.229E-02 0.000E+00

     negative rho (up, down):  1.229E-02 0.000E+00

     negative rho (up, down):  1.229E-02 0.000E+00

     negative rho (up, down):  1.229E-02 0.000E+00

     negative rho (up, down):  1.229E-02 0.000E+00

     negative rho (up, down):  1.229E-02 0.000E+00

     negative rho (up, down):  1.229E-02 0.000E+00

     negative rho (up, down):  1.229E-02 0.000E+00

     negative rho (up, down):  1.229E-02 0.000E+00

     negative rho (up, down):  1.229E-02 0.000E+00

     negative rho (up, down):  1.229E-02 0.000E+00

     negative rho (up, down):  1.229E-02 0.000E+00

     negative rho (up, down):  1.229E-02 0.000E+00

     negative rho (up, down):  1.229E-02 0.000E+00

     negative rho (up, down):  1.229E-02 0.000E+00

     negative rho (up, down):  1.229E-02 0.000E+00

     negative rho (up, down):  1.229E-02 0.000E+00

     negative rho (up, down):  1.229E-02 0.000E+00

     negative rho (up, down):  1.229E-02 0.000E+00

     negative rho (up, down):  1.229E-02 0.000E+00

     negative rho (up, down):  1.229E-02 0.000E+00
 BEEFens 2000 ensemble energies
             -0.604075970170041E+02
             -0.359820632471903E+01
             -0.157736841155105E+02
              0.427471063522992E+02
             -0.220283314748920E+02
             -0.204550080467653E+02
             -0.350280740176945E+02
             -0.860799267827525E+02
             -0.463373557944042E+02
             -0.470839458317369E+02
             -0.367695658436620E+02
              0.225702176552394E+01
              0.405978765316416E+01
              0.763425883976112E+01
              0.263740153506885E+01
              0.472864227123830E+02
             -0.207860598483017E+02
             -0.229550573825923E+02
              0.192099949419603E+02
             -0.111900356651928E+03
              0.533783277209718E+02
             -0.288897601041351E+02
             -0.331552384212763E+01
             -0.113644492458761E+02
             -0.883102994822684E+01
             -0.459647070414624E+01
              0.878908812899440E+02
             -0.186244374723324E+02
             -0.895757144406207E+01
             -0.515990528593043E+02
              0.812267395516244E+02
             -0.186886175040617E+02
             -0.373124519630096E+02
              0.248268282474831E+02
             -0.282926718281419E+01
              0.163021983570785E+02
             -0.485304387089377E+01
              0.107978663121301E+02
              0.287039293193144E+02
             -0.102816124200770E+03
              0.556060777563570E+02
              0.141864426713004E+02
             -0.168096265565157E+01
             -0.360062195026951E+02
              0.122701330574887E+02
             -0.146076892311102E+02
              0.396258659768339E+02
              0.363211634949636E+02
             -0.307095714613503E+02
             -0.273696109098744E+02
             -0.327171016423788E+02
             -0.350615810366475E+02
              0.135711138565981E+02
             -0.488511312344660E+02
              0.114914844817538E+02
              0.620467498109929E+02
              0.632174330677577E+02
              0.354456745358594E+02
              0.153255726837239E+02
              0.269254596286476E+02
              0.887546812459443E+02
              0.211703163021778E+02
             -0.546098464800641E+02
             -0.156610898489743E+02
             -0.234753843616324E+02
              0.627051100356320E+02
             -0.770095412868637E+02
             -0.669266714118692E+02
             -0.258241621040796E+02
             -0.641891269195662E+01
             -0.468868090573926E+02
              0.269519606611628E+02
              0.795718740246696E+01
              0.860381091908937E+01
             -0.395670947257450E+02
             -0.345288869335182E+02
             -0.539358786313890E+02
              0.388799963647044E+02
             -0.294538341655277E+02
              0.264081984704976E+02
             -0.713459688671362E+01
             -0.316735813810065E+02
             -0.573756043410735E+02
             -0.175911043369917E+02
             -0.898061469197080E+01
             -0.123863222117181E+02
              0.410581047969817E+02
              0.679616517982703E+02
             -0.383602921785800E+02
             -0.791026955745956E+02
             -0.218799253668459E+02
              0.111015716889109E+03
             -0.590134518004771E+02
              0.354779623635676E+02
             -0.952089249088021E+01
             -0.660492896521306E+02
              0.253193727751808E+02
              0.396473140478874E+02
             -0.198236578831048E+02
              0.398983735742979E+02
             -0.294847578850990E+02
             -0.475695916094141E+02
              0.861670606858936E+02
              0.451841817138951E+02
              0.335373663874497E+02
              0.145803798857470E+02
              0.204650986989199E+02
              0.852920875689200E+02
             -0.255580321400533E+02
              0.786941033759669E+01
             -0.141785831402969E+03
              0.180220337213319E+02
             -0.713288969585554E+02
              0.150447829881556E+02
              0.203662683237745E+02
             -0.331321257685931E+02
             -0.554955101196775E+02
              0.651594861463673E+01
             -0.302942881783754E+02
              0.306030811305716E+02
             -0.527844810505486E+02
              0.174135684976955E+01
             -0.355277977489610E+02
             -0.421658712461823E+01
             -0.103771651661049E+01
              0.180465378726713E+02
              0.142965705126051E+01
             -0.648400576965139E+01
              0.587638421341086E+02
              0.904256797516343E+02
              0.482052206444466E+02
              0.827183044652278E+02
             -0.114508009768849E+02
              0.142573980553201E+02
              0.538717763823197E+02
             -0.110773287787005E+02
             -0.732469432788668E+02
             -0.382443047194410E+02
             -0.519720156661549E+02
             -0.275416330921159E+02
              0.326217733208339E+02
             -0.116247502999826E+03
             -0.186611831072972E+02
              0.412047643529240E+02
             -0.384526776968316E+02
             -0.364035167415990E+02
              0.541796805945693E+02
              0.398513276587540E+02
             -0.352735165859387E+02
              0.136547907565412E+02
             -0.272262384561044E+02
              0.341515087313852E+02
              0.441661176106140E+01
              0.210541670968428E+02
             -0.881104042676396E+02
             -0.477997920070777E+02
             -0.992624126494297E+01
              0.321875411203251E+01
             -0.364877725796819E+02
              0.105545484615184E+03
             -0.230220394206345E+02
             -0.397553185824917E+02
              0.386991476574851E+02
             -0.492115020478673E+02
             -0.361838057119261E+02
              0.323489090034337E+02
              0.124037113725720E+02
              0.164224925410765E+02
              0.115997782828828E+02
             -0.132389665514618E+02
              0.224586093744162E+02
              0.587440958427393E+02
             -0.310307984066695E+02
              0.161474188286049E+02
              0.930558762626929E+02
              0.339397359297047E+02
             -0.725663059071985E+01
             -0.187812920920043E+02
              0.152660265686121E+03
             -0.163159375623121E+02
              0.361704604305634E+02
              0.193227923542716E+02
              0.360145169480742E+02
              0.887848478454043E+02
              0.540853247106741E+02
             -0.236680257305682E+01
              0.226734440831850E+02
              0.482722652766704E+02
              0.361692652706325E+02
             -0.522869546882065E+02
              0.931894507970495E+02
             -0.821912467296684E+02
             -0.197441380427153E+02
              0.580234507128674E+02
              0.671614765332023E+01
              0.786849564848740E+01
              0.339453928946638E+02
              0.298460562245406E+02
              0.352084266069822E+02
             -0.634748363333406E+02
              0.284567949053564E+01
             -0.296535883415073E+02
             -0.865389400256055E+01
             -0.144908124825326E+01
             -0.718732947106140E+01
             -0.412423018953075E+01
              0.855737148400869E+02
             -0.100812478978679E+02
             -0.275072449453319E+02
             -0.495984950455080E+01
              0.139397130553871E+02
             -0.561172320471730E+02
             -0.405106639002826E+02
             -0.380506247623589E+02
             -0.627524338245670E+02
             -0.168869113315115E+02
             -0.445693240021805E+02
              0.162411123800654E+02
             -0.239533954369709E+01
             -0.103886011758817E+02
             -0.930244379699801E+01
              0.805249856334029E+01
             -0.241942634333816E+02
              0.686565621666539E+02
             -0.803451279341214E+02
             -0.140439521191079E+02
             -0.173350435154554E+02
              0.181246198860366E+02
              0.213803169969034E+02
             -0.461574973976726E+02
             -0.201199100871226E+02
              0.438991633451571E+02
             -0.275289124927753E+02
              0.186514052274973E+02
              0.381260280997506E+02
             -0.321639218180064E+01
              0.113624634215960E+03
             -0.229262974485299E+02
             -0.339429153468575E+02
              0.576525960289825E+01
             -0.227142096441133E+02
              0.525169880187328E+02
             -0.335392948458776E+02
              0.106067357738070E+02
              0.637988771289382E+02
             -0.125654032368256E+02
              0.119715945174989E+03
              0.125301364899853E+03
             -0.646815898929185E+02
              0.588092345567720E+02
              0.165648314064351E+02
             -0.515318552615770E+02
              0.215300603317045E+02
              0.352283192850937E+02
              0.360800685896581E+02
              0.132266054787058E+01
              0.159226893002781E+02
              0.692641577282639E+02
             -0.245976249469333E+02
              0.180890552306838E+02
              0.735699761224165E+02
             -0.370849282710961E+02
             -0.128893951335097E+02
              0.506163077274498E+02
              0.296170619797427E+02
              0.776754311626111E+02
              0.221395668804208E+02
              0.621195533522973E+01
              0.279232009313801E+02
              0.381507721007353E+02
             -0.469777482931276E+02
              0.329983248851971E+01
              0.128907354870081E+02
              0.113272830469908E+02
              0.219588136083647E+02
             -0.572282221506070E+02
              0.364583433225455E+02
             -0.441911888257806E+02
             -0.346166093276829E+02
              0.177374955841394E+02
             -0.180922944987362E+02
              0.552611783677142E+02
             -0.255122844847493E+02
              0.265464699017627E+02
              0.366876517381040E+02
              0.825754891974207E+02
              0.572351243534511E+02
              0.459573640037059E+02
             -0.105089964215862E+02
             -0.387243118926244E+01
             -0.330831529886583E+02
              0.747184175837348E+02
              0.793543856932130E+02
              0.360187577361316E+02
             -0.190825229724695E+02
              0.509617882848062E+02
             -0.162626482232899E+02
              0.213826310184080E+02
              0.611562818098035E+02
              0.214695956095659E+01
             -0.103986565118981E+02
             -0.281899736827972E+02
             -0.509285956699173E+02
              0.941127360985548E+02
              0.437789205644290E+02
             -0.556434812627243E+02
             -0.954161195035309E+01
              0.248569411130608E+02
             -0.990901438863531E+01
              0.589250282888569E+02
              0.151471288941150E+02
              0.795620300572148E+02
              0.278302560096850E+02
             -0.262627475468306E+02
              0.247884629728374E+02
             -0.498889272184829E+01
             -0.322286402590138E+02
              0.132320612273367E+02
              0.204817465853076E+02
              0.929090575793636E+02
              0.793948299821702E+02
              0.548677225749579E+02
              0.727660507010892E+02
              0.798520129155304E+01
             -0.272598700266167E+02
              0.162572016469097E+02
             -0.366453303990616E+02
             -0.473984015719215E+02
             -0.560951990855439E+02
             -0.265207008387708E+02
             -0.109226985052727E+03
             -0.289968620396332E+02
             -0.833572177568433E+02
              0.209261125212611E+02
             -0.475051466767361E+02
              0.394821975845991E+02
             -0.937247349706683E+02
             -0.328782391486611E+02
              0.546488478905608E+02
              0.206652381022480E+02
             -0.826801069781171E+02
              0.628429484688558E+02
             -0.255661045795139E+02
              0.510025789263810E+02
             -0.241151464011919E+02
             -0.747834268226760E+02
              0.111120131810391E+02
             -0.608390039277424E+02
             -0.167752011110387E+02
             -0.149865393395428E+01
              0.416263563357770E+02
              0.126465487143733E+03
             -0.459735961640915E+02
             -0.360924859448408E+02
             -0.963062919806077E+00
             -0.129805537721584E+02
             -0.819058729793439E+02
             -0.594296723041894E+02
              0.514975919087233E+02
             -0.288015548946390E+02
              0.168518588813542E+02
             -0.487197572999142E+02
             -0.131233310617826E+02
             -0.435433590667911E+02
              0.563427299509795E+02
              0.150236664278672E+02
             -0.230669693031400E+02
             -0.126351822589836E+02
              0.662247802121317E+01
             -0.614965328617274E+01
              0.439692611090531E+02
             -0.250828978334001E+02
              0.275093233369500E+01
              0.337991630453388E+02
              0.170508279580915E+02
             -0.158991459984873E+02
              0.155589803192147E+03
              0.535677570805800E+02
              0.113115986256875E+01
              0.161260603245277E+02
             -0.612200405334459E+02
              0.313625104485353E+02
             -0.718389182532705E+02
             -0.250719865968687E+02
             -0.520155035941281E+02
             -0.219375183843009E+02
              0.566787374098240E+02
             -0.534499726047758E+02
              0.159952186288747E+02
             -0.408424480424105E+01
              0.385947878163540E+01
             -0.432443094093280E+02
             -0.476483935060738E+02
             -0.401687585657533E+01
             -0.423115487509426E+02
             -0.216040966475594E+02
             -0.436814295634038E+02
             -0.118936388392443E+02
             -0.357533074520664E+02
             -0.514322369516743E+02
              0.211671802560052E+02
             -0.208524901075195E+02
              0.186870780349088E+02
              0.970391629044379E+01
             -0.734816546371891E+02
             -0.545728556277392E+02
             -0.396356456143501E+02
              0.352597484766820E+02
              0.272404554190516E+01
             -0.623793881975352E+02
              0.583360876711301E+02
             -0.399349271372630E+02
              0.542495798250805E+02
             -0.288322038396227E+02
             -0.443724314686164E+02
              0.297230436388631E+02
             -0.654520020690424E+02
             -0.378428251144629E+02
              0.670055454118622E+02
              0.203282816900075E+02
             -0.358468864651744E+02
              0.487142712186781E+02
             -0.173325523893571E+02
             -0.321247406598404E+02
             -0.300437526284394E+02
             -0.498487684785396E+02
              0.248490892939994E+02
             -0.929329219856334E+02
             -0.836748900573483E+02
             -0.730604309209423E+01
             -0.305545491579346E+02
             -0.573187158520818E+02
              0.718583981119710E+02
              0.130944003370193E+03
             -0.359751233754294E+02
             -0.254514614082643E+01
             -0.634391907037816E+02
              0.647715543029111E+02
              0.169820656396219E+02
             -0.180932844450530E+02
             -0.408423547915612E+02
              0.147893318898311E+02
             -0.583393301240411E+02
             -0.197218287970503E+02
             -0.900778603637034E+02
              0.335495784957233E+02
              0.168380250750284E+02
              0.186147328163793E+01
             -0.703478486385893E+01
             -0.328106159306208E+02
             -0.754560533952895E+01
              0.124959228674577E+03
             -0.198256287267557E+02
             -0.435508979121283E+02
             -0.681031609937319E+02
              0.108701979019345E+02
             -0.340644561359292E+02
              0.587268584679494E+01
              0.260085857226868E+02
              0.102024471918701E+02
              0.276523741651597E+02
              0.119297502763548E+02
              0.627123884240374E+02
              0.315485908832579E+02
             -0.325111302556330E+02
              0.353566687548615E+02
              0.378016889033673E+02
              0.120321039770990E+02
              0.485398929325231E+02
             -0.223667725162671E+02
              0.762655021739300E+02
              0.171405820342027E+02
             -0.270705623781225E+02
             -0.721491001498203E+01
             -0.185688330795736E+02
              0.261017220516326E+02
             -0.233116824799625E+02
             -0.994240060149423E-01
             -0.843646272629871E+01
              0.806133634847549E+02
              0.497579874209783E+02
             -0.684004857079436E+02
             -0.474463676510177E+01
             -0.553097877320031E+02
             -0.158728227456236E+02
             -0.267432119265024E+02
              0.371404747722409E+01
              0.617094740307504E+00
             -0.256484408390465E+02
              0.807673185758239E+01
             -0.599067916258949E+01
             -0.128114725978553E+02
              0.855178192829921E+02
              0.181049400333994E+02
             -0.803595554602188E+02
             -0.456656816431172E+02
              0.941039109930576E+02
              0.276792020782719E+02
             -0.106503044203697E+02
              0.104088811888905E+03
             -0.193879928358056E+02
             -0.122642836508291E+02
             -0.535867306328566E+01
              0.106753681602336E+02
              0.271225498562160E+02
              0.779836385472350E+01
              0.304177652996933E+02
             -0.187366401086653E+02
             -0.302381117042497E+02
             -0.416234141065708E+02
             -0.474744436679828E+02
              0.462226431867197E+02
              0.126185528922081E+02
              0.386020589339681E+02
              0.132857138746321E+02
              0.851776863151834E+02
              0.155603098297069E+02
             -0.842797414023036E+02
             -0.333016527161477E+02
              0.133436653211660E+02
             -0.301620471378731E+02
              0.623904761883273E+02
             -0.878824451840887E+01
              0.147876067764676E+02
              0.494942435046524E+02
             -0.703932040129409E+02
              0.149097180678310E+03
              0.207903262590369E+02
              0.270351585360305E+02
              0.346079184275552E+02
              0.103463766973501E+02
             -0.155251665874056E+01
              0.356893021955298E+02
             -0.355756492412333E+02
              0.769710087829615E+02
              0.681765312510153E+02
             -0.404352397697681E+02
              0.148805408901554E+02
              0.667073757537390E+02
             -0.222918119475573E+02
              0.153652312765798E+02
              0.433421930928548E+02
              0.420309197124967E+02
             -0.781545515397484E+02
             -0.152313295916285E+02
             -0.354707802642018E+02
             -0.146040197678377E+01
             -0.764550519379677E+01
             -0.544159680036125E+01
             -0.179940797577893E+02
             -0.292672591694625E+02
              0.629360324865759E+01
              0.111359460904873E+02
              0.533363845601033E+02
             -0.388431870851121E+02
              0.372767919896847E+02
              0.436516230238621E+02
             -0.185909596931043E+02
              0.868712122486562E+02
             -0.695023959424063E+02
             -0.102738643672836E+03
             -0.657425049826113E+01
             -0.265111036260726E+01
              0.385534256611686E+01
              0.786300974003372E+02
             -0.106882995031760E+02
              0.414943522041954E+02
              0.441359274873796E+02
              0.383648359125924E+02
             -0.992891365956984E+01
              0.624781651999124E+02
             -0.132893182697425E+02
             -0.305886839989975E+02
             -0.477574661479887E+02
              0.584871984738766E+01
              0.367773333266440E+02
             -0.601052790594215E+01
              0.391381112128715E+02
             -0.175350256573506E+01
              0.652637081215983E+02
              0.186411523855379E+02
              0.995462242483646E+01
             -0.121748732797028E+02
              0.330781842885959E+02
              0.360841063241919E+02
              0.231932965700263E+02
             -0.497320491430031E+00
             -0.548319485411974E+02
              0.259434340929835E+02
              0.174299857264361E+02
              0.401072385478325E+02
              0.270821687631704E+02
              0.370985422766615E+02
             -0.600196656429546E+01
              0.249864165072201E+02
             -0.297557785171705E+02
             -0.197101282116569E+01
             -0.566927014387180E+02
             -0.306415162364253E+02
              0.376957253899979E+02
             -0.931876122519059E+02
              0.293227113598252E+02
              0.183446146761717E+02
              0.836746912086286E+02
             -0.299512443474537E+02
              0.328229186612795E+02
             -0.137239486096811E+02
             -0.461886396575527E+02
             -0.758595544705902E+02
             -0.521874349663518E+01
             -0.856183761031931E+02
              0.199197582772254E+02
             -0.246647265024780E+02
              0.304515161913715E+02
              0.236221932290741E+02
             -0.240062607173571E+02
             -0.264362629487964E+02
              0.389140937843338E+02
             -0.585978927561933E+02
             -0.116251089707638E+02
             -0.195323767352470E+02
              0.211701418610791E+02
             -0.889839771264985E+01
              0.360099581447335E+01
             -0.199810694449656E+02
              0.556468568700247E+02
             -0.437470076312296E+02
              0.783595489608706E+01
              0.582969174661663E+02
             -0.321909118941655E+02
              0.360164337824631E+01
             -0.880981399009420E+01
             -0.666452237661018E+02
             -0.480604127487068E+02
             -0.858382903148880E+01
              0.239601131969872E+02
              0.301006170081777E+02
              0.858512341720456E+01
             -0.410477674517858E+01
              0.150913395724604E+02
             -0.437974554861443E+02
              0.333414941944517E+01
             -0.528991613561514E+02
             -0.323813750478682E+02
              0.472687993737346E+02
             -0.293893140255449E+02
              0.619680946572203E+02
             -0.213904944823965E+02
              0.352085666533176E+02
              0.240683819691254E+02
             -0.641550306848882E+02
             -0.279159194912595E+02
              0.929492678257554E+01
             -0.370210271266230E+02
             -0.337902409587619E+02
             -0.826317044159043E+02
             -0.536886674669899E+02
             -0.508280406341077E+02
             -0.413673830607727E+02
             -0.997665023129315E+00
              0.987447108614691E+01
              0.102724669810601E+01
              0.152251342937601E+02
             -0.546885691020556E+02
              0.141362625865850E+02
              0.256018629043100E+02
             -0.663888345781717E+02
             -0.699489205670407E+02
             -0.429805790414836E+02
             -0.170871973898980E+02
              0.177674036763066E+02
              0.456409611134507E+01
             -0.423906524317806E+02
              0.364810858323007E+02
             -0.215348768322718E+02
              0.515283342088192E+02
             -0.883549777015581E+02
              0.595254530626422E+02
             -0.210833218449402E+01
             -0.366785664777146E+02
             -0.215054390768062E+02
              0.471230555355689E+01
              0.372613226441381E+02
             -0.753297680218713E+02
             -0.120146958774914E+02
             -0.215979849902515E+02
              0.509205194647695E+02
              0.861494836641677E+02
             -0.961223847096718E+02
              0.940085395653695E+02
              0.465794919162332E+02
             -0.722228303379519E+02
             -0.365146511811903E+02
              0.748723366512138E+02
              0.629560004826776E+02
             -0.180429408851073E+02
             -0.460867198394362E+01
              0.726378594077197E+01
              0.645965599333242E+02
             -0.506066937022334E+02
              0.157721178142266E+02
             -0.469347670993076E+01
              0.346465797944415E+02
             -0.744006821089818E+02
             -0.645687303507748E+01
             -0.349733343365413E+02
              0.458670505519071E+02
              0.467054926161268E+02
             -0.858307221295941E+02
             -0.485024771943650E+02
             -0.255305259437315E+02
             -0.337773679121327E+02
             -0.108643565206328E+02
             -0.241769371311140E+02
              0.425522519884362E+02
              0.399149412429980E+02
             -0.561786910708554E+01
             -0.414487905889859E+02
             -0.847101596245536E+02
              0.441223811313060E+02
             -0.521165941824060E+02
             -0.311725563614808E+02
              0.544010971316797E+01
             -0.321181283399420E+02
             -0.396199991230906E+02
             -0.239032918449732E+02
             -0.383618936294732E+02
             -0.269665592911929E+02
             -0.480367600949898E+02
              0.561390612327736E+02
              0.635401418159167E+02
             -0.168948297481882E+01
             -0.260273569170869E+02
             -0.626889608896192E+01
              0.439527473756407E+02
             -0.864161977012214E+02
             -0.145230081628612E+02
              0.521453887312648E+02
              0.661096838516378E+02
             -0.243880184312837E+02
              0.908737170665700E+01
              0.521427340189328E+02
              0.197621186338075E+02
             -0.824940577287930E+01
             -0.451597627443763E+02
              0.279860132394715E+02
             -0.351043487532959E+02
             -0.164006781495779E+02
             -0.152114635794274E+02
             -0.199508535640339E+02
              0.194097650565727E+02
              0.796950897660190E+02
              0.189136729704785E+01
              0.532790707952987E+01
             -0.883696415284256E+02
             -0.175105233222071E+02
             -0.350917759359230E+02
              0.271843826229144E+01
             -0.407992024408221E+02
              0.727091698549214E+02
              0.781083127285384E+02
              0.123229352736570E+02
             -0.140885407562698E+02
              0.143452437360488E+02
[...]
              0.282609304729504E+02
              0.141195079199301E+03
              0.241142620978520E+02
              0.121781035860348E+02
             -0.462118142436202E+02
             -0.634898666786893E+02
             -0.188445620193811E+02
              0.328511932751982E+02
             -0.424865172418208E+01
              0.189128030856936E+02
              0.334687198772008E+02
             -0.583547780109751E+02
              0.221266656773651E+02
              0.580031518104429E+02
              0.550159895288893E+02
             -0.415529800616849E+01
             -0.137830493814249E+01
             -0.990249529007855E+01
             -0.480181937812289E+02
             -0.671828135142840E+02
              0.781818927734557E+02
             -0.518735275158483E+01
             -0.585324071012062E+02
              0.169841293560000E+01
             -0.204092938460716E+02
              0.934619547671902E+02
             -0.215604818812956E+02
             -0.352027515786673E+02
              0.333880507989095E+02
             -0.145147763000427E+02
              0.387536110124409E+02
             -0.233893697580004E+01
              0.100648080383757E+03
              0.487471835586890E+02
             -0.511922802659288E+01
             -0.320272744790771E+02
              0.231110151710564E+02
             -0.526053579914532E+02
             -0.127552257258450E+02
              0.582903884440830E+02
             -0.286571049527149E+02
             -0.436258678568388E+02
             -0.222266916817960E+02
              0.516323490804327E+02
              0.124088219372719E+02
             -0.845117690140487E+02
              0.302425096106492E+02
              0.151548499019044E+02
              0.573552129873835E+01
             -0.511319968506698E+02
             -0.380995094630771E+01
              0.321489373515406E+02
              0.510503826941649E+02
              0.629916147957823E+02
              0.227626112393421E+02
              0.719956212061135E+00
             -0.495760507550929E+02
             -0.508144370097630E+02
             -0.744623144331396E+02
             -0.611318980588931E+01
              0.307563431792451E+02
             -0.377854281566212E+01
              0.544542296140729E+02
             -0.316601359980932E+02
              0.165599766709336E+02
             -0.101984048507510E+02
             -0.288376825112694E+02
              0.583084496363381E+02
              0.789451965686794E+01
              0.601625736199157E+02
              0.507247928906918E+01
              0.263981501805933E+02
             -0.191947345513536E+02
              0.583323222342657E+02
             -0.110989486314945E+02
             -0.110328544611958E+00
             -0.786680330874608E+02
             -0.127934765467424E+02
              0.715849092978346E+02
              0.670097565063945E+02
              0.250852983532061E+02
             -0.129665413790345E+02
              0.343699208599654E+01
             -0.172696526699594E+02
             -0.201309796019879E+01
              0.903921667047652E+02
              0.123329012981037E+01
             -0.189233702969624E+02
             -0.110257568173611E+03
             -0.550275389762661E+02
             -0.373396804901791E+02
             -0.655590616540071E+02
             -0.552988744026559E+02
             -0.679307033407128E+02
             -0.445111643741180E+02
             -0.409425299244291E+02
             -0.449755350845702E+02
              0.481504212876069E+02
             -0.293137418148156E+02
             -0.990974670670181E+02
              0.417078615127396E+02
             -0.258634608435670E+02
             -0.787184967081749E+02
              0.939316928235733E+02
             -0.218596899655313E+02
              0.227267067968552E+02
              0.453309199429295E+02
             -0.136290250351516E+01
              0.253335788106014E+02
              0.470203028729597E+01
              0.414849048409355E+00
             -0.150179531988873E+02
             -0.712571867480978E+02
              0.132726408425324E+02
             -0.128815959410543E+03
              0.621228568069605E+02
             -0.438793960285919E+02
             -0.162287473312973E+02
             -0.157289414898206E+02
              0.707435104554786E+01
             -0.226929516998253E+02
              0.295689794321031E+02
             -0.517993848051138E+02
              0.365448165501049E+02
              0.369159716390282E+02
              0.167688517386321E+02
              0.100233798831800E+02
              0.196896705923340E+02
              0.618683915599667E+01
              0.308867658282813E+02
             -0.795466364044344E+01
             -0.589385876860089E+02
              0.752567426839209E+01
             -0.151226827204862E+02
             -0.191868490376407E+01
              0.504051836294544E+02
             -0.823207458209819E+02
             -0.148980000282967E+01
              0.569704860471745E+00
              0.991977377447813E+01
              0.316964026514450E+02
             -0.122968018376822E+02
              0.831866809154135E+02
              0.485571596755997E+02
             -0.182432649805655E+02
             -0.949713921794228E+01
              0.104443474377197E+01
              0.765912124551512E+02
             -0.583839987765605E+02
             -0.105301688257061E+03
              0.307979104589326E+02
             -0.162893092225669E+02
             -0.138960886246041E+02
              0.129672552500463E+02
              0.764932934054193E+02
              0.462131982681385E+02
             -0.152617635463559E+02
             -0.500687517745711E+02
             -0.545443129182054E+01
              0.305117804545860E+02
             -0.110877590639400E+02
             -0.752427588768758E+02
             -0.269632003196608E+01
             -0.885654810731479E+02
             -0.473345379722281E+02
              0.764850332878124E+02
             -0.481236386760400E+02
             -0.633401634863472E+02
             -0.511934722623774E+02
             -0.348104250410476E+02
              0.339546004582314E+02
              0.817820006600813E+02
             -0.355202690286126E+01
              0.275344929174923E+02
             -0.183012608501924E+02
             -0.690898954034314E+02
              0.462808963955029E+02
             -0.442933954239485E+02
              0.320440717510028E+02
              0.374705361182962E+02
             -0.650298033855512E+01
              0.388449610721776E+02
              0.436388421375702E+02
              0.100154815534328E+03
             -0.155326060747756E+02
             -0.453953139975344E+02
             -0.609765773444433E+02
             -0.123142185210122E+02
             -0.231478700411282E+02
              0.102568073725248E+03
             -0.447058870422179E+02
              0.104716364619327E+02
              0.968828914772149E+01
             -0.263588351269218E+02
             -0.795188201580440E+02
             -0.696409265911467E+01
              0.975396687189054E+02
              0.930980151460999E+01
              0.804707612926973E+01
             -0.524595947291502E+02
             -0.602889593207954E+02
             -0.556949911319951E+01
              0.498319355212234E+02
             -0.220771888808586E+02
              0.107499519759134E+03
             -0.433727180111022E+02
              0.145478085516119E+02
             -0.223242857383856E+02
             -0.715656518974201E+02
              0.165461198916307E+01
             -0.499185234939691E+02
             -0.757274360286762E+02
              0.612375926657296E+01
              0.235355208955210E+01
              0.511889070403775E+02
              0.186136475505616E+02
             -0.322072059454051E+02
              0.228899400262457E+02
             -0.807251487427206E+02
             -0.519383106766192E+02
              0.897517908399650E+02
              0.141850789833773E+02
             -0.187535447195701E+02
             -0.351084153152749E+02
             -0.269350344049417E+01
             -0.582875324777297E+01
              0.826367360752856E+02
              0.415938202563053E+02
             -0.165425862301595E+02
             -0.121606018084586E+02
             -0.425784049022829E+02
             -0.199782030579728E+02
             -0.666976872433009E+02
              0.457436839444009E+02
              0.543586606742730E+01
              0.144387842038936E+02
              0.155455589907702E+02
             -0.519496153439000E+00
             -0.167502982587378E+02
             -0.307835217991031E+01
             -0.999344003819402E+02
             -0.229296436458868E+02
             -0.762320815441933E+01
             -0.944874924027704E+01
              0.543833096584642E+02
              0.621011935117898E+02
              0.164074970945650E+02
             -0.966279037890585E+02
              0.644546542294568E+02
             -0.213899254961640E+02
             -0.375279477264677E+02
             -0.860181322540920E+02
             -0.385489147389526E+02
              0.561906205886870E+02
              0.242939502817034E+02
              0.507830716416584E+01
              0.290750667903363E+02
             -0.562303391527673E+02
             -0.420174784134383E+02
              0.512574271107811E+02
              0.385309492029146E+02
              0.516557805841550E+02
             -0.120963486734854E+01
              0.682043653000164E+01
              0.567008467984440E+02
              0.958114858191545E+02
             -0.299223903810985E+02
              0.321091216429711E+02
             -0.117783326917570E+02
             -0.410131192150947E+02
             -0.312786236210477E+02
             -0.298862114653735E+02
             -0.130720799253772E+02
             -0.521106520444837E+02
             -0.216095080895973E+02
             -0.140554469520839E+03
              0.367504461624761E+02
              0.205630587592957E+02
             -0.393148457619291E+01
             -0.378171258521884E+02
             -0.203150993616966E+02
             -0.524355787634851E+02
              0.150853673510656E+02
              0.816314599783349E+02
             -0.251346698656690E+02
             -0.162216531291178E+02
              0.237259557701360E+02
             -0.487229140962029E+02
              0.876425591426706E+02
              0.153568964267261E+02
              0.225721896838244E+02
              0.487709182862374E+02
              0.320285215142337E+01
              0.539346770664340E+02
              0.142204089937393E+02
             -0.106236758575680E+02
              0.725581671614592E+01
              0.802747911816994E+00
              0.723890760588248E+02
              0.100832421729746E+02
              0.119759663074323E+02
             -0.129774028873582E+02
              0.131831905931115E+02
             -0.906817420714054E+02
             -0.324023584206517E+02
             -0.455190142371927E+02
              0.482694298879929E+02
             -0.289585263080157E+02
             -0.655620319933255E+02
              0.535693788549795E+02
             -0.121305118556825E+02
              0.438070070149324E+02
             -0.894429575243984E+02
              0.230931943338301E+02
              0.853964951338037E+01
              0.581279705796055E+01
             -0.827517133905491E+01
             -0.901462992775384E+01
              0.477122657062276E+02
              0.198713480475533E+01
             -0.472835347586422E+02
             -0.175321111970335E+02
              0.275519822915154E+02
             -0.117395366440569E+03
             -0.925535493797037E+02
              0.395389536292976E+01
              0.117062268004927E+02
             -0.411161693624921E+02
             -0.387886224238264E+01
              0.111615583211954E+03
              0.304844379364872E+02
             -0.569055940200966E+02
              0.921090819782958E+01
             -0.959701939588655E+01
              0.105201475113220E+02
             -0.336182360645012E+02
              0.194558742061267E+02
              0.283438905435517E+02
             -0.294746469955362E+01
              0.107654760718360E+03
             -0.139944096343970E+02
             -0.314430885619510E+02
              0.141724494373422E+02
              0.464652974294546E+02
             -0.354217183068663E+02
             -0.316882509582362E+01
              0.960385130769621E+02
             -0.463200826400521E+01
              0.619214463282034E+02
              0.134712247110565E+02
             -0.896848703851887E+01
             -0.304475477324196E+02
              0.564066555888242E+02
             -0.511475753347250E+02
             -0.219156669480816E+01
             -0.169222387416294E+02
             -0.403244484118881E+02
              0.184427253826975E+02
              0.238301683519183E+02
              0.115952513238408E+02
              0.734000303453627E+00
             -0.382725086414897E+02
              0.214505740577943E+02
             -0.674169120281999E+01
             -0.245327697188413E+02
             -0.209580072879817E+02
              0.202261399538784E+02
             -0.596532648801690E+01
             -0.347430165219989E+02
             -0.106147083224682E+03
              0.102702398379419E+02
              0.247759708117206E+02
             -0.385081115044817E+02
             -0.209889356968041E+02
              0.803295589002646E+02
              0.647692306139396E+01
              0.308948778622515E+02
              0.387290206102892E+01
              0.320060014550357E+02
              0.645103108316084E+01
             -0.371064940074001E+02
             -0.230580632054753E+01
              0.873251627544749E+01
              0.272526391606471E+02
              0.778136151723432E+02
              0.505150178284358E+02
              0.172073011455211E+00
              0.168697967923422E+02
              0.610449695809640E+02
              0.234640948199309E+02
             -0.749476189778841E+02
             -0.272460230119117E+02
              0.150412487960004E+02
              0.557326191566762E+01
              0.253799899912568E+02
             -0.545334494640716E+02
              0.894255014786481E+01
              0.384202176810616E+02
              0.495695688413904E+02
             -0.432858763212577E+02
             -0.689394567731949E+01
             -0.206905255864206E+01
             -0.132902049689430E+02
             -0.364149432837782E+02
             -0.214560808642908E+02
             -0.200652957336162E+01
              0.788891408113881E+01
              0.419471459278339E+02
             -0.306797633236906E+02
              0.822480978522358E+02
              0.325831113068912E+02
              0.218642156249923E+02
              0.331507752396482E+02
              0.321791968814886E+02
              0.344808951708230E+02
              0.534602341834945E+02
             -0.431722503025374E+02
              0.616711803087775E+02
             -0.111757045354600E+03
              0.305857917419575E+02
             -0.106029469724680E+03
              0.850888178803668E+02
              0.687102057770005E+02
             -0.109416302102367E+02
             -0.490948929284101E+02
             -0.427639554511849E+02
             -0.620931947388858E+02
             -0.625817897464449E+02
              0.549323157896533E+02
              0.403452166756819E+02
              0.235666777366766E+02
              0.372428943424962E+02
              0.401319608690291E+02
             -0.380285403464389E+02
             -0.197079550220387E+02
              0.584064228506429E+02
             -0.115557337439547E+02
              0.549557763294068E+02
              0.695952780571447E+02
             -0.554017133892964E+01
             -0.702897243716392E+02
             -0.894544916483028E+00
             -0.248052914421391E+01
             -0.877651513832632E+01
             -0.182297966517905E+01
             -0.649868302846079E+02
             -0.210020466047856E+02
              0.534918768099207E+01
              0.895156720995413E+01
              0.466661285738541E+02
             -0.395892854320022E+02
              0.654685029638225E+02
             -0.423514901086748E+02
              0.209307147754563E+02
              0.348375859292992E+02
 
 BEEF-vdW xc energy contributions
           1 :   -779.498613439128     
           2 :    716.286320206265     
           3 :   -606.739306810235     
           4 :    477.633908503070     
           5 :   -356.291818459348     
           6 :    262.491968399029     
           7 :   -203.934448494629     
           8 :    176.162530144946     
           9 :   -166.543849250030     
          10 :    160.420714049143     
          11 :   -146.913904686184     
          12 :    122.188237122691     
          13 :   -89.3251180285062     
          14 :    55.4118253989307     
          15 :   -27.5246011612054     
          16 :    9.43548819484693     
          17 :  -0.325337901368925     
          18 :   -4.24332752936778     
          19 :    9.81084530007934     
          20 :   -20.2886137650784     
          21 :    36.2716840034799     
          22 :   -55.0598177800335     
          23 :    72.1994150727514     
          24 :   -83.7086156410943     
          25 :    87.8938673130705     
          26 :   -85.9527875802894     
          27 :    81.1869808896012     
          28 :   -77.3086012402943     
          29 :    76.6837154284405     
          30 :   -79.3374912881444     
          31 :   -85.4632307129049     
          32 :   -65.5388883295566     

     Writing output data file ./pwscf.save/
 
     init_run     :    302.26s CPU    306.77s WALL (       1 calls)
     electrons    :  11345.19s CPU  11459.86s WALL (       1 calls)
     forces       :     93.00s CPU     94.16s WALL (       1 calls)

     Called by init_run:
     wfcinit      :    254.60s CPU    258.02s WALL (       1 calls)
     potinit      :     44.61s CPU     44.98s WALL (       1 calls)
     hinit0       :      1.11s CPU      1.22s WALL (       1 calls)

     Called by electrons:
     c_bands      :   9527.44s CPU   9617.18s WALL (      19 calls)
     sum_band     :   1269.13s CPU   1280.18s WALL (      19 calls)
     v_of_rho     :     99.60s CPU    103.43s WALL (      19 calls)
     newd         :     27.57s CPU     37.90s WALL (      19 calls)
     PAW_pot      :    130.69s CPU    130.69s WALL (      19 calls)
     mix_rho      :    336.26s CPU    336.85s WALL (      19 calls)
     vdW_kernel   :     33.65s CPU     33.65s WALL (       1 calls)

     Called by c_bands:
     init_us_2    :     71.89s CPU     72.15s WALL (     520 calls)
     cegterg      :   8809.00s CPU   8898.44s WALL (     247 calls)

     Called by *egterg:
     cdiaghg      :     89.11s CPU     89.13s WALL (    1377 calls)
     h_psi        :   5468.82s CPU   5499.95s WALL (    1403 calls)
     s_psi        :    970.77s CPU    970.80s WALL (    1403 calls)
     g_psi        :     15.40s CPU     15.40s WALL (    1143 calls)

     Called by h_psi:
     h_psi:calbec :    901.71s CPU    901.83s WALL (    1403 calls)
     vloc_psi     :   3572.14s CPU   3573.21s WALL (    1403 calls)
     add_vuspsi   :    970.69s CPU    970.76s WALL (    1403 calls)

     General routines
     calbec       :   1324.82s CPU   1324.98s WALL (    1702 calls)
     fft          :     43.49s CPU     43.55s WALL (    3159 calls)
     ffts         :    106.00s CPU    106.02s WALL (    8302 calls)
     fftw         :   3672.24s CPU   3672.86s WALL (  317359 calls)
 
     Parallel routines
 
     PWSCF        :      3h17m CPU      3h19m WALL

 
   This run was terminated on:  19: 4: 0  20Dec2022            

=------------------------------------------------------------------------------=
   JOB DONE.
=------------------------------------------------------------------------------=
