
     Program PWSCF v.6.7MaX starts on 26Sep2022 at 14: 9: 5 

     This program is part of the open-source Quantum ESPRESSO suite
     for quantum simulation of materials; please cite
         "P. Giannozzi et al., J. Phys.:Condens. Matter 21 395502 (2009);
         "P. Giannozzi et al., J. Phys.:Condens. Matter 29 465901 (2017);
          URL http://www.quantum-espresso.org", 
     in publications or presentations arising from this work. More details at
     http://www.quantum-espresso.org/quote

     Parallel version (MPI), running on     1 processors

     MPI processes distributed on     1 nodes
     Reading input from ch2ch3-ensemble.in
Warning: card &CELL ignored
Warning: card / ignored

     Current dimensions of program PWSCF are:
     Max number of different atomic species (ntypx) = 10
     Max number of k-points (npk) =  40000
     Max angular momentum in pseudopotentials (lmaxx) =  3
     file Pt.pbe-n-kjpaw_psl.1.0.0.UPF: wavefunction(s)  6S 5D renormalized
     file C.pbe-n-kjpaw_psl.1.0.0.UPF: wavefunction(s)  2S 2P renormalized
     file H.pbe-kjpaw_psl.1.0.0.UPF: wavefunction(s)  1S renormalized

     **************************************************************************
     Initializing libbeef V0.1.2 with the BEEF-vdW functional.
     Citation: Wellendorff et al., PRB 85, 235149 (2012).
     **************************************************************************


     IMPORTANT: XC functional enforced from input :
     Exchange-correlation= BEEF-VDW
                           (   1   4  43  14   2   0   0)
     Any further DFT definition will be discarded
     Please, verify this is what you really want


     Subspace diagonalization in iterative solution of the eigenvalue problem:
     a serial algorithm will be used

 
     G-vector sticks info
     --------------------
     sticks:   dense  smooth     PW     G-vecs:    dense   smooth      PW
     Sum        4267    4267   1159               742359   742359  104567
 


     bravais-lattice index     =            0
     lattice parameter (alat)  =      16.0349  a.u.
     unit-cell volume          =   11815.1174 (a.u.)^3
     number of atoms/cell      =           43
     number of atomic types    =            3
     number of electrons       =       373.00
     number of Kohn-Sham states=          224
     kinetic-energy cutoff     =      60.0000  Ry
     charge density cutoff     =     240.0000  Ry
     scf convergence threshold =      1.0E-06
     mixing beta               =       0.7000
     number of iterations used =            8  local-TF  mixing
     Exchange-correlation= BEEF-VDW
                           (   1   4  43  14   2   0   0)

     celldm(1)=  16.034858  celldm(2)=   0.000000  celldm(3)=   0.000000
     celldm(4)=   0.000000  celldm(5)=   0.000000  celldm(6)=   0.000000

     crystal axes: (cart. coord. in units of alat)
               a(1) = (   1.000000   0.000000   0.000000 )  
               a(2) = (   0.500000   0.866025   0.000000 )  
               a(3) = (   0.000000   0.000000   3.309117 )  

     reciprocal axes: (cart. coord. in units 2 pi/alat)
               b(1) = (  1.000000 -0.577350  0.000000 )  
               b(2) = (  0.000000  1.154701  0.000000 )  
               b(3) = (  0.000000  0.000000  0.302195 )  


     PseudoPot. # 1 for Pt read from file:
     /users/bkreitz1/quantum-espresso/potentials/Pt.pbe-n-kjpaw_psl.1.0.0.UPF
     MD5 check sum: 04dc8a03c51ece93fc7b5889c2958091
     Pseudo is Projector augmented-wave + core cor, Zval = 10.0
     Generated using 'atomic' code by A. Dal Corso  v.6.7MaX
     Shape of augmentation charge: PSQ
     Using radial grid of 1277 points,  6 beta functions with: 
                l(1) =   0
                l(2) =   0
                l(3) =   1
                l(4) =   1
                l(5) =   2
                l(6) =   2
     Q(r) pseudized with 0 coefficients 


     PseudoPot. # 2 for C  read from file:
     /users/bkreitz1/quantum-espresso/potentials/C.pbe-n-kjpaw_psl.1.0.0.UPF
     MD5 check sum: a169b0ebad56f5ec0d79c4633f80bf22
     Pseudo is Projector augmented-wave + core cor, Zval =  4.0
     Generated using 'atomic' code by A. Dal Corso  v.6.7MaX
     Shape of augmentation charge: PSQ
     Using radial grid of 1073 points,  4 beta functions with: 
                l(1) =   0
                l(2) =   0
                l(3) =   1
                l(4) =   1
     Q(r) pseudized with 0 coefficients 


     PseudoPot. # 3 for H  read from file:
     /users/bkreitz1/quantum-espresso/potentials/H.pbe-kjpaw_psl.1.0.0.UPF
     MD5 check sum: ae98473e6dc62675f0d0baffdab24f65
     Pseudo is Projector augmented-wave, Zval =  1.0
     Generated using 'atomic' code by A. Dal Corso  v.6.7MaX
     Shape of augmentation charge: PSQ
     Using radial grid of  929 points,  2 beta functions with: 
                l(1) =   0
                l(2) =   0
     Q(r) pseudized with 0 coefficients 


     atomic species   valence    mass     pseudopotential
        Pt            10.00   195.08400     Pt( 1.00)
        C              4.00    12.01100     C ( 1.00)
        H              1.00     1.00800     H ( 1.00)

     No symmetry found



   Cartesian axes

     site n.     atom                  positions (alat units)
         1           Pt  tau(   1) = (   0.0000000   0.0000000   1.0017346  )
         2           Pt  tau(   2) = (   0.3333333   0.0000000   1.0017346  )
         3           Pt  tau(   3) = (   0.6666667   0.0000000   1.0017346  )
         4           Pt  tau(   4) = (   0.1666667   0.2886751   1.0017346  )
         5           Pt  tau(   5) = (   0.5000000   0.2886751   1.0017346  )
         6           Pt  tau(   6) = (   0.8333333   0.2886751   1.0017346  )
         7           Pt  tau(   7) = (   0.3333333   0.5773503   1.0017346  )
         8           Pt  tau(   8) = (   0.6666667   0.5773503   1.0017346  )
         9           Pt  tau(   9) = (   1.0000000   0.5773503   1.0017346  )
        10           Pt  tau(  10) = (   0.1666667   0.0962250   1.2739001  )
        11           Pt  tau(  11) = (   0.5000000   0.0962250   1.2739001  )
        12           Pt  tau(  12) = (   0.8333333   0.0962250   1.2739001  )
        13           Pt  tau(  13) = (   0.3333333   0.3849002   1.2739001  )
        14           Pt  tau(  14) = (   0.6666667   0.3849002   1.2739001  )
        15           Pt  tau(  15) = (   1.0000000   0.3849002   1.2739001  )
        16           Pt  tau(  16) = (   0.5000000   0.6735753   1.2739001  )
        17           Pt  tau(  17) = (   0.8333333   0.6735753   1.2739001  )
        18           Pt  tau(  18) = (   1.1666667   0.6735753   1.2739001  )
        19           Pt  tau(  19) = (  -0.0001428   0.1926818   1.5413936  )
        20           Pt  tau(  20) = (   0.3354362   0.1939714   1.5469030  )
        21           Pt  tau(  21) = (   0.6645972   0.1935487   1.5462120  )
        22           Pt  tau(  22) = (   0.1666501   0.4813275   1.5424823  )
        23           Pt  tau(  23) = (   0.4996430   0.4791142   1.5464340  )
        24           Pt  tau(  24) = (   0.8329809   0.4812424   1.5424556  )
        25           Pt  tau(  25) = (   0.3329553   0.7698188   1.5419039  )
        26           Pt  tau(  26) = (   0.6665443   0.7699708   1.5414289  )
        27           Pt  tau(  27) = (   0.9998803   0.7701499   1.5424592  )
        28           Pt  tau(  28) = (  -0.0006459   0.0000661   1.8157440  )
        29           Pt  tau(  29) = (   0.3324338  -0.0002945   1.8152143  )
        30           Pt  tau(  30) = (   0.6664064  -0.0001326   1.8162989  )
        31           Pt  tau(  31) = (   0.1656294   0.2887683   1.8151486  )
        32           Pt  tau(  32) = (   0.5000046   0.2886152   1.8437863  )
        33           Pt  tau(  33) = (   0.8330499   0.2883995   1.8153397  )
        34           Pt  tau(  34) = (   0.3328147   0.5776470   1.8165004  )
        35           Pt  tau(  35) = (   0.6658144   0.5778720   1.8154592  )
        36           Pt  tau(  36) = (   0.9993893   0.5774716   1.8162515  )
        37           C   tau(  37) = (   0.5159632   0.2946243   2.0909626  )
        38           C   tau(  38) = (   0.3779595   0.2207455   2.1768158  )
        39           H   tau(  39) = (   0.6267839   0.2349621   2.1174862  )
        40           H   tau(  40) = (   0.5275736   0.4198286   2.1182756  )
        41           H   tau(  41) = (   0.3978234   0.2325168   2.3043015  )
        42           H   tau(  42) = (   0.3647983   0.0953449   2.1511125  )
        43           H   tau(  43) = (   0.2666664   0.2797813   2.1513639  )

     number of k points=    13  Marzari-Vanderbilt smearing, width (Ry)=  0.0200
                       cart. coord. in units 2pi/alat
        k(    1) = (   0.0000000   0.0000000   0.0000000), wk =   0.0800000
        k(    2) = (   0.0000000   0.2309401   0.0000000), wk =   0.1600000
        k(    3) = (   0.0000000   0.4618802   0.0000000), wk =   0.1600000
        k(    4) = (   0.2000000  -0.1154701   0.0000000), wk =   0.1600000
        k(    5) = (   0.2000000   0.1154701   0.0000000), wk =   0.1600000
        k(    6) = (   0.2000000   0.3464102   0.0000000), wk =   0.1600000
        k(    7) = (   0.2000000  -0.5773503   0.0000000), wk =   0.1600000
        k(    8) = (   0.2000000  -0.3464102   0.0000000), wk =   0.1600000
        k(    9) = (   0.4000000  -0.2309401   0.0000000), wk =   0.1600000
        k(   10) = (   0.4000000  -0.0000000   0.0000000), wk =   0.1600000
        k(   11) = (   0.4000000   0.2309401   0.0000000), wk =   0.1600000
        k(   12) = (   0.4000000  -0.6928203   0.0000000), wk =   0.1600000
        k(   13) = (   0.4000000  -0.4618802   0.0000000), wk =   0.1600000

     Dense  grid:   742359 G-vectors     FFT dimensions: (  80,  80, 270)

     Estimated max dynamical RAM per process >       8.97 GB

     Check: negative core charge=   -0.000002

     Initial potential from superposition of free atoms

     starting charge  372.99376, renormalised to  373.00000

     negative rho (up, down):  1.150E-02 0.000E+00


     %%%%%%%%%%%%%%%%%%%%%%%%%%%%%%%%%%%%%%%%%%%%%%%%%%%%%%%%%%%%%%%%%%%%%%%%
     %                                                                      %
     % You are using vdW-DF, which was implemented by the Thonhauser group. %
     % Please cite the following two papers that made this development      %
     % possible and the two reviews that describe the various versions:     %
     %                                                                      %
     %   T. Thonhauser et al., PRL 115, 136402 (2015).                      %
     %   T. Thonhauser et al., PRB 76, 125112 (2007).                       %
     %   K. Berland et al., Rep. Prog. Phys. 78, 066501 (2015).             %
     %   D.C. Langreth et al., J. Phys.: Condens. Matter 21, 084203 (2009). %
     %                                                                      %
     %                                                                      %
     % If you are calculating the stress with vdW-DF, please also cite:     %
     %                                                                      %
     %   R. Sabatini et al., J. Phys.: Condens. Matter 24, 424209 (2012).   %
     %                                                                      %
     %%%%%%%%%%%%%%%%%%%%%%%%%%%%%%%%%%%%%%%%%%%%%%%%%%%%%%%%%%%%%%%%%%%%%%%%


     Starting wfcs are  337 randomized atomic wfcs
     Checking if some PAW data can be deallocated... 

     total cpu time spent up to now is      354.9 secs

     Self-consistent Calculation

     iteration #  1     ecut=    60.00 Ry     beta= 0.70
     Davidson diagonalization with overlap
     ethr =  1.00E-02,  avg # of iterations =  2.5

     Threshold (ethr) on eigenvalues was too large:
     Diagonalizing with lowered threshold

     Davidson diagonalization with overlap
     ethr =  7.29E-04,  avg # of iterations =  3.2

     negative rho (up, down):  1.140E-02 0.000E+00

     total cpu time spent up to now is     1740.2 secs

     total energy              =  -27798.21623051 Ry
     estimated scf accuracy    <       2.96571103 Ry

     iteration #  2     ecut=    60.00 Ry     beta= 0.70
     Davidson diagonalization with overlap
     ethr =  7.95E-04,  avg # of iterations =  2.3

     negative rho (up, down):  9.632E-03 0.000E+00

     total cpu time spent up to now is     2369.4 secs

     total energy              =  -27798.30879105 Ry
     estimated scf accuracy    <       1.19747121 Ry

     iteration #  3     ecut=    60.00 Ry     beta= 0.70
     Davidson diagonalization with overlap
     ethr =  3.21E-04,  avg # of iterations =  5.1

     negative rho (up, down):  6.076E-03 0.000E+00

     total cpu time spent up to now is     3032.2 secs

     total energy              =  -27798.33528069 Ry
     estimated scf accuracy    <       0.43008276 Ry

     iteration #  4     ecut=    60.00 Ry     beta= 0.70
     Davidson diagonalization with overlap
     c_bands:  1 eigenvalues not converged
     ethr =  1.15E-04,  avg # of iterations = 10.6

     negative rho (up, down):  4.975E-03 0.000E+00

     total cpu time spent up to now is     3856.1 secs

     total energy              =  -27798.40034500 Ry
     estimated scf accuracy    <       0.25579922 Ry

     iteration #  5     ecut=    60.00 Ry     beta= 0.70
     Davidson diagonalization with overlap
     ethr =  6.86E-05,  avg # of iterations =  3.8

     negative rho (up, down):  2.976E-03 0.000E+00

     total cpu time spent up to now is     4493.7 secs

     total energy              =  -27798.40173809 Ry
     estimated scf accuracy    <       0.04482630 Ry

     iteration #  6     ecut=    60.00 Ry     beta= 0.70
     Davidson diagonalization with overlap
     c_bands:  1 eigenvalues not converged
     ethr =  1.20E-05,  avg # of iterations =  8.6

     negative rho (up, down):  2.646E-03 0.000E+00

     total cpu time spent up to now is     5430.7 secs

     total energy              =  -27798.41272756 Ry
     estimated scf accuracy    <       0.03147318 Ry

     iteration #  7     ecut=    60.00 Ry     beta= 0.70
     Davidson diagonalization with overlap
     ethr =  8.44E-06,  avg # of iterations =  8.7

     negative rho (up, down):  3.036E-03 0.000E+00

     total cpu time spent up to now is     6103.2 secs

     total energy              =  -27798.41297950 Ry
     estimated scf accuracy    <       0.02052105 Ry

     iteration #  8     ecut=    60.00 Ry     beta= 0.70
     Davidson diagonalization with overlap
     ethr =  5.50E-06,  avg # of iterations = 10.0

     negative rho (up, down):  5.251E-03 0.000E+00

     total cpu time spent up to now is     6807.2 secs

     total energy              =  -27798.41358519 Ry
     estimated scf accuracy    <       0.01163685 Ry

     iteration #  9     ecut=    60.00 Ry     beta= 0.70
     Davidson diagonalization with overlap
     ethr =  3.12E-06,  avg # of iterations =  8.2

     negative rho (up, down):  8.042E-03 0.000E+00

     total cpu time spent up to now is     7483.5 secs

     total energy              =  -27798.41389822 Ry
     estimated scf accuracy    <       0.00232979 Ry

     iteration # 10     ecut=    60.00 Ry     beta= 0.70
     Davidson diagonalization with overlap
     c_bands:  2 eigenvalues not converged
     c_bands:  2 eigenvalues not converged
     ethr =  6.25E-07,  avg # of iterations =  7.2

     negative rho (up, down):  9.012E-03 0.000E+00

     total cpu time spent up to now is     8175.9 secs

     total energy              =  -27798.41412136 Ry
     estimated scf accuracy    <       0.00066743 Ry

     iteration # 11     ecut=    60.00 Ry     beta= 0.70
     Davidson diagonalization with overlap
     ethr =  1.79E-07,  avg # of iterations =  4.8

     negative rho (up, down):  8.917E-03 0.000E+00

     total cpu time spent up to now is     8894.0 secs

     total energy              =  -27798.41425665 Ry
     estimated scf accuracy    <       0.00051329 Ry

     iteration # 12     ecut=    60.00 Ry     beta= 0.70
     Davidson diagonalization with overlap
     ethr =  1.38E-07,  avg # of iterations =  1.5

     negative rho (up, down):  8.776E-03 0.000E+00

     total cpu time spent up to now is     9486.4 secs

     total energy              =  -27798.41429733 Ry
     estimated scf accuracy    <       0.00031050 Ry

     iteration # 13     ecut=    60.00 Ry     beta= 0.70
     Davidson diagonalization with overlap
     ethr =  8.32E-08,  avg # of iterations =  1.5

     negative rho (up, down):  9.967E-03 0.000E+00

     total cpu time spent up to now is    10074.4 secs

     total energy              =  -27798.41431417 Ry
     estimated scf accuracy    <       0.00019203 Ry

     iteration # 14     ecut=    60.00 Ry     beta= 0.70
     Davidson diagonalization with overlap
     ethr =  5.15E-08,  avg # of iterations =  2.0

     negative rho (up, down):  9.993E-03 0.000E+00

     total cpu time spent up to now is    10694.1 secs

     total energy              =  -27798.41431934 Ry
     estimated scf accuracy    <       0.00006908 Ry

     iteration # 15     ecut=    60.00 Ry     beta= 0.70
     Davidson diagonalization with overlap
     ethr =  1.85E-08,  avg # of iterations =  3.8

     negative rho (up, down):  1.073E-02 0.000E+00

     total cpu time spent up to now is    11370.9 secs

     total energy              =  -27798.41432096 Ry
     estimated scf accuracy    <       0.00003449 Ry

     iteration # 16     ecut=    60.00 Ry     beta= 0.70
     Davidson diagonalization with overlap
     ethr =  9.25E-09,  avg # of iterations =  2.6

     negative rho (up, down):  1.196E-02 0.000E+00

     total cpu time spent up to now is    12040.0 secs

     total energy              =  -27798.41431643 Ry
     estimated scf accuracy    <       0.00002391 Ry

     iteration # 17     ecut=    60.00 Ry     beta= 0.70
     Davidson diagonalization with overlap
     ethr =  6.41E-09,  avg # of iterations =  2.0

     negative rho (up, down):  1.197E-02 0.000E+00

     total cpu time spent up to now is    12662.9 secs

     total energy              =  -27798.41431929 Ry
     estimated scf accuracy    <       0.00001729 Ry

     iteration # 18     ecut=    60.00 Ry     beta= 0.70
     Davidson diagonalization with overlap
     ethr =  4.64E-09,  avg # of iterations =  2.0

     negative rho (up, down):  1.240E-02 0.000E+00

     total cpu time spent up to now is    13277.4 secs

     total energy              =  -27798.41431914 Ry
     estimated scf accuracy    <       0.00000695 Ry

     iteration # 19     ecut=    60.00 Ry     beta= 0.70
     Davidson diagonalization with overlap
     ethr =  1.86E-09,  avg # of iterations =  2.2

     negative rho (up, down):  1.280E-02 0.000E+00

     total cpu time spent up to now is    13965.0 secs

     total energy              =  -27798.41431902 Ry
     estimated scf accuracy    <       0.00000232 Ry

     iteration # 20     ecut=    60.00 Ry     beta= 0.70
     Davidson diagonalization with overlap
     ethr =  6.21E-10,  avg # of iterations =  4.2

     negative rho (up, down):  1.278E-02 0.000E+00

     total cpu time spent up to now is    14850.4 secs

     total energy              =  -27798.41431977 Ry
     estimated scf accuracy    <       0.00000116 Ry

     iteration # 21     ecut=    60.00 Ry     beta= 0.70
     Davidson diagonalization with overlap
     ethr =  3.10E-10,  avg # of iterations =  2.0

     negative rho (up, down):  1.295E-02 0.000E+00

     total cpu time spent up to now is    15471.2 secs

     End of self-consistent calculation

          k = 0.0000 0.0000 0.0000 ( 92795 PWs)   bands (ev):

   -12.3757  -8.7098  -7.1746  -5.8866  -4.8202  -4.7753  -4.7725  -4.7688
    -4.7535  -4.7473  -4.7354  -4.7301  -4.6347  -4.2384  -4.2105  -4.2104
    -4.2057  -4.1931  -4.1907  -3.9803  -3.7445  -3.7411  -3.7334  -3.7254
    -3.7199  -3.6887  -3.5250  -3.5209  -3.5182  -3.5119  -3.5088  -3.4663
    -3.2964  -3.2937  -3.2912  -3.2857  -3.2797  -3.2748  -3.2744  -3.2705
    -3.2517  -3.2379  -3.2367  -3.2206  -3.0042  -2.6753  -2.6708  -2.6545
    -2.6440  -2.6355  -2.6104  -2.5843  -2.5820  -2.5807  -2.5364  -2.4464
    -2.4404  -2.3714  -2.3691  -2.2729  -1.9754  -1.8552  -1.8451  -1.8399
    -1.8095  -1.7981  -1.7875  -1.6999  -1.6788  -1.6780  -1.6699  -1.6677
    -1.6443  -1.6437  -1.6236  -1.6186  -1.6185  -1.5988  -1.5945  -1.5909
    -1.5638  -1.5630  -1.5169  -1.4404  -1.4388  -1.4308  -1.4249  -1.4181
    -1.2755  -1.2733  -1.2710  -1.2410  -1.2221  -1.2217  -1.1808  -1.1761
    -1.1254  -1.1119  -1.0698  -1.0691  -1.0342  -1.0097  -1.0091  -0.9700
    -0.9693  -0.9060  -0.8994  -0.8232  -0.8066  -0.8048  -0.7939  -0.7643
    -0.7574  -0.3812  -0.3608  -0.3549  -0.3279  -0.3135  -0.3119  -0.3079
    -0.2751  -0.2454  -0.2447  -0.2355  -0.1631  -0.1574  -0.1480  -0.1402
    -0.0318  -0.0073  -0.0059   0.0583   0.0642   0.1111   0.1561   0.1590
     0.1699   0.1736   0.1796   0.1808   0.4115   0.4167   0.4184   0.4282
     0.4326   0.4495   0.4908   0.4966   0.6760   0.6800   0.6805   0.6911
     0.6939   0.7535   0.8404   0.8441   0.8522   0.8616   0.8622   0.8815
     0.8893   0.8944   0.8953   0.9012   0.9023   0.9792   1.0152   1.0171
     1.0216   1.0353   1.0385   1.0464   1.0728   1.1230   1.1258   1.1299
     1.1347   1.1521   1.1607   1.1682   1.1706   1.2397   1.2417   1.2612
     1.2659   1.2670   1.2728   1.2851   1.3615   1.3663   1.3668   1.3754
     1.3918   1.3926   1.5715   1.5744   1.6664   1.6671   1.7023   1.7053
     1.7059   1.7169   2.0473   2.5242   2.5726   2.5774   2.5845   2.6112
     2.6126   3.8797   4.8602   4.8636   4.8973   4.9104   4.9214   5.6743
     5.9458   6.4169   6.4577   6.4872   6.5053   6.5077   6.5218   6.5265

          k = 0.0000 0.2309 0.0000 ( 92746 PWs)   bands (ev):

   -12.3757  -8.7097  -7.0279  -5.7429  -5.2706  -4.8741  -4.8677  -4.6886
    -4.6430  -4.6151  -4.5575  -4.5196  -4.5156  -4.3393  -4.2916  -4.1647
    -4.1414  -4.1328  -4.1218  -3.9524  -3.8260  -3.7069  -3.7053  -3.6864
    -3.6691  -3.6136  -3.6012  -3.5531  -3.5447  -3.5324  -3.5150  -3.4707
    -3.4268  -3.4090  -3.3240  -3.3158  -3.3003  -3.2686  -3.2596  -3.0986
    -3.0866  -3.0756  -3.0616  -3.0336  -2.9907  -2.7970  -2.7943  -2.7673
    -2.7110  -2.7052  -2.6802  -2.6447  -2.5194  -2.4745  -2.4383  -2.4167
    -2.3874  -2.3663  -2.3521  -2.2681  -2.1386  -2.0661  -2.0345  -1.9805
    -1.9560  -1.9225  -1.8881  -1.8588  -1.8329  -1.8239  -1.8057  -1.7975
    -1.7444  -1.7115  -1.6676  -1.6519  -1.6416  -1.5950  -1.5691  -1.5538
    -1.5213  -1.4914  -1.4800  -1.4496  -1.3918  -1.3765  -1.3697  -1.3671
    -1.3041  -1.2757  -1.2689  -1.2636  -1.2486  -1.2061  -1.1955  -1.1544
    -1.1246  -1.1143  -1.0958  -1.0860  -1.0449  -1.0403  -1.0128  -0.9947
    -0.9641  -0.9303  -0.8598  -0.8368  -0.8192  -0.8149  -0.8013  -0.7868
    -0.7464  -0.7390  -0.7154  -0.7095  -0.6497  -0.6078  -0.5426  -0.3947
    -0.3789  -0.3442  -0.3090  -0.2791  -0.2695  -0.2593  -0.2484  -0.1929
    -0.1004  -0.0858  -0.0328   0.0317   0.0513   0.0898   0.1063   0.1351
     0.1614   0.1882   0.2199   0.2298   0.2751   0.3014   0.3116   0.3233
     0.3352   0.4988   0.5043   0.5331   0.5490   0.5689   0.5934   0.6087
     0.6651   0.6868   0.7088   0.7177   0.7335   0.7879   0.8010   0.8106
     0.8308   0.9138   0.9187   0.9427   1.0102   1.0359   1.0567   1.0753
     1.1023   1.1106   1.1322   1.1488   1.2022   1.2343   1.2386   1.2863
     1.2997   1.3026   1.3411   1.3476   1.3506   1.3557   1.3617   1.4133
     1.4246   1.5542   1.5577   1.5971   1.6111   1.6133   1.6277   1.6592
     1.6882   1.6938   1.7110   1.7948   1.8133   1.8349   1.8736   1.9902
     1.9995   2.0141   2.0405   2.3225   2.4565   2.8708   3.1796   3.1980
     3.3019   3.8504   4.3360   4.6016   4.9614   5.3274   5.3290   5.4497
     5.6234   5.8919   6.0292   6.2806   6.3216   6.5219   6.5865   6.6927

          k = 0.0000 0.4619 0.0000 ( 92744 PWs)   bands (ev):

   -12.3756  -8.7096  -6.6057  -5.9711  -5.3404  -4.9081  -4.9007  -4.8000
    -4.6420  -4.5330  -4.3792  -4.2816  -4.2390  -4.1835  -4.1773  -4.0865
    -4.0138  -3.9801  -3.9575  -3.9458  -3.8929  -3.8214  -3.7911  -3.7809
    -3.7403  -3.7325  -3.6951  -3.6568  -3.6056  -3.6020  -3.5878  -3.3452
    -3.3390  -3.3332  -3.3312  -3.3148  -3.3034  -3.1188  -3.0921  -3.0610
    -3.0522  -3.0463  -3.0264  -2.9616  -2.8527  -2.7562  -2.7481  -2.7405
    -2.7291  -2.6793  -2.6647  -2.6151  -2.6010  -2.5919  -2.5326  -2.5270
    -2.4197  -2.3817  -2.3680  -2.3425  -2.2941  -2.2396  -2.2160  -2.1687
    -2.1526  -2.1272  -2.0178  -1.9628  -1.9395  -1.9309  -1.9061  -1.8620
    -1.8480  -1.8298  -1.7727  -1.7014  -1.6921  -1.6738  -1.6227  -1.5741
    -1.5588  -1.5480  -1.5461  -1.5100  -1.4713  -1.4565  -1.4420  -1.4385
    -1.4218  -1.4085  -1.3918  -1.3884  -1.3185  -1.2953  -1.2849  -1.2605
    -1.2443  -1.2295  -1.1860  -1.1086  -1.1053  -1.0708  -1.0277  -1.0087
    -0.9928  -0.9740  -0.9458  -0.9354  -0.8414  -0.8204  -0.8030  -0.7566
    -0.7157  -0.6929  -0.6039  -0.5611  -0.5515  -0.5101  -0.4761  -0.4158
    -0.4059  -0.3773  -0.3449  -0.3375  -0.3272  -0.2764  -0.2600  -0.2539
    -0.2365  -0.2112  -0.2091  -0.1858  -0.1447  -0.1258  -0.1072  -0.0207
    -0.0123   0.0412   0.0525   0.0975   0.1842   0.1943   0.2037   0.3071
     0.3207   0.3967   0.4434   0.4814   0.5050   0.5199   0.5337   0.5677
     0.5832   0.6351   0.6383   0.6828   0.7119   0.7342   0.8021   0.8203
     0.8399   0.8555   0.8739   0.9053   0.9860   1.0541   1.0707   1.1113
     1.1382   1.1466   1.1586   1.2342   1.2586   1.2681   1.3399   1.3510
     1.3549   1.4097   1.4248   1.4432   1.4674   1.5432   1.5599   1.5905
     1.6027   1.6203   1.6257   1.6337   1.6409   1.8140   1.8179   1.8395
     1.8620   1.8651   2.0305   2.0747   2.2730   2.4640   2.5383   2.6618
     2.8923   2.9047   3.2112   3.2905   3.3173   3.6333   3.7314   4.1104
     4.1180   4.1487   4.3024   4.3855   4.4354   4.4979   4.7645   4.7706
     5.0175   5.4066   5.5546   5.9322   6.0212   6.2796   6.4043   6.5666

          k = 0.2000-0.1155 0.0000 ( 92746 PWs)   bands (ev):

   -12.3757  -8.7097  -7.0279  -5.7429  -5.2712  -4.8739  -4.8671  -4.6874
    -4.6428  -4.6155  -4.5600  -4.5197  -4.5137  -4.3396  -4.2915  -4.1644
    -4.1416  -4.1332  -4.1224  -3.9528  -3.8255  -3.7066  -3.7055  -3.6869
    -3.6683  -3.6133  -3.6015  -3.5525  -3.5453  -3.5325  -3.5154  -3.4707
    -3.4260  -3.4091  -3.3242  -3.3166  -3.3012  -3.2685  -3.2595  -3.0999
    -3.0860  -3.0758  -3.0612  -3.0323  -2.9900  -2.7972  -2.7936  -2.7658
    -2.7119  -2.7038  -2.6805  -2.6465  -2.5196  -2.4756  -2.4376  -2.4161
    -2.3869  -2.3652  -2.3524  -2.2691  -2.1373  -2.0666  -2.0346  -1.9796
    -1.9548  -1.9221  -1.8869  -1.8587  -1.8347  -1.8242  -1.8058  -1.7974
    -1.7448  -1.7138  -1.6680  -1.6513  -1.6408  -1.5960  -1.5695  -1.5567
    -1.5230  -1.4910  -1.4794  -1.4492  -1.3913  -1.3733  -1.3695  -1.3676
    -1.3021  -1.2767  -1.2690  -1.2630  -1.2477  -1.2057  -1.1961  -1.1558
    -1.1263  -1.1137  -1.0943  -1.0864  -1.0453  -1.0398  -1.0129  -0.9944
    -0.9650  -0.9297  -0.8588  -0.8352  -0.8196  -0.8152  -0.8018  -0.7866
    -0.7462  -0.7389  -0.7144  -0.7093  -0.6512  -0.6041  -0.5502  -0.3923
    -0.3771  -0.3444  -0.3091  -0.2795  -0.2698  -0.2618  -0.2491  -0.1937
    -0.1009  -0.0847  -0.0325   0.0312   0.0508   0.0925   0.1040   0.1352
     0.1614   0.1864   0.2220   0.2295   0.2750   0.3005   0.3110   0.3247
     0.3357   0.4986   0.5041   0.5331   0.5493   0.5698   0.5938   0.6098
     0.6656   0.6870   0.7078   0.7177   0.7334   0.7879   0.8008   0.8113
     0.8311   0.9140   0.9181   0.9429   1.0087   1.0352   1.0564   1.0752
     1.1028   1.1102   1.1321   1.1480   1.2019   1.2348   1.2385   1.2862
     1.3001   1.3025   1.3413   1.3472   1.3503   1.3563   1.3626   1.4126
     1.4237   1.5538   1.5578   1.5972   1.6110   1.6135   1.6287   1.6601
     1.6889   1.6943   1.7114   1.7935   1.8129   1.8350   1.8736   1.9903
     1.9994   2.0150   2.0400   2.3234   2.4578   2.8704   3.1788   3.1968
     3.3021   3.8506   4.3363   4.6023   4.9621   5.3275   5.3287   5.4475
     5.6256   5.8892   6.0310   6.2804   6.3208   6.5226   6.5851   6.6930

          k = 0.2000 0.1155 0.0000 ( 92746 PWs)   bands (ev):

   -12.3757  -8.7100  -7.0278  -5.7423  -5.2697  -4.8733  -4.8706  -4.6733
    -4.6467  -4.6204  -4.5638  -4.5196  -4.5127  -4.3385  -4.2918  -4.1721
    -4.1386  -4.1374  -4.1206  -3.9429  -3.8359  -3.7072  -3.7028  -3.6864
    -3.6699  -3.6158  -3.6012  -3.5572  -3.5408  -3.5220  -3.5164  -3.4649
    -3.4280  -3.4156  -3.3191  -3.3118  -3.2979  -3.2727  -3.2645  -3.1123
    -3.0850  -3.0804  -3.0517  -3.0429  -2.9807  -2.7993  -2.7913  -2.7500
    -2.7212  -2.6897  -2.6799  -2.6665  -2.5087  -2.4954  -2.4239  -2.4223
    -2.3827  -2.3669  -2.3506  -2.2728  -2.1467  -2.0605  -2.0329  -1.9856
    -1.9393  -1.9300  -1.8998  -1.8556  -1.8256  -1.8218  -1.8011  -1.7981
    -1.7444  -1.7053  -1.6679  -1.6551  -1.6459  -1.6042  -1.5693  -1.5513
    -1.5196  -1.4918  -1.4772  -1.4556  -1.3912  -1.3768  -1.3734  -1.3669
    -1.3116  -1.2747  -1.2663  -1.2637  -1.2455  -1.1999  -1.1879  -1.1588
    -1.1252  -1.1242  -1.0960  -1.0838  -1.0468  -1.0372  -1.0134  -0.9944
    -0.9662  -0.9237  -0.8594  -0.8308  -0.8236  -0.8041  -0.8024  -0.7865
    -0.7472  -0.7464  -0.7135  -0.7111  -0.6766  -0.5915  -0.5249  -0.3919
    -0.3791  -0.3432  -0.3081  -0.2819  -0.2659  -0.2577  -0.2496  -0.1968
    -0.1009  -0.0932  -0.0271   0.0324   0.0505   0.0885   0.1060   0.1360
     0.1586   0.1929   0.2139   0.2259   0.2772   0.3032   0.3128   0.3228
     0.3349   0.4914   0.5073   0.5357   0.5448   0.5716   0.5898   0.6084
     0.6715   0.6866   0.7091   0.7180   0.7463   0.7899   0.8001   0.8087
     0.8314   0.9126   0.9161   0.9439   1.0047   1.0341   1.0571   1.0775
     1.1043   1.1089   1.1317   1.1477   1.1977   1.2316   1.2360   1.2878
     1.3008   1.3029   1.3415   1.3474   1.3498   1.3553   1.3613   1.4137
     1.4254   1.5560   1.5576   1.5964   1.6122   1.6149   1.6277   1.6578
     1.6897   1.6932   1.7102   1.7985   1.8128   1.8356   1.8639   1.9904
     1.9974   2.0153   2.0420   2.3269   2.4558   2.8636   3.1810   3.1901
     3.3116   3.8483   4.3263   4.5976   4.9751   5.3277   5.3282   5.4597
     5.6214   5.8624   6.0462   6.2825   6.3213   6.5203   6.6941   6.6962

          k = 0.2000 0.3464 0.0000 ( 92726 PWs)   bands (ev):

   -12.3756  -8.7099  -6.7425  -5.5261  -5.5099  -5.4663  -4.6590  -4.4579
    -4.4431  -4.4360  -4.4231  -4.3884  -4.3815  -4.3624  -4.3499  -4.2530
    -4.2452  -3.9903  -3.8753  -3.8637  -3.8548  -3.8306  -3.7747  -3.7551
    -3.6270  -3.6092  -3.6062  -3.5945  -3.5794  -3.5058  -3.4658  -3.4424
    -3.4367  -3.4292  -3.3712  -3.3386  -3.3337  -3.2920  -3.2795  -3.2018
    -3.0279  -2.9466  -2.8594  -2.8530  -2.8312  -2.8093  -2.8020  -2.7866
    -2.7500  -2.7236  -2.7159  -2.5684  -2.5599  -2.5506  -2.4779  -2.4330
    -2.3911  -2.3862  -2.3727  -2.3195  -2.2951  -2.2650  -2.1434  -2.0985
    -2.0828  -2.0221  -1.9989  -1.9851  -1.9685  -1.9568  -1.9097  -1.8925
    -1.8032  -1.7538  -1.7296  -1.7172  -1.6795  -1.6543  -1.6364  -1.6026
    -1.5805  -1.5644  -1.5346  -1.4519  -1.4256  -1.4193  -1.4021  -1.3979
    -1.3727  -1.3634  -1.3372  -1.3212  -1.2717  -1.2584  -1.2229  -1.1722
    -1.1614  -1.1478  -1.1094  -1.0758  -1.0636  -1.0453  -1.0327  -1.0094
    -0.9944  -0.9793  -0.9636  -0.9562  -0.9327  -0.8906  -0.8780  -0.8547
    -0.7851  -0.7565  -0.7401  -0.6954  -0.6621  -0.6236  -0.6120  -0.5206
    -0.4596  -0.4017  -0.3253  -0.3093  -0.2780  -0.2667  -0.2554  -0.2373
    -0.2049  -0.1774  -0.1691  -0.1575  -0.0920  -0.0646  -0.0340   0.0507
     0.1149   0.1425   0.1579   0.1826   0.2119   0.2395   0.2501   0.3492
     0.3730   0.3769   0.4245   0.4381   0.4914   0.5528   0.5731   0.5914
     0.6022   0.6490   0.6709   0.6764   0.6859   0.6940   0.7099   0.7192
     0.7381   0.8172   0.8957   0.9288   0.9734   1.0433   1.0603   1.1441
     1.2259   1.2391   1.2411   1.2796   1.3478   1.3634   1.3773   1.3903
     1.4121   1.4357   1.4423   1.4490   1.4642   1.4957   1.5185   1.5274
     1.5916   1.6250   1.6297   1.6655   1.6740   1.7159   1.8059   1.8676
     1.9069   1.9289   1.9708   1.9870   1.9916   2.1261   2.1309   2.4239
     2.6502   2.6690   2.9914   3.1941   3.2041   3.2371   3.5087   3.8928
     3.9091   4.1254   4.1370   4.1730   4.6567   4.8589   5.3130   5.3471
     5.5524   5.5608   6.0114   6.0185   6.1092   6.1337   6.1501   6.1843

          k = 0.2000-0.5774 0.0000 ( 92724 PWs)   bands (ev):

   -12.3756  -8.7096  -6.2184  -6.1980  -5.6002  -4.9844  -4.9769  -4.6436
    -4.4646  -4.4356  -4.2989  -4.2684  -4.1715  -4.1565  -4.0649  -4.0493
    -4.0231  -3.9408  -3.9211  -3.9183  -3.8946  -3.8737  -3.8584  -3.8216
    -3.7284  -3.7176  -3.7024  -3.6713  -3.6544  -3.5868  -3.5040  -3.4614
    -3.4124  -3.3203  -3.3129  -3.3060  -3.2855  -3.2673  -3.1853  -3.1730
    -3.0796  -3.0658  -3.0026  -2.8883  -2.8769  -2.8362  -2.7460  -2.7034
    -2.6818  -2.6711  -2.5619  -2.5260  -2.4839  -2.4739  -2.4538  -2.4114
    -2.3994  -2.3755  -2.3563  -2.2728  -2.2571  -2.2393  -2.2306  -2.2191
    -2.2096  -2.1840  -2.1661  -2.1196  -2.0186  -2.0013  -1.9606  -1.9512
    -1.8635  -1.8416  -1.8033  -1.7743  -1.7646  -1.7423  -1.7036  -1.6881
    -1.6063  -1.6025  -1.5965  -1.5596  -1.5472  -1.5253  -1.4628  -1.4197
    -1.4084  -1.3708  -1.3595  -1.3369  -1.2776  -1.2193  -1.1859  -1.1688
    -1.1575  -1.1504  -1.1215  -1.1099  -1.0706  -1.0669  -1.0436  -1.0342
    -1.0199  -0.9982  -0.9699  -0.9585  -0.9472  -0.9380  -0.9256  -0.8972
    -0.8708  -0.8459  -0.7887  -0.6778  -0.6267  -0.5511  -0.5297  -0.5276
    -0.4385  -0.4157  -0.3843  -0.3587  -0.3308  -0.3253  -0.3020  -0.2805
    -0.2501  -0.2030  -0.1728  -0.1505  -0.1165  -0.0956  -0.0619  -0.0323
     0.0053   0.1186   0.1583   0.1925   0.2294   0.2503   0.2713   0.3248
     0.3391   0.3617   0.3760   0.3832   0.4169   0.4406   0.4718   0.5265
     0.5426   0.5859   0.6144   0.6246   0.6389   0.6591   0.6701   0.7692
     0.8056   0.8922   0.9185   0.9803   1.0347   1.0694   1.0813   1.1579
     1.2011   1.2036   1.2443   1.3058   1.3545   1.3797   1.4016   1.4232
     1.4276   1.4509   1.4771   1.4986   1.5794   1.5855   1.5969   1.6171
     1.6389   1.6415   1.6557   1.7100   1.8203   1.8281   1.8530   1.8605
     1.8701   1.9248   1.9656   2.0461   2.1744   2.7959   3.0071   3.0110
     3.1869   3.2787   3.3869   3.3959   3.4275   3.6409   4.0044   4.0219
     4.1495   4.4789   4.4973   4.6111   4.6197   4.6506   4.8346   4.9221
     4.9707   5.1818   5.4068   5.4552   5.6001   5.9951   6.1055   6.1124

          k = 0.2000-0.3464 0.0000 ( 92726 PWs)   bands (ev):

   -12.3756  -8.7095  -6.7429  -5.5275  -5.5086  -5.4682  -4.6625  -4.4608
    -4.4404  -4.4382  -4.4223  -4.3855  -4.3808  -4.3618  -4.3485  -4.2564
    -4.2402  -3.9828  -3.8783  -3.8645  -3.8532  -3.8269  -3.7889  -3.7505
    -3.6286  -3.6084  -3.6076  -3.5905  -3.5788  -3.5023  -3.4679  -3.4428
    -3.4349  -3.4305  -3.3709  -3.3467  -3.3282  -3.2993  -3.2772  -3.2022
    -3.0298  -2.9301  -2.8565  -2.8452  -2.8293  -2.8067  -2.7981  -2.7926
    -2.7804  -2.7324  -2.7099  -2.5695  -2.5591  -2.5348  -2.4614  -2.4473
    -2.3964  -2.3836  -2.3663  -2.3201  -2.2923  -2.2606  -2.1440  -2.1049
    -2.0921  -2.0354  -1.9931  -1.9771  -1.9700  -1.9492  -1.9121  -1.8916
    -1.8174  -1.7532  -1.7256  -1.7174  -1.6787  -1.6524  -1.6340  -1.6032
    -1.5803  -1.5637  -1.5297  -1.4497  -1.4251  -1.4161  -1.4013  -1.3983
    -1.3726  -1.3623  -1.3364  -1.3199  -1.2772  -1.2596  -1.2248  -1.1710
    -1.1613  -1.1529  -1.1032  -1.0803  -1.0640  -1.0430  -1.0349  -1.0083
    -0.9931  -0.9786  -0.9727  -0.9555  -0.9313  -0.8917  -0.8806  -0.8521
    -0.7843  -0.7498  -0.7420  -0.7060  -0.6646  -0.6247  -0.6118  -0.5230
    -0.4622  -0.4062  -0.3269  -0.3090  -0.2766  -0.2613  -0.2526  -0.2391
    -0.2042  -0.1822  -0.1681  -0.1610  -0.1024  -0.0688  -0.0179   0.0501
     0.1180   0.1430   0.1621   0.1818   0.2118   0.2453   0.2527   0.3480
     0.3736   0.3779   0.4243   0.4374   0.4935   0.5504   0.5655   0.5872
     0.6042   0.6484   0.6723   0.6751   0.6898   0.6945   0.7120   0.7144
     0.7408   0.8150   0.9073   0.9305   0.9605   1.0474   1.0643   1.1437
     1.2301   1.2385   1.2400   1.2812   1.3431   1.3617   1.3782   1.3904
     1.4096   1.4351   1.4432   1.4471   1.4627   1.4954   1.5180   1.5293
     1.5911   1.6238   1.6293   1.6659   1.6732   1.7148   1.8059   1.8710
     1.9105   1.9286   1.9708   1.9892   1.9910   2.1273   2.1287   2.4279
     2.6541   2.6707   2.9802   3.1976   3.2040   3.2340   3.5266   3.9033
     3.9101   4.1190   4.1342   4.1717   4.6626   4.8569   5.3135   5.3466
     5.5476   5.5701   6.0028   6.0350   6.0861   6.1270   6.1581   6.2056

          k = 0.4000-0.2309 0.0000 ( 92744 PWs)   bands (ev):

   -12.3756  -8.7096  -6.6058  -5.9713  -5.3403  -4.9081  -4.9002  -4.7989
    -4.6418  -4.5349  -4.3795  -4.2826  -4.2396  -4.1833  -4.1761  -4.0859
    -4.0144  -3.9807  -3.9579  -3.9461  -3.8937  -3.8213  -3.7903  -3.7806
    -3.7407  -3.7335  -3.6951  -3.6563  -3.6049  -3.6018  -3.5875  -3.3449
    -3.3387  -3.3329  -3.3311  -3.3152  -3.3024  -3.1215  -3.0915  -3.0616
    -3.0522  -3.0451  -3.0252  -2.9619  -2.8497  -2.7560  -2.7488  -2.7406
    -2.7284  -2.6803  -2.6646  -2.6137  -2.6012  -2.5922  -2.5338  -2.5274
    -2.4186  -2.3814  -2.3690  -2.3406  -2.2932  -2.2386  -2.2141  -2.1686
    -2.1514  -2.1263  -2.0180  -1.9649  -1.9404  -1.9310  -1.9078  -1.8636
    -1.8509  -1.8294  -1.7710  -1.7048  -1.6940  -1.6749  -1.6228  -1.5731
    -1.5588  -1.5480  -1.5463  -1.5092  -1.4703  -1.4557  -1.4419  -1.4397
    -1.4212  -1.4083  -1.3908  -1.3887  -1.3155  -1.2946  -1.2849  -1.2604
    -1.2441  -1.2289  -1.1860  -1.1096  -1.1058  -1.0703  -1.0286  -1.0095
    -0.9913  -0.9740  -0.9465  -0.9353  -0.8404  -0.8209  -0.8023  -0.7563
    -0.7157  -0.6930  -0.6031  -0.5617  -0.5514  -0.5100  -0.4760  -0.4163
    -0.4061  -0.3775  -0.3444  -0.3375  -0.3269  -0.2813  -0.2600  -0.2545
    -0.2375  -0.2118  -0.2099  -0.1870  -0.1467  -0.1249  -0.1062  -0.0203
    -0.0135   0.0427   0.0516   0.0979   0.1846   0.1933   0.2041   0.3071
     0.3205   0.3962   0.4439   0.4825   0.5052   0.5200   0.5334   0.5685
     0.5841   0.6360   0.6387   0.6833   0.7121   0.7341   0.8021   0.8201
     0.8404   0.8551   0.8748   0.9066   0.9856   1.0536   1.0708   1.1107
     1.1381   1.1455   1.1582   1.2337   1.2584   1.2679   1.3389   1.3504
     1.3544   1.4086   1.4240   1.4425   1.4669   1.5433   1.5599   1.5906
     1.6023   1.6212   1.6246   1.6348   1.6421   1.8139   1.8185   1.8407
     1.8636   1.8658   2.0303   2.0745   2.2756   2.4658   2.5379   2.6602
     2.8916   2.9048   3.2101   3.2904   3.3166   3.6344   3.7304   4.1101
     4.1181   4.1500   4.3000   4.3850   4.4369   4.4996   4.7644   4.7705
     5.0181   5.4080   5.5522   5.9319   6.0207   6.2773   6.4027   6.5674

          k = 0.4000-0.0000 0.0000 ( 92726 PWs)   bands (ev):

   -12.3756  -8.7099  -6.7426  -5.5259  -5.5103  -5.4663  -4.6579  -4.4588
    -4.4434  -4.4370  -4.4225  -4.3893  -4.3803  -4.3626  -4.3489  -4.2532
    -4.2452  -3.9900  -3.8762  -3.8645  -3.8552  -3.8306  -3.7755  -3.7547
    -3.6264  -3.6090  -3.6066  -3.5937  -3.5792  -3.5048  -3.4649  -3.4426
    -3.4367  -3.4290  -3.3706  -3.3393  -3.3339  -3.2916  -3.2808  -3.2036
    -3.0289  -2.9474  -2.8586  -2.8527  -2.8305  -2.8085  -2.8018  -2.7852
    -2.7485  -2.7230  -2.7160  -2.5678  -2.5595  -2.5544  -2.4767  -2.4325
    -2.3898  -2.3862  -2.3721  -2.3210  -2.2929  -2.2677  -2.1442  -2.0972
    -2.0820  -2.0218  -1.9986  -1.9838  -1.9685  -1.9562  -1.9095  -1.8921
    -1.8054  -1.7545  -1.7316  -1.7177  -1.6803  -1.6546  -1.6354  -1.6030
    -1.5810  -1.5651  -1.5345  -1.4504  -1.4259  -1.4190  -1.4012  -1.3987
    -1.3720  -1.3633  -1.3366  -1.3218  -1.2717  -1.2592  -1.2239  -1.1716
    -1.1608  -1.1486  -1.1076  -1.0768  -1.0645  -1.0447  -1.0334  -1.0099
    -0.9937  -0.9780  -0.9629  -0.9563  -0.9330  -0.8890  -0.8782  -0.8559
    -0.7855  -0.7561  -0.7396  -0.6972  -0.6623  -0.6249  -0.6123  -0.5198
    -0.4598  -0.4023  -0.3270  -0.3086  -0.2781  -0.2671  -0.2554  -0.2381
    -0.2046  -0.1787  -0.1676  -0.1585  -0.0927  -0.0650  -0.0295   0.0488
     0.1152   0.1422   0.1575   0.1829   0.2119   0.2397   0.2501   0.3488
     0.3722   0.3769   0.4240   0.4382   0.4904   0.5540   0.5734   0.5918
     0.6026   0.6496   0.6721   0.6766   0.6856   0.6947   0.7101   0.7200
     0.7389   0.8153   0.8973   0.9292   0.9713   1.0436   1.0592   1.1436
     1.2261   1.2393   1.2409   1.2800   1.3476   1.3636   1.3774   1.3903
     1.4119   1.4355   1.4419   1.4483   1.4638   1.4954   1.5175   1.5282
     1.5910   1.6244   1.6294   1.6653   1.6739   1.7156   1.8060   1.8691
     1.9081   1.9303   1.9708   1.9875   1.9913   2.1265   2.1309   2.4233
     2.6503   2.6687   2.9904   3.1949   3.2047   3.2378   3.5079   3.8933
     3.9085   4.1256   4.1368   4.1729   4.6560   4.8596   5.3135   5.3479
     5.5537   5.5586   6.0114   6.0220   6.1105   6.1357   6.1504   6.1811

          k = 0.4000 0.2309 0.0000 ( 92744 PWs)   bands (ev):

   -12.3756  -8.7102  -6.6053  -5.9703  -5.3379  -4.9075  -4.9043  -4.7851
    -4.6475  -4.5387  -4.3831  -4.2852  -4.2419  -4.1799  -4.1766  -4.0889
    -4.0140  -3.9792  -3.9597  -3.9433  -3.8939  -3.8204  -3.7909  -3.7869
    -3.7352  -3.7275  -3.6983  -3.6598  -3.6055  -3.5989  -3.5803  -3.3436
    -3.3426  -3.3330  -3.3274  -3.3130  -3.3067  -3.1324  -3.0938  -3.0689
    -3.0529  -3.0452  -3.0207  -2.9731  -2.8144  -2.7653  -2.7485  -2.7346
    -2.7331  -2.6845  -2.6689  -2.6107  -2.5971  -2.5914  -2.5448  -2.5253
    -2.4235  -2.3896  -2.3619  -2.3532  -2.2829  -2.2413  -2.2202  -2.1754
    -2.1544  -2.1121  -2.0156  -1.9570  -1.9409  -1.9311  -1.9024  -1.8530
    -1.8506  -1.8264  -1.7931  -1.6991  -1.6913  -1.6751  -1.6263  -1.5688
    -1.5628  -1.5472  -1.5453  -1.5115  -1.4735  -1.4565  -1.4433  -1.4379
    -1.4244  -1.4078  -1.3936  -1.3852  -1.3212  -1.2895  -1.2866  -1.2604
    -1.2449  -1.2154  -1.1961  -1.1091  -1.1061  -1.0668  -1.0226  -1.0082
    -0.9900  -0.9713  -0.9435  -0.9323  -0.8471  -0.8205  -0.8023  -0.7509
    -0.7148  -0.6933  -0.5837  -0.5595  -0.5545  -0.5165  -0.4749  -0.4230
    -0.4047  -0.3764  -0.3453  -0.3378  -0.3339  -0.2709  -0.2586  -0.2546
    -0.2378  -0.2133  -0.2064  -0.1882  -0.1502  -0.1172  -0.1153  -0.0225
    -0.0127   0.0352   0.0495   0.1021   0.1702   0.1934   0.2026   0.3043
     0.3221   0.4000   0.4452   0.4821   0.5136   0.5194   0.5358   0.5719
     0.5827   0.6373   0.6437   0.6819   0.7142   0.7344   0.8000   0.8199
     0.8424   0.8532   0.8740   0.8958   0.9897   1.0538   1.0742   1.1138
     1.1338   1.1449   1.1574   1.2334   1.2583   1.2642   1.3452   1.3505
     1.3576   1.4152   1.4254   1.4439   1.4669   1.5410   1.5611   1.5907
     1.6020   1.6188   1.6193   1.6338   1.6404   1.8139   1.8206   1.8383
     1.8616   1.8633   2.0307   2.0748   2.2803   2.4611   2.5315   2.6495
     2.8947   2.9042   3.2004   3.2895   3.3192   3.6353   3.7301   4.1106
     4.1173   4.1535   4.2808   4.3909   4.4444   4.4882   4.7673   4.7710
     5.0166   5.3993   5.5291   5.9403   6.0112   6.2662   6.4193   6.5585

          k = 0.4000-0.6928 0.0000 ( 92724 PWs)   bands (ev):

   -12.3755  -8.7101  -6.2197  -6.1956  -5.6012  -4.9858  -4.9640  -4.6599
    -4.4545  -4.4392  -4.3029  -4.2684  -4.1678  -4.1558  -4.0750  -4.0387
    -4.0197  -3.9443  -3.9287  -3.9105  -3.8966  -3.8725  -3.8576  -3.8299
    -3.7326  -3.7187  -3.6995  -3.6720  -3.6407  -3.5899  -3.5020  -3.4625
    -3.4133  -3.3232  -3.3089  -3.3039  -3.2888  -3.2596  -3.1921  -3.1763
    -3.0810  -3.0758  -3.0068  -2.8859  -2.8770  -2.8001  -2.7471  -2.7203
    -2.6895  -2.6685  -2.5591  -2.5262  -2.4834  -2.4779  -2.4551  -2.4133
    -2.4004  -2.3869  -2.3547  -2.2714  -2.2565  -2.2393  -2.2335  -2.2217
    -2.2090  -2.1756  -2.1468  -2.1242  -2.0169  -2.0059  -1.9607  -1.9499
    -1.8673  -1.8377  -1.8033  -1.7930  -1.7634  -1.7428  -1.6997  -1.6900
    -1.6056  -1.6032  -1.5921  -1.5614  -1.5484  -1.5241  -1.4587  -1.4154
    -1.4083  -1.3735  -1.3621  -1.3201  -1.2819  -1.2178  -1.1850  -1.1683
    -1.1639  -1.1516  -1.1197  -1.1121  -1.0679  -1.0662  -1.0430  -1.0344
    -1.0220  -0.9983  -0.9721  -0.9584  -0.9456  -0.9370  -0.9252  -0.8954
    -0.8731  -0.8470  -0.7940  -0.6677  -0.6177  -0.5474  -0.5281  -0.5248
    -0.4384  -0.4141  -0.3868  -0.3586  -0.3293  -0.3272  -0.3064  -0.2802
    -0.2583  -0.2015  -0.1756  -0.1547  -0.1182  -0.0952  -0.0640  -0.0311
     0.0065   0.1111   0.1523   0.1940   0.2291   0.2505   0.2677   0.3244
     0.3448   0.3631   0.3763   0.3828   0.4227   0.4418   0.4709   0.5292
     0.5407   0.5894   0.6181   0.6305   0.6371   0.6589   0.6738   0.7607
     0.8073   0.8893   0.9191   0.9809   1.0352   1.0674   1.0805   1.1574
     1.2000   1.2019   1.2405   1.3082   1.3565   1.3804   1.4033   1.4251
     1.4279   1.4457   1.4771   1.5003   1.5803   1.5859   1.5939   1.6186
     1.6400   1.6428   1.6503   1.7098   1.8206   1.8310   1.8521   1.8597
     1.8690   1.9245   1.9696   2.0464   2.1767   2.7895   3.0067   3.0101
     3.1904   3.2630   3.3873   3.3981   3.4181   3.6452   4.0119   4.0233
     4.1427   4.4793   4.4975   4.6086   4.6230   4.6642   4.8296   4.9217
     4.9723   5.1304   5.4122   5.4516   5.5982   6.0472   6.1019   6.1209

          k = 0.4000-0.4619 0.0000 ( 92724 PWs)   bands (ev):

   -12.3756  -8.7097  -6.2189  -6.1977  -5.6000  -4.9837  -4.9769  -4.6444
    -4.4637  -4.4370  -4.2992  -4.2682  -4.1715  -4.1556  -4.0644  -4.0494
    -4.0245  -3.9419  -3.9208  -3.9181  -3.8941  -3.8744  -3.8580  -3.8203
    -3.7291  -3.7176  -3.7021  -3.6715  -3.6553  -3.5861  -3.5037  -3.4611
    -3.4124  -3.3199  -3.3133  -3.3066  -3.2845  -3.2677  -3.1858  -3.1734
    -3.0789  -3.0633  -3.0040  -2.8896  -2.8760  -2.8338  -2.7461  -2.7053
    -2.6819  -2.6706  -2.5634  -2.5262  -2.4847  -2.4745  -2.4543  -2.4097
    -2.3980  -2.3750  -2.3517  -2.2726  -2.2570  -2.2393  -2.2299  -2.2192
    -2.2093  -2.1852  -2.1667  -2.1190  -2.0207  -2.0041  -1.9598  -1.9513
    -1.8631  -1.8427  -1.8046  -1.7746  -1.7629  -1.7424  -1.7046  -1.6908
    -1.6060  -1.6022  -1.5950  -1.5596  -1.5471  -1.5237  -1.4622  -1.4213
    -1.4091  -1.3695  -1.3595  -1.3354  -1.2774  -1.2192  -1.1859  -1.1679
    -1.1583  -1.1504  -1.1213  -1.1097  -1.0725  -1.0667  -1.0458  -1.0346
    -1.0197  -0.9978  -0.9694  -0.9572  -0.9473  -0.9376  -0.9261  -0.8963
    -0.8706  -0.8462  -0.7869  -0.6811  -0.6262  -0.5503  -0.5298  -0.5270
    -0.4386  -0.4154  -0.3847  -0.3607  -0.3317  -0.3253  -0.3015  -0.2803
    -0.2492  -0.2040  -0.1732  -0.1532  -0.1161  -0.0958  -0.0618  -0.0323
     0.0047   0.1203   0.1597   0.1924   0.2297   0.2503   0.2708   0.3241
     0.3384   0.3617   0.3755   0.3827   0.4167   0.4402   0.4734   0.5272
     0.5421   0.5866   0.6144   0.6253   0.6388   0.6590   0.6710   0.7709
     0.8057   0.8918   0.9183   0.9797   1.0335   1.0698   1.0816   1.1570
     1.2011   1.2037   1.2450   1.3051   1.3543   1.3794   1.4006   1.4229
     1.4275   1.4504   1.4765   1.4993   1.5799   1.5855   1.5967   1.6158
     1.6387   1.6412   1.6555   1.7099   1.8207   1.8281   1.8534   1.8617
     1.8710   1.9254   1.9674   2.0460   2.1746   2.7956   3.0072   3.0111
     3.1865   3.2788   3.3870   3.3952   3.4274   3.6411   4.0035   4.0220
     4.1501   4.4802   4.4965   4.6119   4.6187   4.6472   4.8392   4.9219
     4.9696   5.1799   5.4092   5.4547   5.6002   6.0010   6.1039   6.1123

     the Fermi energy is     1.6267 ev

!    total energy              =  -27798.41431921 Ry

     total all-electron energy =  -1326800.707913 Ry
     estimated scf accuracy    <       0.00000034 Ry
     smearing contrib. (-TS)   =       0.00271495 Ry
     internal energy E=F+TS    =  -27798.41703417 Ry

     The total energy is F=E-TS. E is the sum of the following terms:
     one-electron contribution =  -29227.33628963 Ry
     hartree contribution      =   14913.53097760 Ry
     xc contribution           =    -903.43665351 Ry
     ewald contribution        =   12905.86983484 Ry
     one-center paw contrib.   =  -25487.04490346 Ry

     convergence has been achieved in  21 iterations

     negative rho (up, down):  1.295E-02 0.000E+00

     Forces acting on atoms (cartesian axes, Ry/au):

     atom    1 type  1   force =    -0.00029068   -0.00012154   -0.00685647
     atom    2 type  1   force =    -0.00044400    0.00006187   -0.00337715
     atom    3 type  1   force =     0.00073036   -0.00005509   -0.00360875
     atom    4 type  1   force =    -0.00016352   -0.00049284   -0.00340057
     atom    5 type  1   force =    -0.00000654   -0.00003872   -0.00350697
     atom    6 type  1   force =     0.00031934   -0.00047240   -0.00349095
     atom    7 type  1   force =     0.00032687    0.00057855   -0.00359671
     atom    8 type  1   force =    -0.00020196    0.00041146   -0.00347470
     atom    9 type  1   force =     0.00000394   -0.00004961   -0.00337173
     atom   10 type  1   force =     0.00012383    0.00020620   -0.00079542
     atom   11 type  1   force =    -0.00041696    0.00214186    0.00945836
     atom   12 type  1   force =     0.00024912   -0.00010736   -0.00070010
     atom   13 type  1   force =     0.00158486   -0.00119388    0.00963567
     atom   14 type  1   force =    -0.00168610   -0.00075214    0.00917530
     atom   15 type  1   force =    -0.00008893    0.00012711    0.00193638
     atom   16 type  1   force =    -0.00005497    0.00035271   -0.00055009
     atom   17 type  1   force =    -0.00006234    0.00004387    0.00198206
     atom   18 type  1   force =     0.00007897    0.00015556    0.00256990
     atom   19 type  1   force =     0.00013989   -0.00021636    0.00000855
     atom   20 type  1   force =    -0.00007490   -0.00012982   -0.00052009
     atom   21 type  1   force =     0.00033371   -0.00018285   -0.00014662
     atom   22 type  1   force =    -0.00012018   -0.00012555   -0.00030216
     atom   23 type  1   force =     0.00007305    0.00022330   -0.00011797
     atom   24 type  1   force =    -0.00001456   -0.00011475   -0.00026058
     atom   25 type  1   force =     0.00005953   -0.00008319   -0.00012631
     atom   26 type  1   force =    -0.00003097    0.00006084   -0.00002050
     atom   27 type  1   force =    -0.00008994   -0.00020358   -0.00029521
     atom   28 type  1   force =     0.00011186   -0.00002400    0.00024804
     atom   29 type  1   force =     0.00010095   -0.00046280    0.00008755
     atom   30 type  1   force =     0.00036284   -0.00060629   -0.00032318
     atom   31 type  1   force =    -0.00022611    0.00022933    0.00015816
     atom   32 type  1   force =    -0.00021882   -0.00025711    0.00008527
     atom   33 type  1   force =     0.00086909    0.00015356   -0.00003532
     atom   34 type  1   force =    -0.00021759    0.00040095   -0.00027414
     atom   35 type  1   force =     0.00061785    0.00050490   -0.00001408
     atom   36 type  1   force =     0.00014024   -0.00001863    0.00015920
     atom   37 type  2   force =    -0.00128685    0.00065425    0.00424191
     atom   38 type  2   force =    -0.00105648    0.00017727    0.00291794
     atom   39 type  3   force =    -0.00015468   -0.00038926   -0.00055047
     atom   40 type  3   force =     0.00017703   -0.00022611   -0.00042719
     atom   41 type  3   force =     0.00198324   -0.00080047    0.00023388
     atom   42 type  3   force =     0.00022195    0.00002995   -0.00031999
     atom   43 type  3   force =    -0.00170144    0.00061081   -0.00243477

     Total force =     0.006952     Total SCF correction =     0.002054
     SCF correction compared to forces is large: reduce conv_thr to get better values

     negative rho (up, down):  1.295E-02 0.000E+00

     negative rho (up, down):  1.295E-02 0.000E+00

     negative rho (up, down):  1.295E-02 0.000E+00

     negative rho (up, down):  1.295E-02 0.000E+00

     negative rho (up, down):  1.295E-02 0.000E+00

     negative rho (up, down):  1.295E-02 0.000E+00

     negative rho (up, down):  1.295E-02 0.000E+00

     negative rho (up, down):  1.295E-02 0.000E+00

     negative rho (up, down):  1.295E-02 0.000E+00

     negative rho (up, down):  1.295E-02 0.000E+00

     negative rho (up, down):  1.295E-02 0.000E+00

     negative rho (up, down):  1.295E-02 0.000E+00

     negative rho (up, down):  1.295E-02 0.000E+00

     negative rho (up, down):  1.295E-02 0.000E+00

     negative rho (up, down):  1.295E-02 0.000E+00

     negative rho (up, down):  1.295E-02 0.000E+00

     negative rho (up, down):  1.295E-02 0.000E+00

     negative rho (up, down):  1.295E-02 0.000E+00

     negative rho (up, down):  1.295E-02 0.000E+00

     negative rho (up, down):  1.295E-02 0.000E+00

     negative rho (up, down):  1.295E-02 0.000E+00

     negative rho (up, down):  1.295E-02 0.000E+00

     negative rho (up, down):  1.295E-02 0.000E+00

     negative rho (up, down):  1.295E-02 0.000E+00

     negative rho (up, down):  1.295E-02 0.000E+00

     negative rho (up, down):  1.295E-02 0.000E+00

     negative rho (up, down):  1.295E-02 0.000E+00

     negative rho (up, down):  1.295E-02 0.000E+00

     negative rho (up, down):  1.295E-02 0.000E+00

     negative rho (up, down):  1.295E-02 0.000E+00

     negative rho (up, down):  1.295E-02 0.000E+00

     negative rho (up, down):  1.295E-02 0.000E+00

     negative rho (up, down):  1.295E-02 0.000E+00

     negative rho (up, down):  1.295E-02 0.000E+00
 BEEFens 2000 ensemble energies
             -0.604662005639583E+02
             -0.359613902308163E+01
             -0.157761704755776E+02
              0.427940568464942E+02
             -0.220552620651127E+02
             -0.204653689430447E+02
             -0.350842681677042E+02
             -0.861711520273504E+02
             -0.463572973351130E+02
             -0.471146803460213E+02
             -0.368044577529042E+02
              0.227534054251933E+01
              0.405351134286923E+01
              0.762395585259085E+01
              0.263778506682121E+01
              0.473338575924425E+02
             -0.207982370443619E+02
             -0.229428679891908E+02
              0.192246540078063E+02
             -0.112008773954720E+03
              0.534362057918673E+02
             -0.289072069708890E+02
             -0.332253744699972E+01
             -0.113787847600122E+02
             -0.881364232276496E+01
             -0.458489884938939E+01
              0.879740109357695E+02
             -0.186683660374626E+02
             -0.895352033063341E+01
             -0.516469037032544E+02
              0.812711969462659E+02
             -0.186724078238214E+02
             -0.373432733484955E+02
              0.248317724905600E+02
             -0.283643351171690E+01
              0.163356381507745E+02
             -0.485311397243908E+01
              0.107924794495977E+02
              0.287517289995388E+02
             -0.102895535915522E+03
              0.556676140851279E+02
              0.142007462792201E+02
             -0.170964158092431E+01
             -0.360195547188074E+02
              0.122843869932572E+02
             -0.146457827070508E+02
              0.396735805258628E+02
              0.363523848664788E+02
             -0.307216357606512E+02
             -0.273910143517946E+02
             -0.327426471409152E+02
             -0.351040767001488E+02
              0.136083461982549E+02
             -0.488908054270422E+02
              0.115134992432063E+02
              0.621045679088600E+02
              0.632994771309275E+02
              0.354844756344442E+02
              0.153350187580493E+02
              0.269686471823866E+02
              0.888587845405461E+02
              0.211686006743012E+02
             -0.546617134535524E+02
             -0.156655777169153E+02
             -0.235050527271510E+02
              0.627491934573202E+02
             -0.770658781185702E+02
             -0.669853960330549E+02
             -0.258756972851874E+02
             -0.646593808078819E+01
             -0.468974022340525E+02
              0.269814599019592E+02
              0.797210387010898E+01
              0.862005779553056E+01
             -0.396181677043388E+02
             -0.345607742447492E+02
             -0.539993939318427E+02
              0.388975099825681E+02
             -0.294947548841376E+02
              0.264587675054674E+02
             -0.715601279347942E+01
             -0.316926038433172E+02
             -0.574081661955013E+02
             -0.175957268575704E+02
             -0.898662524223892E+01
             -0.123885478931008E+02
              0.411060851271880E+02
              0.680568245491679E+02
             -0.384060950946537E+02
             -0.791691774695242E+02
             -0.218963382536953E+02
              0.111111774881480E+03
             -0.590818126406454E+02
              0.355033180884735E+02
             -0.952855951187280E+01
             -0.660938340465447E+02
              0.253404554809111E+02
              0.396686259841536E+02
             -0.198394493101231E+02
              0.399216807323145E+02
             -0.294981157704606E+02
             -0.476368275584002E+02
              0.862685320794545E+02
              0.452143302153685E+02
              0.335571195966884E+02
              0.145811351084948E+02
              0.204990720661415E+02
              0.853613043111580E+02
             -0.255910766971214E+02
              0.787772977923404E+01
             -0.141901966669723E+03
              0.180325046536528E+02
             -0.713823271574846E+02
              0.150640541743630E+02
              0.203910550510548E+02
             -0.331705404747552E+02
             -0.555406706704231E+02
              0.650647865776125E+01
             -0.303277954406005E+02
              0.306440815469410E+02
             -0.528292535934738E+02
              0.172704961917611E+01
             -0.355597603432709E+02
             -0.421154132781044E+01
             -0.103260971476755E+01
              0.180818148198755E+02
              0.142965272203935E+01
             -0.648651534130909E+01
              0.588419711137900E+02
              0.905184578084158E+02
              0.482535410710823E+02
              0.827665557385894E+02
             -0.114661980218952E+02
              0.142494524878244E+02
              0.539251271367558E+02
             -0.110659159712454E+02
             -0.733368201498013E+02
             -0.383017527027753E+02
             -0.520278933942996E+02
             -0.275736476349554E+02
              0.326488848594257E+02
             -0.116356639796524E+03
             -0.186821978512294E+02
              0.412447146444274E+02
             -0.384859670082625E+02
             -0.364319894269271E+02
              0.542477923840055E+02
              0.398953791170262E+02
             -0.353148984342825E+02
              0.137068791419039E+02
             -0.272597078693385E+02
              0.341867102598982E+02
              0.440802954642402E+01
              0.210501968325433E+02
             -0.881949766544403E+02
             -0.478432670418426E+02
             -0.994439319656612E+01
              0.319280287553008E+01
             -0.365327724683500E+02
              0.105655054419552E+03
             -0.230360622822984E+02
             -0.397870748968068E+02
              0.387214017402612E+02
             -0.492447446283078E+02
             -0.362181716653639E+02
              0.323763764409824E+02
              0.124137400034444E+02
              0.164420689978210E+02
              0.116223324951077E+02
             -0.132460812116685E+02
              0.224687056471769E+02
              0.587924795976560E+02
             -0.310469795772784E+02
              0.161617180595977E+02
              0.931479274487084E+02
              0.339751213682788E+02
             -0.726176686245344E+01
             -0.188024456851501E+02
              0.152809048713050E+03
             -0.163425722359074E+02
              0.362135745342513E+02
              0.193558931931303E+02
              0.360274115555624E+02
              0.888601417977056E+02
              0.541189326564308E+02
             -0.235845700980168E+01
              0.226977782564703E+02
              0.483172268274396E+02
              0.362003050602823E+02
             -0.523530360261146E+02
              0.932844305626345E+02
             -0.822888483266637E+02
             -0.197439489287212E+02
              0.580678123493510E+02
              0.674381760149178E+01
              0.786166416700019E+01
              0.339601965874225E+02
              0.298627319950397E+02
              0.352409284141320E+02
             -0.635253932537639E+02
              0.284407828194594E+01
             -0.296796425374092E+02
             -0.864662554097612E+01
             -0.145189464569501E+01
             -0.720869816663562E+01
             -0.413354924634098E+01
              0.856565908501112E+02
             -0.100827449429314E+02
             -0.275304613432906E+02
             -0.495845233122195E+01
              0.139487107027649E+02
             -0.561716137905099E+02
             -0.405797398761981E+02
             -0.380762501080296E+02
             -0.628120631772074E+02
             -0.168943748789916E+02
             -0.446033784303459E+02
              0.162562054946409E+02
             -0.238909014866090E+01
             -0.104048343164267E+02
             -0.930824835924719E+01
              0.805689496368956E+01
             -0.241933153991837E+02
              0.687277095563572E+02
             -0.804411210672400E+02
             -0.140593187139247E+02
             -0.173422122646436E+02
              0.181412796791846E+02
              0.214091572162825E+02
             -0.461951939565747E+02
             -0.201198481440193E+02
              0.439443769884938E+02
             -0.275460923773377E+02
              0.186701916747399E+02
              0.381584664039487E+02
             -0.321916128861244E+01
              0.113719150941219E+03
             -0.229171057889437E+02
             -0.339677549201756E+02
              0.576247890654724E+01
             -0.227472570207329E+02
              0.525591338046772E+02
             -0.335955954782556E+02
              0.106190974747278E+02
              0.638307013615138E+02
             -0.125820148087509E+02
              0.119833827392652E+03
              0.125427157711650E+03
             -0.647538270277073E+02
              0.588674232065264E+02
              0.165890290191096E+02
             -0.515908491962980E+02
              0.215326543367039E+02
              0.352874388797154E+02
              0.361291539523657E+02
              0.131920526914129E+01
              0.159499672427181E+02
              0.693559487153734E+02
             -0.246181732750070E+02
              0.181071907167641E+02
              0.736323836910321E+02
             -0.371138810288333E+02
             -0.129243548144083E+02
              0.506825634706338E+02
              0.296433766521567E+02
              0.777275233079603E+02
              0.221854110772368E+02
              0.623534350265749E+01
              0.279398687753310E+02
              0.381977325711749E+02
             -0.470543056356488E+02
              0.331357908723402E+01
              0.129412674212209E+02
              0.113382289770815E+02
              0.219881599008781E+02
             -0.573031461839423E+02
              0.364759773999945E+02
             -0.442251248256279E+02
             -0.346531755816353E+02
              0.177718716627687E+02
             -0.180966336477783E+02
              0.553194895579790E+02
             -0.255106809174183E+02
              0.265770777714009E+02
              0.367035217206763E+02
              0.826451496465685E+02
              0.572893155642388E+02
              0.460192156599434E+02
             -0.104917070817509E+02
             -0.388599173987251E+01
             -0.331241628111093E+02
              0.748059453679395E+02
              0.794253653986053E+02
              0.360573763136234E+02
             -0.191169057380718E+02
              0.510035861452765E+02
             -0.162522051097061E+02
              0.213923023280108E+02
              0.612272883602650E+02
              0.213713021327200E+01
             -0.104077879821543E+02
             -0.281979319678131E+02
             -0.510099928108626E+02
              0.942122664588125E+02
              0.438454513348964E+02
             -0.557062473378899E+02
             -0.956414061162644E+01
              0.248766907960902E+02
             -0.992138060506895E+01
              0.589864802645782E+02
              0.151483388527380E+02
              0.796281629399608E+02
              0.278790113677880E+02
             -0.262658313558452E+02
              0.247891009607107E+02
             -0.498986197755158E+01
             -0.322362192804752E+02
              0.132436442862123E+02
              0.204831179333991E+02
              0.930135137583535E+02
              0.794680334273408E+02
              0.549265324904416E+02
              0.728154686278483E+02
              0.800558600405759E+01
             -0.272903700764011E+02
              0.162674567104065E+02
             -0.366677486396893E+02
             -0.474659701800577E+02
             -0.561436853908036E+02
             -0.265515488085390E+02
             -0.109331289049049E+03
             -0.290387476512594E+02
             -0.834510694837514E+02
              0.209519236438470E+02
             -0.475520989549173E+02
              0.395343139862383E+02
             -0.938340256267194E+02
             -0.329080643038402E+02
              0.546662034634566E+02
              0.206805742954140E+02
             -0.827731699778807E+02
              0.628800357892635E+02
             -0.255967389982164E+02
              0.510552202517518E+02
             -0.241230182770731E+02
             -0.748611339384993E+02
              0.111184851115148E+02
             -0.609000601467033E+02
             -0.167702728071678E+02
             -0.150843819866014E+01
              0.416580324363735E+02
              0.126585495206750E+03
             -0.460092466403274E+02
             -0.361137746616308E+02
             -0.970413107409115E+00
             -0.129951205450658E+02
             -0.819770094042637E+02
             -0.594783778695735E+02
              0.515358505262966E+02
             -0.288122324665298E+02
              0.168740428327275E+02
             -0.487589774861248E+02
             -0.131426676597933E+02
             -0.435738926454690E+02
              0.563858963799290E+02
              0.150140617629272E+02
             -0.230912753618362E+02
             -0.126595294226802E+02
              0.664402310286373E+01
             -0.616073009536046E+01
              0.439997925270761E+02
             -0.251035038777750E+02
              0.278531638223956E+01
              0.338461191865445E+02
              0.170515490408566E+02
             -0.159371985059947E+02
              0.155729162768808E+03
              0.536426611346418E+02
              0.113790251235196E+01
              0.161131132645396E+02
             -0.612922247839721E+02
              0.313919548002783E+02
             -0.719115519859011E+02
             -0.250979560767486E+02
             -0.520781383096596E+02
             -0.219566335392846E+02
              0.567405678580246E+02
             -0.535126282285362E+02
              0.160272075042594E+02
             -0.409713532608453E+01
              0.385226724228187E+01
             -0.432662763545124E+02
             -0.476822234440990E+02
             -0.403487985824574E+01
             -0.423301053031329E+02
             -0.216119428387439E+02
             -0.437190950409870E+02
             -0.118958193221279E+02
             -0.357863916771839E+02
             -0.514778906603758E+02
              0.211878130140435E+02
             -0.208513979962772E+02
              0.187165373134088E+02
              0.971656008185101E+01
             -0.735573326942705E+02
             -0.546185548919655E+02
             -0.396952416126324E+02
              0.352864940416850E+02
              0.271321232830317E+01
             -0.624307655925376E+02
              0.584051272620921E+02
             -0.399761913096736E+02
              0.543106679110315E+02
             -0.288744372878591E+02
             -0.444202895636489E+02
              0.297228309642371E+02
             -0.655139076232783E+02
             -0.378822847517933E+02
              0.670657430962058E+02
              0.203533578952101E+02
             -0.359143953092577E+02
              0.487880696904447E+02
             -0.173566671515404E+02
             -0.321785711362447E+02
             -0.300732943893478E+02
             -0.498966982150064E+02
              0.248855940377673E+02
             -0.930267185267326E+02
             -0.837505545149173E+02
             -0.732154424106045E+01
             -0.305816365119344E+02
             -0.573822310115226E+02
              0.719225317666121E+02
              0.131075703208562E+03
             -0.359923824230348E+02
             -0.254985658000970E+01
             -0.635043168665868E+02
              0.648307343081735E+02
              0.170077474114534E+02
             -0.181351468861834E+02
             -0.408755780343283E+02
              0.148002070337829E+02
             -0.583922304166223E+02
             -0.197481022218565E+02
             -0.901521547132287E+02
              0.335886800718840E+02
              0.168428404244605E+02
              0.186175972727915E+01
             -0.705579815256056E+01
             -0.328667315940556E+02
             -0.756685940642632E+01
              0.125106785903979E+03
             -0.198333638992586E+02
             -0.436206684262611E+02
             -0.681714230159967E+02
              0.108951511792094E+02
             -0.341111302149431E+02
              0.589439079902201E+01
              0.260436507167329E+02
              0.102125303744592E+02
              0.276913101175923E+02
              0.119536696202349E+02
              0.627647384950620E+02
              0.315641199688282E+02
             -0.325530532627839E+02
              0.354231524972717E+02
              0.378297684430091E+02
              0.120388205888784E+02
              0.485881757897587E+02
             -0.224039241011762E+02
              0.763265119091827E+02
              0.171657529527157E+02
             -0.271040632637443E+02
             -0.723058197241803E+01
             -0.185936884534392E+02
              0.261124128522168E+02
             -0.233217120703938E+02
             -0.119248390598500E+00
             -0.845564504131562E+01
              0.806827502549168E+02
              0.498197875857020E+02
             -0.684442152817290E+02
             -0.476025718536721E+01
             -0.553503548447409E+02
             -0.158738797885591E+02
             -0.267718155251487E+02
              0.372924685296357E+01
              0.624646591573329E+00
             -0.256855081415568E+02
              0.809978278867243E+01
             -0.599870960890136E+01
             -0.128166048602335E+02
              0.855939399477083E+02
              0.181136438341402E+02
             -0.804523079551479E+02
             -0.457084110877634E+02
              0.942038214467887E+02
              0.277087579728988E+02
             -0.106549235892850E+02
              0.104201903539397E+03
             -0.193829244940953E+02
             -0.122697173185206E+02
             -0.537794398742165E+01
              0.106998696938738E+02
              0.271654702494622E+02
              0.779921855667570E+01
              0.304394078391867E+02
             -0.187360117844867E+02
             -0.302904364174791E+02
             -0.416758306284752E+02
             -0.475241500906293E+02
              0.462640878666248E+02
              0.126281530770010E+02
              0.386449883060224E+02
              0.133062306192359E+02
              0.852725959326443E+02
              0.155765167236749E+02
             -0.843553996168799E+02
             -0.333392145688754E+02
              0.133373825109650E+02
             -0.301833299170991E+02
              0.624547304306521E+02
             -0.880573438686156E+01
              0.147981206227945E+02
              0.495455061321896E+02
             -0.704684246975985E+02
              0.149237119631616E+03
              0.208141794613952E+02
              0.270504976424828E+02
              0.346505169481058E+02
              0.103541185092283E+02
             -0.154124518261887E+01
              0.357145710684194E+02
             -0.356268032674375E+02
              0.770654616383642E+02
              0.682614353159378E+02
             -0.404838114130205E+02
              0.149078508991309E+02
              0.667777503498145E+02
             -0.223037759069604E+02
              0.153865549046064E+02
              0.433690695778577E+02
              0.420635508551337E+02
             -0.782355736982436E+02
             -0.152407897936771E+02
             -0.354903822936116E+02
             -0.147190280202074E+01
             -0.766373218475756E+01
             -0.541769324418851E+01
             -0.179954091143189E+02
             -0.293162458244742E+02
              0.632395160884043E+01
              0.111387006409574E+02
              0.533937827192037E+02
             -0.388977860277793E+02
              0.373368131954035E+02
              0.437090390998943E+02
             -0.185821014064558E+02
              0.869437724037847E+02
             -0.695649908467657E+02
             -0.102842302200032E+03
             -0.658390787259200E+01
             -0.266900938983190E+01
              0.385009782027169E+01
              0.787164803320820E+02
             -0.106858394248297E+02
              0.415392331286245E+02
              0.442036500034700E+02
              0.383947207579000E+02
             -0.994138728339180E+01
              0.625218133946862E+02
             -0.133090436602585E+02
             -0.306301245872135E+02
             -0.477967998579334E+02
              0.585763073874077E+01
              0.368042396253625E+02
             -0.600793138306582E+01
              0.391585540841725E+02
             -0.174662939525024E+01
              0.653097783162199E+02
              0.186441149345744E+02
              0.996063856133975E+01
             -0.121737592236914E+02
              0.331071265989079E+02
              0.361141194034533E+02
              0.231977668923359E+02
             -0.495135415660229E+00
             -0.548862558444660E+02
              0.259762453754870E+02
              0.174509398966293E+02
              0.401297280364633E+02
              0.271128312133976E+02
              0.371267207322389E+02
             -0.599807473211249E+01
              0.250334342038880E+02
             -0.297810244941393E+02
             -0.197754384201755E+01
             -0.567405095413806E+02
             -0.306577971138095E+02
              0.377327550598243E+02
             -0.932747829215432E+02
              0.293451105746377E+02
              0.183620084329737E+02
              0.837671738421604E+02
             -0.299488602153026E+02
              0.328639251697814E+02
             -0.137291080917381E+02
             -0.462358043340494E+02
             -0.759032017086597E+02
             -0.524580642061059E+01
             -0.857206071575361E+02
              0.199197421913975E+02
             -0.246829915988812E+02
              0.304833173697817E+02
              0.236536858606739E+02
             -0.240473548693939E+02
             -0.264815841340001E+02
              0.389479954754881E+02
             -0.586718491379915E+02
             -0.116495706860329E+02
             -0.195517210732847E+02
              0.212056058336910E+02
             -0.887999088047007E+01
              0.360272744913604E+01
             -0.199978004331509E+02
              0.556986755937025E+02
             -0.438290205741323E+02
              0.785106327914559E+01
              0.583704801836413E+02
             -0.322324508074423E+02
              0.360756562313119E+01
             -0.879971460806064E+01
             -0.667073936110350E+02
             -0.480817264689859E+02
             -0.858193776039682E+01
              0.239945159934281E+02
              0.301369331563786E+02
              0.859778598296862E+01
             -0.411324787812646E+01
              0.151106235356928E+02
             -0.438313768991891E+02
              0.332002590125614E+01
             -0.529526360013891E+02
             -0.324050059279676E+02
              0.473177029269202E+02
             -0.294165270972744E+02
              0.620471167052880E+02
             -0.214309714377499E+02
              0.352309705100719E+02
              0.241011426746272E+02
             -0.642158256484440E+02
             -0.279330121507364E+02
              0.929864349700966E+01
             -0.370731487593966E+02
             -0.338250267661391E+02
             -0.827207130602822E+02
             -0.537439189081763E+02
             -0.508799146083181E+02
             -0.414080264256291E+02
             -0.994282580944542E+00
              0.989764651066554E+01
              0.105088112170426E+01
              0.152615363853937E+02
             -0.547467963782958E+02
              0.141625670389211E+02
              0.256476554136346E+02
             -0.664522218425225E+02
             -0.699991408662827E+02
             -0.430271501605532E+02
             -0.171331132620511E+02
              0.177819918018596E+02
              0.455936727030405E+01
             -0.424125136681654E+02
              0.365000368505929E+02
             -0.215567919559616E+02
              0.515749403094994E+02
             -0.884387855433940E+02
              0.595988082567581E+02
             -0.212905065087318E+01
             -0.367304584395901E+02
             -0.215201786438660E+02
              0.470777146978486E+01
              0.373044104336865E+02
             -0.754053340475286E+02
             -0.120206337852558E+02
             -0.216225846505218E+02
              0.509602373623575E+02
              0.862315250376580E+02
             -0.962327791611233E+02
              0.940909137865656E+02
              0.466015194416512E+02
             -0.722942014128529E+02
             -0.365390090537111E+02
              0.749549329663933E+02
              0.630088935967240E+02
             -0.180839029308227E+02
             -0.460990957955329E+01
              0.728554341234349E+01
              0.646824552720932E+02
             -0.506675735020112E+02
              0.157818472467001E+02
             -0.470365269636555E+01
              0.346598476195144E+02
             -0.744728384228371E+02
             -0.645796095531305E+01
             -0.349965687141067E+02
              0.459135948870978E+02
              0.467323340289331E+02
             -0.859238501177012E+02
             -0.485495539963619E+02
             -0.255444112453292E+02
             -0.338329195445548E+02
             -0.108772309927101E+02
             -0.241808350325918E+02
              0.425985960451422E+02
              0.399431494747053E+02
             -0.561407671527473E+01
             -0.415008491294466E+02
             -0.848053645826584E+02
              0.441675197677084E+02
             -0.521560804976275E+02
             -0.312141890141208E+02
              0.544316074307748E+01
             -0.321652197843752E+02
             -0.396564900260819E+02
             -0.239458052281602E+02
             -0.384345151268816E+02
             -0.269797992214036E+02
[...]
              0.282760448759375E+02
              0.141313222006259E+03
              0.241565507761519E+02
              0.121963253498188E+02
             -0.462464677104766E+02
             -0.635402569367488E+02
             -0.188647838061206E+02
              0.328966386824478E+02
             -0.425898735616045E+01
              0.189618270564772E+02
              0.335090836761609E+02
             -0.583865581466043E+02
              0.221611474651925E+02
              0.580151972664333E+02
              0.550544086252273E+02
             -0.415702910133200E+01
             -0.136597247940938E+01
             -0.991123012341183E+01
             -0.480642845663734E+02
             -0.672469588842663E+02
              0.782533813035428E+02
             -0.519163244378237E+01
             -0.585828521861221E+02
              0.170694538465187E+01
             -0.204403822460676E+02
              0.935466216561529E+02
             -0.215895885685164E+02
             -0.352370259511501E+02
              0.334327733959706E+02
             -0.145355597123576E+02
              0.387998282544489E+02
             -0.232032799015354E+01
              0.100727518838117E+03
              0.487994089242320E+02
             -0.510230263085639E+01
             -0.320664445967104E+02
              0.231425214945036E+02
             -0.526599678480228E+02
             -0.127568293034297E+02
              0.583528104204480E+02
             -0.286856977870640E+02
             -0.436634364508394E+02
             -0.222483040637952E+02
              0.516710065215876E+02
              0.124105192825091E+02
             -0.845826412617620E+02
              0.302801743280603E+02
              0.151662250704161E+02
              0.575552863064303E+01
             -0.511819684983495E+02
             -0.379838515717660E+01
              0.321789051704773E+02
              0.510884819042388E+02
              0.630681246511668E+02
              0.228002064523227E+02
              0.711793732956437E+00
             -0.496373458536502E+02
             -0.508610360255262E+02
             -0.745135214579927E+02
             -0.614318726479951E+01
              0.307969738814867E+02
             -0.378532662980518E+01
              0.544990491212461E+02
             -0.316957179904217E+02
              0.165639766004184E+02
             -0.102333699483494E+02
             -0.288758843247588E+02
              0.583735862218935E+02
              0.789962804910834E+01
              0.602355103680358E+02
              0.508069024756037E+01
              0.264131476933331E+02
             -0.192075263421516E+02
              0.583868287929935E+02
             -0.111341769687824E+02
             -0.981624032581294E-01
             -0.787410525737063E+02
             -0.127984539648544E+02
              0.716493872373301E+02
              0.670607725463597E+02
              0.251168514128640E+02
             -0.129753953010990E+02
              0.345435916911137E+01
             -0.172959348360653E+02
             -0.203984693722580E+01
              0.904858927620959E+02
              0.124142330073380E+01
             -0.189569719484711E+02
             -0.110350221707007E+03
             -0.550553093529696E+02
             -0.373819388081648E+02
             -0.656084918994731E+02
             -0.553648982159305E+02
             -0.679948176834217E+02
             -0.445629613755111E+02
             -0.409663609299951E+02
             -0.450219806079105E+02
              0.481997027881019E+02
             -0.293174669719272E+02
             -0.991466378030325E+02
              0.417514186435654E+02
             -0.259062569664431E+02
             -0.787885642510439E+02
              0.940221818784595E+02
             -0.218909569048035E+02
              0.227329741428452E+02
              0.453596829364965E+02
             -0.133303676509769E+01
              0.253655309111689E+02
              0.470075020625566E+01
              0.409325302387163E+00
             -0.150462957824072E+02
             -0.713453466652210E+02
              0.132850041065868E+02
             -0.128927635585812E+03
              0.622112978521699E+02
             -0.439255441063753E+02
             -0.162399729236828E+02
             -0.157407644849153E+02
              0.710510793401344E+01
             -0.227028923648214E+02
              0.295825688880234E+02
             -0.518488098330936E+02
              0.365783526683489E+02
              0.369793499716778E+02
              0.167621376466041E+02
              0.100489204158729E+02
              0.197102455393827E+02
              0.620066931042606E+01
              0.309046677399902E+02
             -0.796661258835138E+01
             -0.590299962367048E+02
              0.753960963391154E+01
             -0.151598448897829E+02
             -0.193200586767614E+01
              0.504756833834767E+02
             -0.823971558889333E+02
             -0.146725340377816E+01
              0.574842992050776E+00
              0.992951674930697E+01
              0.317224816441855E+02
             -0.123124091325449E+02
              0.832574076050167E+02
              0.485796090659349E+02
             -0.182477982647274E+02
             -0.948879328954655E+01
              0.105204549923292E+01
              0.766574911739935E+02
             -0.584193841583229E+02
             -0.105393826996709E+03
              0.308332685188312E+02
             -0.163082927790524E+02
             -0.139266093042012E+02
              0.129861114864473E+02
              0.765641468174238E+02
              0.462566550373435E+02
             -0.152769683766182E+02
             -0.501246340660706E+02
             -0.546724863831651E+01
              0.305378364124405E+02
             -0.111087329863762E+02
             -0.753135844611695E+02
             -0.271273454211314E+01
             -0.886665415057009E+02
             -0.473806179446219E+02
              0.765811195680165E+02
             -0.481841439708684E+02
             -0.634159043456028E+02
             -0.512499676192305E+02
             -0.348493202586745E+02
              0.340064705470269E+02
              0.818674869948335E+02
             -0.357733047102221E+01
              0.275585007385548E+02
             -0.183257753444609E+02
             -0.691571079635856E+02
              0.463371739280102E+02
             -0.443491733667427E+02
              0.320576694298541E+02
              0.374903783204773E+02
             -0.651935009786968E+01
              0.388688435957212E+02
              0.436694776405998E+02
              0.100289232293010E+03
             -0.155351228777109E+02
             -0.454619853800977E+02
             -0.610359583789516E+02
             -0.123300288033843E+02
             -0.231969872594480E+02
              0.102655739557932E+03
             -0.447624903711314E+02
              0.104746775367274E+02
              0.968056248009162E+01
             -0.263757471744260E+02
             -0.796199445810638E+02
             -0.697590933431746E+01
              0.976390601216411E+02
              0.933370706410045E+01
              0.804797974187267E+01
             -0.525271009277430E+02
             -0.603367386119437E+02
             -0.559067413046670E+01
              0.498709489997773E+02
             -0.221071243808730E+02
              0.107593447611915E+03
             -0.434450091809560E+02
              0.145649565096522E+02
             -0.223208343714966E+02
             -0.716289713087077E+02
              0.166109363341332E+01
             -0.499733689400159E+02
             -0.757945073360323E+02
              0.614451621150715E+01
              0.234830977938265E+01
              0.512396528936442E+02
              0.186394604517465E+02
             -0.322517672220960E+02
              0.229100397619043E+02
             -0.808294497839994E+02
             -0.519767813200046E+02
              0.898420068786474E+02
              0.141735115397733E+02
             -0.187499427671121E+02
             -0.351264030630944E+02
             -0.270483382887710E+01
             -0.583988793037486E+01
              0.827569861000117E+02
              0.416476997119389E+02
             -0.165373335705114E+02
             -0.121472959668033E+02
             -0.426080918895225E+02
             -0.199832287026582E+02
             -0.667474809095645E+02
              0.458059531036663E+02
              0.545239328058133E+01
              0.144447652395226E+02
              0.155685976535264E+02
             -0.536779479259753E+00
             -0.167754675978450E+02
             -0.305628372703947E+01
             -0.100049852860497E+03
             -0.229467543362202E+02
             -0.764731304913226E+01
             -0.945431580504803E+01
              0.544099669469933E+02
              0.621770966080547E+02
              0.164222468296663E+02
             -0.967181008238892E+02
              0.645066368671713E+02
             -0.214054632849113E+02
             -0.375633554731557E+02
             -0.861024033937392E+02
             -0.385663617469752E+02
              0.562701031812582E+02
              0.243487321399356E+02
              0.510099819098662E+01
              0.291109858774441E+02
             -0.562865947318238E+02
             -0.420686758437352E+02
              0.513263376987329E+02
              0.385641197236361E+02
              0.516952195073702E+02
             -0.118157100489671E+01
              0.684015225639854E+01
              0.567514465919201E+02
              0.959092456465540E+02
             -0.299287970231237E+02
              0.321656662529372E+02
             -0.118346623265111E+02
             -0.410581356780035E+02
             -0.313283337246397E+02
             -0.299328553645041E+02
             -0.130855266235642E+02
             -0.521472140930526E+02
             -0.216221222712900E+02
             -0.140687647723360E+03
              0.367904960977230E+02
              0.205794844530338E+02
             -0.393892785788302E+01
             -0.378568164907816E+02
             -0.203267179103277E+02
             -0.524945917299789E+02
              0.150975416641082E+02
              0.817104751233250E+02
             -0.251462558520680E+02
             -0.162430039708145E+02
              0.237458835788061E+02
             -0.487871351221886E+02
              0.877228637355214E+02
              0.153679911287571E+02
              0.225690842722270E+02
              0.488120556271840E+02
              0.318142009344405E+01
              0.539851372911170E+02
              0.142434472279513E+02
             -0.106208641694168E+02
              0.725858517197830E+01
              0.770900973609912E+00
              0.724388389007672E+02
              0.101032818331199E+02
              0.120073311928904E+02
             -0.129928671705392E+02
              0.132014631591462E+02
             -0.907689493787037E+02
             -0.324400139272565E+02
             -0.455665841503876E+02
              0.483074038930164E+02
             -0.289915886599776E+02
             -0.656122239699314E+02
              0.536347895584086E+02
             -0.121356410456017E+02
              0.438476631581944E+02
             -0.895285719907502E+02
              0.231113759907075E+02
              0.853349741957501E+01
              0.582348679952042E+01
             -0.828665902594577E+01
             -0.902166785880161E+01
              0.477658696749855E+02
              0.198126329002878E+01
             -0.473396613665694E+02
             -0.175580356840665E+02
              0.275597946280182E+02
             -0.117515720505033E+03
             -0.926356835440255E+02
              0.394813062342712E+01
              0.117232645902577E+02
             -0.411803077883384E+02
             -0.388109350744691E+01
              0.111706727930204E+03
              0.304978233441137E+02
             -0.569591201946604E+02
              0.921586846288977E+01
             -0.959957846071150E+01
              0.105447407187291E+02
             -0.336650867883030E+02
              0.194873148727953E+02
              0.283692680747049E+02
             -0.294584129541079E+01
              0.107768096319846E+03
             -0.139995056519336E+02
             -0.314723921163145E+02
              0.142016023298454E+02
              0.465018294532338E+02
             -0.354557912403958E+02
             -0.316652228186181E+01
              0.961431053047326E+02
             -0.462431717411425E+01
              0.619748223909315E+02
              0.134887172939949E+02
             -0.896263062075144E+01
             -0.304601152839798E+02
              0.564461643734215E+02
             -0.512025353129917E+02
             -0.219159594939748E+01
             -0.169381045529211E+02
             -0.403653476913991E+02
              0.184644193269524E+02
              0.238722223289117E+02
              0.115970603964512E+02
              0.728431885438340E+00
             -0.383120096085828E+02
              0.214462456885936E+02
             -0.673825098144101E+01
             -0.245430873494323E+02
             -0.209717752592834E+02
              0.202263820179354E+02
             -0.597967284086201E+01
             -0.347828673159476E+02
             -0.106264252025340E+03
              0.102812543545069E+02
              0.247894908897307E+02
             -0.385674475563354E+02
             -0.210173171985971E+02
              0.804193023649148E+02
              0.649720903325681E+01
              0.309416342995372E+02
              0.388498185087656E+01
              0.320461214988178E+02
              0.646010088003482E+01
             -0.371446065206059E+02
             -0.233428454468540E+01
              0.873714373519437E+01
              0.272861944436102E+02
              0.778750971931162E+02
              0.505569044754898E+02
              0.180603380377704E+00
              0.169059410834064E+02
              0.611103302979985E+02
              0.234924218512245E+02
             -0.750060882624342E+02
             -0.272731144903648E+02
              0.150524451291726E+02
              0.558150182424129E+01
              0.253989472260630E+02
             -0.545770771675637E+02
              0.894375438815656E+01
              0.384761746193824E+02
              0.496105163652048E+02
             -0.433228204677951E+02
             -0.688449299938810E+01
             -0.207243433261982E+01
             -0.133010585820834E+02
             -0.364235263537302E+02
             -0.214667314973846E+02
             -0.203129318637477E+01
              0.790203949206682E+01
              0.419891849942673E+02
             -0.306987200957564E+02
              0.823274551093310E+02
              0.326133048300915E+02
              0.219039949386500E+02
              0.332015677828619E+02
              0.321948215616143E+02
              0.345323982964156E+02
              0.535090480031401E+02
             -0.432187755882183E+02
              0.617371723021099E+02
             -0.111880715681089E+03
              0.306110863030564E+02
             -0.106130655497894E+03
              0.851601129550504E+02
              0.687896902885060E+02
             -0.109492805312048E+02
             -0.491355366347641E+02
             -0.428138454708389E+02
             -0.621386635116471E+02
             -0.626485218379627E+02
              0.549989675540173E+02
              0.403842765461317E+02
              0.235837595689202E+02
              0.372548491027821E+02
              0.401796327881044E+02
             -0.380674434039272E+02
             -0.197231058849270E+02
              0.584699663586905E+02
             -0.115797450796794E+02
              0.550154057764040E+02
              0.696745887911468E+02
             -0.555440624507618E+01
             -0.703658210099478E+02
             -0.866635879528303E+00
             -0.248597692575397E+01
             -0.878421336863244E+01
             -0.183191392036758E+01
             -0.650503526082672E+02
             -0.209933948278965E+02
              0.536855962212639E+01
              0.897918099348846E+01
              0.467198178766325E+02
             -0.396279611613732E+02
              0.655048191856368E+02
             -0.423878101579850E+02
              0.209686757978252E+02
              0.348790835541436E+02
 
 BEEF-vdW xc energy contributions
           1 :   -780.085957068877     
           2 :    716.637552623715     
           3 :   -606.799621227312     
           4 :    477.522507187784     
           5 :   -356.180330759532     
           6 :    262.496017479121     
           7 :   -204.071760281370     
           8 :    176.376322469105     
           9 :   -166.756287601064     
          10 :    160.579117117698     
          11 :   -147.005794056274     
          12 :    122.228870767062     
          13 :   -89.3361535766077     
          14 :    55.4049333593932     
          15 :   -27.4975675141333     
          16 :    9.38029593151077     
          17 :  -0.238693310273220     
          18 :   -4.35324388003301     
          19 :    9.92662515386598     
          20 :   -20.3933324836973     
          21 :    36.3567738727161     
          22 :   -55.1245429901139     
          23 :    72.2482125613805     
          24 :   -83.7468123074249     
          25 :    87.9209856521721     
          26 :   -85.9604018668271     
          27 :    81.1638200179500     
          28 :   -77.2454178899944     
          29 :    76.5753627231978     
          30 :   -79.1857978043798     
          31 :   -85.5586954272280     
          32 :   -65.5704023829614     

     Writing output data file ./pwscf.save/
 
     init_run     :    350.11s CPU    354.71s WALL (       1 calls)
     electrons    :  14969.99s CPU  15116.40s WALL (       1 calls)
     forces       :    102.98s CPU    104.22s WALL (       1 calls)

     Called by init_run:
     wfcinit      :    302.82s CPU    306.41s WALL (       1 calls)
     potinit      :     44.29s CPU     44.65s WALL (       1 calls)
     hinit0       :      1.16s CPU      1.19s WALL (       1 calls)

     Called by electrons:
     c_bands      :  12447.97s CPU  12561.95s WALL (      22 calls)
     sum_band     :   1807.92s CPU   1822.94s WALL (      22 calls)
     v_of_rho     :    117.67s CPU    122.40s WALL (      22 calls)
     newd         :     33.95s CPU     46.59s WALL (      22 calls)
     PAW_pot      :    145.61s CPU    145.62s WALL (      22 calls)
     mix_rho      :    461.83s CPU    462.76s WALL (      22 calls)
     vdW_kernel   :     33.46s CPU     33.46s WALL (       1 calls)

     Called by c_bands:
     init_us_2    :     88.09s CPU     88.41s WALL (     598 calls)
     cegterg      :  11541.07s CPU  11654.64s WALL (     286 calls)

     Called by *egterg:
     cdiaghg      :     92.98s CPU     93.03s WALL (    1557 calls)
     h_psi        :   7532.51s CPU   7572.31s WALL (    1583 calls)
     s_psi        :   1196.79s CPU   1197.13s WALL (    1583 calls)
     g_psi        :     18.25s CPU     18.27s WALL (    1284 calls)

     Called by h_psi:
     h_psi:calbec :   1125.60s CPU   1126.00s WALL (    1583 calls)
     vloc_psi     :   5182.42s CPU   5185.26s WALL (    1583 calls)
     add_vuspsi   :   1195.81s CPU   1196.11s WALL (    1583 calls)

     General routines
     calbec       :   1653.63s CPU   1654.43s WALL (    1921 calls)
     fft          :     53.93s CPU     53.96s WALL (    3342 calls)
     ffts         :    147.03s CPU    147.12s WALL (    9652 calls)
     fftw         :   5271.21s CPU   5273.93s WALL (  362936 calls)
 
     Parallel routines
 
     PWSCF        :      4h18m CPU      4h21m WALL

 
   This run was terminated on:  18:30:43  26Sep2022            

=------------------------------------------------------------------------------=
   JOB DONE.
=------------------------------------------------------------------------------=
