
     Program PWSCF v.6.7MaX starts on 26Sep2022 at 14: 1: 4 

     This program is part of the open-source Quantum ESPRESSO suite
     for quantum simulation of materials; please cite
         "P. Giannozzi et al., J. Phys.:Condens. Matter 21 395502 (2009);
         "P. Giannozzi et al., J. Phys.:Condens. Matter 29 465901 (2017);
          URL http://www.quantum-espresso.org", 
     in publications or presentations arising from this work. More details at
     http://www.quantum-espresso.org/quote

     Parallel version (MPI), running on     1 processors

     MPI processes distributed on     1 nodes
     Reading input from ch2cch2-ensemble.in
Warning: card &CELL ignored
Warning: card / ignored

     Current dimensions of program PWSCF are:
     Max number of different atomic species (ntypx) = 10
     Max number of k-points (npk) =  40000
     Max angular momentum in pseudopotentials (lmaxx) =  3
     file Pt.pbe-n-kjpaw_psl.1.0.0.UPF: wavefunction(s)  6S 5D renormalized
     file C.pbe-n-kjpaw_psl.1.0.0.UPF: wavefunction(s)  2S 2P renormalized
     file H.pbe-kjpaw_psl.1.0.0.UPF: wavefunction(s)  1S renormalized

     **************************************************************************
     Initializing libbeef V0.1.2 with the BEEF-vdW functional.
     Citation: Wellendorff et al., PRB 85, 235149 (2012).
     **************************************************************************


     IMPORTANT: XC functional enforced from input :
     Exchange-correlation= BEEF-VDW
                           (   1   4  43  14   2   0   0)
     Any further DFT definition will be discarded
     Please, verify this is what you really want


     Subspace diagonalization in iterative solution of the eigenvalue problem:
     a serial algorithm will be used

 
     G-vector sticks info
     --------------------
     sticks:   dense  smooth     PW     G-vecs:    dense   smooth      PW
     Sum        4267    4267   1159               759489   759489  107125
 


     bravais-lattice index     =            0
     lattice parameter (alat)  =      16.0349  a.u.
     unit-cell volume          =   12088.4320 (a.u.)^3
     number of atoms/cell      =           43
     number of atomic types    =            3
     number of electrons       =       376.00
     number of Kohn-Sham states=          226
     kinetic-energy cutoff     =      60.0000  Ry
     charge density cutoff     =     240.0000  Ry
     scf convergence threshold =      1.0E-06
     mixing beta               =       0.7000
     number of iterations used =            8  local-TF  mixing
     Exchange-correlation= BEEF-VDW
                           (   1   4  43  14   2   0   0)

     celldm(1)=  16.034858  celldm(2)=   0.000000  celldm(3)=   0.000000
     celldm(4)=   0.000000  celldm(5)=   0.000000  celldm(6)=   0.000000

     crystal axes: (cart. coord. in units of alat)
               a(1) = (   1.000000   0.000000   0.000000 )  
               a(2) = (   0.500000   0.866025   0.000000 )  
               a(3) = (   0.000000   0.000000   3.385665 )  

     reciprocal axes: (cart. coord. in units 2 pi/alat)
               b(1) = (  1.000000 -0.577350  0.000000 )  
               b(2) = (  0.000000  1.154701  0.000000 )  
               b(3) = (  0.000000  0.000000  0.295363 )  


     PseudoPot. # 1 for Pt read from file:
     /users/bkreitz1/quantum-espresso/potentials/Pt.pbe-n-kjpaw_psl.1.0.0.UPF
     MD5 check sum: 04dc8a03c51ece93fc7b5889c2958091
     Pseudo is Projector augmented-wave + core cor, Zval = 10.0
     Generated using 'atomic' code by A. Dal Corso  v.6.7MaX
     Shape of augmentation charge: PSQ
     Using radial grid of 1277 points,  6 beta functions with: 
                l(1) =   0
                l(2) =   0
                l(3) =   1
                l(4) =   1
                l(5) =   2
                l(6) =   2
     Q(r) pseudized with 0 coefficients 


     PseudoPot. # 2 for C  read from file:
     /users/bkreitz1/quantum-espresso/potentials/C.pbe-n-kjpaw_psl.1.0.0.UPF
     MD5 check sum: a169b0ebad56f5ec0d79c4633f80bf22
     Pseudo is Projector augmented-wave + core cor, Zval =  4.0
     Generated using 'atomic' code by A. Dal Corso  v.6.7MaX
     Shape of augmentation charge: PSQ
     Using radial grid of 1073 points,  4 beta functions with: 
                l(1) =   0
                l(2) =   0
                l(3) =   1
                l(4) =   1
     Q(r) pseudized with 0 coefficients 


     PseudoPot. # 3 for H  read from file:
     /users/bkreitz1/quantum-espresso/potentials/H.pbe-kjpaw_psl.1.0.0.UPF
     MD5 check sum: ae98473e6dc62675f0d0baffdab24f65
     Pseudo is Projector augmented-wave, Zval =  1.0
     Generated using 'atomic' code by A. Dal Corso  v.6.7MaX
     Shape of augmentation charge: PSQ
     Using radial grid of  929 points,  2 beta functions with: 
                l(1) =   0
                l(2) =   0
     Q(r) pseudized with 0 coefficients 


     atomic species   valence    mass     pseudopotential
        Pt            10.00   195.08400     Pt( 1.00)
        C              4.00    12.01100     C ( 1.00)
        H              1.00     1.00800     H ( 1.00)

     No symmetry found



   Cartesian axes

     site n.     atom                  positions (alat units)
         1           Pt  tau(   1) = (   0.0000000   0.0000000   1.0017346  )
         2           Pt  tau(   2) = (   0.3333333   0.0000000   1.0017346  )
         3           Pt  tau(   3) = (   0.6666667   0.0000000   1.0017346  )
         4           Pt  tau(   4) = (   0.1666667   0.2886751   1.0017346  )
         5           Pt  tau(   5) = (   0.5000000   0.2886751   1.0017346  )
         6           Pt  tau(   6) = (   0.8333333   0.2886751   1.0017346  )
         7           Pt  tau(   7) = (   0.3333333   0.5773503   1.0017346  )
         8           Pt  tau(   8) = (   0.6666667   0.5773503   1.0017346  )
         9           Pt  tau(   9) = (   1.0000000   0.5773503   1.0017346  )
        10           Pt  tau(  10) = (   0.1666667   0.0962250   1.2739001  )
        11           Pt  tau(  11) = (   0.5000000   0.0962250   1.2739001  )
        12           Pt  tau(  12) = (   0.8333333   0.0962250   1.2739001  )
        13           Pt  tau(  13) = (   0.3333333   0.3849002   1.2739001  )
        14           Pt  tau(  14) = (   0.6666667   0.3849002   1.2739001  )
        15           Pt  tau(  15) = (   1.0000000   0.3849002   1.2739001  )
        16           Pt  tau(  16) = (   0.5000000   0.6735753   1.2739001  )
        17           Pt  tau(  17) = (   0.8333333   0.6735753   1.2739001  )
        18           Pt  tau(  18) = (   1.1666667   0.6735753   1.2739001  )
        19           Pt  tau(  19) = (  -0.0000603   0.1920869   1.5425404  )
        20           Pt  tau(  20) = (   0.3329295   0.1919958   1.5425355  )
        21           Pt  tau(  21) = (   0.6665284   0.1920014   1.5425274  )
        22           Pt  tau(  22) = (   0.1665419   0.4807356   1.5427450  )
        23           Pt  tau(  23) = (   0.4998746   0.4809906   1.5425462  )
        24           Pt  tau(  24) = (   0.8330904   0.4808690   1.5426482  )
        25           Pt  tau(  25) = (   0.3331562   0.7694835   1.5426958  )
        26           Pt  tau(  26) = (   0.6665500   0.7691919   1.5429923  )
        27           Pt  tau(  27) = (   0.9998411   0.7694776   1.5427012  )
        28           Pt  tau(  28) = (  -0.0003715  -0.0009147   1.8166539  )
        29           Pt  tau(  29) = (   0.3330856  -0.0009127   1.8169271  )
        30           Pt  tau(  30) = (   0.6663140  -0.0010257   1.8168017  )
        31           Pt  tau(  31) = (   0.1662617   0.2878201   1.8170868  )
        32           Pt  tau(  32) = (   0.4992728   0.2877504   1.8157207  )
        33           Pt  tau(  33) = (   0.8332953   0.2876172   1.8162217  )
        34           Pt  tau(  34) = (   0.3329294   0.5765906   1.8168136  )
        35           Pt  tau(  35) = (   0.6662605   0.5761212   1.8176918  )
        36           Pt  tau(  36) = (   0.9997997   0.5766081   1.8166074  )
        37           C   tau(  37) = (   0.6678477   0.2349640   2.2679481  )
        38           C   tau(  38) = (   0.6878546   0.3867990   2.2535845  )
        39           C   tau(  39) = (   0.7067789   0.5391414   2.2384480  )
        40           H   tau(  40) = (   0.6279444   0.1635236   2.1696395  )
        41           H   tau(  41) = (   0.6899878   0.1750791   2.3786330  )
        42           H   tau(  42) = (   0.8191042   0.5892216   2.2033137  )
        43           H   tau(  43) = (   0.6111864   0.6208389   2.2629434  )

     number of k points=    13  Marzari-Vanderbilt smearing, width (Ry)=  0.0200
                       cart. coord. in units 2pi/alat
        k(    1) = (   0.0000000   0.0000000   0.0000000), wk =   0.0800000
        k(    2) = (   0.0000000   0.2309401   0.0000000), wk =   0.1600000
        k(    3) = (   0.0000000   0.4618802   0.0000000), wk =   0.1600000
        k(    4) = (   0.2000000  -0.1154701   0.0000000), wk =   0.1600000
        k(    5) = (   0.2000000   0.1154701   0.0000000), wk =   0.1600000
        k(    6) = (   0.2000000   0.3464102   0.0000000), wk =   0.1600000
        k(    7) = (   0.2000000  -0.5773503   0.0000000), wk =   0.1600000
        k(    8) = (   0.2000000  -0.3464102   0.0000000), wk =   0.1600000
        k(    9) = (   0.4000000  -0.2309401   0.0000000), wk =   0.1600000
        k(   10) = (   0.4000000  -0.0000000   0.0000000), wk =   0.1600000
        k(   11) = (   0.4000000   0.2309401   0.0000000), wk =   0.1600000
        k(   12) = (   0.4000000  -0.6928203   0.0000000), wk =   0.1600000
        k(   13) = (   0.4000000  -0.4618802   0.0000000), wk =   0.1600000

     Dense  grid:   759489 G-vectors     FFT dimensions: (  80,  80, 270)

     Estimated max dynamical RAM per process >       9.22 GB

     Check: negative core charge=   -0.000002

     Initial potential from superposition of free atoms

     starting charge  375.99373, renormalised to  376.00000

     negative rho (up, down):  1.101E-02 0.000E+00


     %%%%%%%%%%%%%%%%%%%%%%%%%%%%%%%%%%%%%%%%%%%%%%%%%%%%%%%%%%%%%%%%%%%%%%%%
     %                                                                      %
     % You are using vdW-DF, which was implemented by the Thonhauser group. %
     % Please cite the following two papers that made this development      %
     % possible and the two reviews that describe the various versions:     %
     %                                                                      %
     %   T. Thonhauser et al., PRL 115, 136402 (2015).                      %
     %   T. Thonhauser et al., PRB 76, 125112 (2007).                       %
     %   K. Berland et al., Rep. Prog. Phys. 78, 066501 (2015).             %
     %   D.C. Langreth et al., J. Phys.: Condens. Matter 21, 084203 (2009). %
     %                                                                      %
     %                                                                      %
     % If you are calculating the stress with vdW-DF, please also cite:     %
     %                                                                      %
     %   R. Sabatini et al., J. Phys.: Condens. Matter 24, 424209 (2012).   %
     %                                                                      %
     %%%%%%%%%%%%%%%%%%%%%%%%%%%%%%%%%%%%%%%%%%%%%%%%%%%%%%%%%%%%%%%%%%%%%%%%


     Starting wfcs are  340 randomized atomic wfcs
     Checking if some PAW data can be deallocated... 

     total cpu time spent up to now is      363.2 secs

     Self-consistent Calculation

     iteration #  1     ecut=    60.00 Ry     beta= 0.70
     Davidson diagonalization with overlap
     ethr =  1.00E-02,  avg # of iterations =  2.0

     Threshold (ethr) on eigenvalues was too large:
     Diagonalizing with lowered threshold

     Davidson diagonalization with overlap
     ethr =  7.24E-04,  avg # of iterations =  2.7

     negative rho (up, down):  1.074E-02 0.000E+00

     total cpu time spent up to now is     1785.1 secs

     total energy              =  -27815.83431241 Ry
     estimated scf accuracy    <       2.95113116 Ry

     iteration #  2     ecut=    60.00 Ry     beta= 0.70
     Davidson diagonalization with overlap
     ethr =  7.85E-04,  avg # of iterations =  2.2

     negative rho (up, down):  9.078E-03 0.000E+00

     total cpu time spent up to now is     2441.4 secs

     total energy              =  -27815.94920011 Ry
     estimated scf accuracy    <       1.09158490 Ry

     iteration #  3     ecut=    60.00 Ry     beta= 0.70
     Davidson diagonalization with overlap
     ethr =  2.90E-04,  avg # of iterations =  3.5

     negative rho (up, down):  5.379E-03 0.000E+00

     total cpu time spent up to now is     3113.2 secs

     total energy              =  -27815.97141586 Ry
     estimated scf accuracy    <       0.34625642 Ry

     iteration #  4     ecut=    60.00 Ry     beta= 0.70
     Davidson diagonalization with overlap
     ethr =  9.21E-05,  avg # of iterations = 11.3

     negative rho (up, down):  4.000E-03 0.000E+00

     total cpu time spent up to now is     4034.1 secs

     total energy              =  -27816.03484621 Ry
     estimated scf accuracy    <       0.10389925 Ry

     iteration #  5     ecut=    60.00 Ry     beta= 0.70
     Davidson diagonalization with overlap
     c_bands:  1 eigenvalues not converged
     c_bands:  2 eigenvalues not converged
     ethr =  2.76E-05,  avg # of iterations =  6.7

     negative rho (up, down):  2.770E-03 0.000E+00

     total cpu time spent up to now is     4798.8 secs

     total energy              =  -27816.03879809 Ry
     estimated scf accuracy    <       0.03445684 Ry

     iteration #  6     ecut=    60.00 Ry     beta= 0.70
     Davidson diagonalization with overlap
     c_bands:  1 eigenvalues not converged
     c_bands:  1 eigenvalues not converged
     c_bands:  1 eigenvalues not converged
     c_bands:  1 eigenvalues not converged
     c_bands:  1 eigenvalues not converged
     c_bands:  1 eigenvalues not converged
     ethr =  9.16E-06,  avg # of iterations = 13.4

     negative rho (up, down):  2.330E-03 0.000E+00

     total cpu time spent up to now is     5614.3 secs

     total energy              =  -27816.03884838 Ry
     estimated scf accuracy    <       0.07221916 Ry

     iteration #  7     ecut=    60.00 Ry     beta= 0.70
     Davidson diagonalization with overlap
     c_bands:  1 eigenvalues not converged
     c_bands:  1 eigenvalues not converged
     ethr =  9.16E-06,  avg # of iterations = 12.3

     negative rho (up, down):  3.977E-03 0.000E+00

     total cpu time spent up to now is     6370.2 secs

     total energy              =  -27816.03846914 Ry
     estimated scf accuracy    <       0.02568148 Ry

     iteration #  8     ecut=    60.00 Ry     beta= 0.70
     Davidson diagonalization with overlap
     c_bands:  1 eigenvalues not converged
     c_bands:  1 eigenvalues not converged
     c_bands:  1 eigenvalues not converged
     c_bands:  1 eigenvalues not converged
     ethr =  6.83E-06,  avg # of iterations = 13.7

     negative rho (up, down):  5.222E-03 0.000E+00

     total cpu time spent up to now is     7120.9 secs

     total energy              =  -27816.03920243 Ry
     estimated scf accuracy    <       0.01709697 Ry

     iteration #  9     ecut=    60.00 Ry     beta= 0.70
     Davidson diagonalization with overlap
     ethr =  4.55E-06,  avg # of iterations =  5.6

     negative rho (up, down):  1.518E-02 0.000E+00

     total cpu time spent up to now is     7761.3 secs

     total energy              =  -27816.03809101 Ry
     estimated scf accuracy    <       0.01468842 Ry

     iteration # 10     ecut=    60.00 Ry     beta= 0.70
     Davidson diagonalization with overlap
     c_bands:  2 eigenvalues not converged
     ethr =  3.91E-06,  avg # of iterations = 13.0

     negative rho (up, down):  3.026E-02 0.000E+00

     total cpu time spent up to now is     8530.8 secs

     total energy              =  -27816.03801965 Ry
     estimated scf accuracy    <       0.00745354 Ry

     iteration # 11     ecut=    60.00 Ry     beta= 0.70
     Davidson diagonalization with overlap
     c_bands:  1 eigenvalues not converged
     c_bands:  2 eigenvalues not converged
     c_bands:  2 eigenvalues not converged
     ethr =  1.98E-06,  avg # of iterations = 13.5

     negative rho (up, down):  2.735E-02 0.000E+00

     total cpu time spent up to now is     9323.7 secs

     total energy              =  -27816.03810281 Ry
     estimated scf accuracy    <       0.00116963 Ry

     iteration # 12     ecut=    60.00 Ry     beta= 0.70
     Davidson diagonalization with overlap
     ethr =  3.11E-07,  avg # of iterations =  5.9

     negative rho (up, down):  2.493E-02 0.000E+00

     total cpu time spent up to now is    10054.5 secs

     total energy              =  -27816.03807394 Ry
     estimated scf accuracy    <       0.00045312 Ry

     iteration # 13     ecut=    60.00 Ry     beta= 0.70
     Davidson diagonalization with overlap
     c_bands:  1 eigenvalues not converged
     ethr =  1.21E-07,  avg # of iterations =  8.2

     negative rho (up, down):  2.093E-02 0.000E+00

     total cpu time spent up to now is    10799.5 secs

     total energy              =  -27816.03796378 Ry
     estimated scf accuracy    <       0.00022579 Ry

     iteration # 14     ecut=    60.00 Ry     beta= 0.70
     Davidson diagonalization with overlap
     c_bands:  2 eigenvalues not converged
     c_bands:  1 eigenvalues not converged
     c_bands:  1 eigenvalues not converged
     ethr =  6.01E-08,  avg # of iterations =  9.1

     negative rho (up, down):  2.069E-02 0.000E+00

     total cpu time spent up to now is    11522.7 secs

     total energy              =  -27816.03794589 Ry
     estimated scf accuracy    <       0.00025427 Ry

     iteration # 15     ecut=    60.00 Ry     beta= 0.70
     Davidson diagonalization with overlap
     ethr =  6.01E-08,  avg # of iterations =  2.0

     negative rho (up, down):  1.873E-02 0.000E+00

     total cpu time spent up to now is    12161.0 secs

     total energy              =  -27816.03791588 Ry
     estimated scf accuracy    <       0.00011153 Ry

     iteration # 16     ecut=    60.00 Ry     beta= 0.70
     Davidson diagonalization with overlap
     c_bands:  1 eigenvalues not converged
     ethr =  2.97E-08,  avg # of iterations =  4.7

     negative rho (up, down):  1.634E-02 0.000E+00

     total cpu time spent up to now is    12835.6 secs

     total energy              =  -27816.03789702 Ry
     estimated scf accuracy    <       0.00007662 Ry

     iteration # 17     ecut=    60.00 Ry     beta= 0.70
     Davidson diagonalization with overlap
     ethr =  2.04E-08,  avg # of iterations =  5.2

     negative rho (up, down):  1.539E-02 0.000E+00

     total cpu time spent up to now is    13501.4 secs

     total energy              =  -27816.03789355 Ry
     estimated scf accuracy    <       0.00003991 Ry

     iteration # 18     ecut=    60.00 Ry     beta= 0.70
     Davidson diagonalization with overlap
     ethr =  1.06E-08,  avg # of iterations =  2.0

     negative rho (up, down):  1.413E-02 0.000E+00

     total cpu time spent up to now is    14150.0 secs

     total energy              =  -27816.03788667 Ry
     estimated scf accuracy    <       0.00002525 Ry

     iteration # 19     ecut=    60.00 Ry     beta= 0.70
     Davidson diagonalization with overlap
     ethr =  6.72E-09,  avg # of iterations =  2.0

     negative rho (up, down):  1.236E-02 0.000E+00

     total cpu time spent up to now is    14811.8 secs

     total energy              =  -27816.03788475 Ry
     estimated scf accuracy    <       0.00002052 Ry

     iteration # 20     ecut=    60.00 Ry     beta= 0.70
     Davidson diagonalization with overlap
     ethr =  5.46E-09,  avg # of iterations =  3.3

     negative rho (up, down):  1.197E-02 0.000E+00

     total cpu time spent up to now is    15464.2 secs

     total energy              =  -27816.03788605 Ry
     estimated scf accuracy    <       0.00000685 Ry

     iteration # 21     ecut=    60.00 Ry     beta= 0.70
     Davidson diagonalization with overlap
     ethr =  1.82E-09,  avg # of iterations =  2.2

     negative rho (up, down):  1.194E-02 0.000E+00

     total cpu time spent up to now is    16145.1 secs

     total energy              =  -27816.03788639 Ry
     estimated scf accuracy    <       0.00000632 Ry

     iteration # 22     ecut=    60.00 Ry     beta= 0.70
     Davidson diagonalization with overlap
     ethr =  1.68E-09,  avg # of iterations =  1.6

     negative rho (up, down):  1.215E-02 0.000E+00

     total cpu time spent up to now is    16757.7 secs

     total energy              =  -27816.03788573 Ry
     estimated scf accuracy    <       0.00000230 Ry

     iteration # 23     ecut=    60.00 Ry     beta= 0.70
     Davidson diagonalization with overlap
     ethr =  6.13E-10,  avg # of iterations =  2.3

     negative rho (up, down):  1.212E-02 0.000E+00

     total cpu time spent up to now is    17442.7 secs

     End of self-consistent calculation

          k = 0.0000 0.0000 0.0000 ( 94981 PWs)   bands (ev):

   -13.1496 -10.9496  -7.4414  -6.3411  -6.1297  -5.0570  -5.0215  -5.0198
    -5.0182  -5.0181  -5.0177  -5.0163  -5.0080  -4.5156  -4.4620  -4.4617
    -4.4610  -4.4602  -4.4601  -4.4591  -4.3191  -4.3082  -3.9878  -3.9869
    -3.9869  -3.9853  -3.9845  -3.9843  -3.7716  -3.7713  -3.7700  -3.7696
    -3.7693  -3.7674  -3.5436  -3.5432  -3.5374  -3.5353  -3.5257  -3.5248
    -3.5240  -3.5226  -3.5220  -3.5212  -3.5072  -3.5039  -2.9273  -2.9268
    -2.8932  -2.8928  -2.8391  -2.8383  -2.8369  -2.8368  -2.8364  -2.8349
    -2.7000  -2.6990  -2.5992  -2.5961  -2.0934  -2.0919  -2.0916  -2.0897
    -2.0886  -2.0869  -2.0259  -1.9353  -1.9352  -1.9047  -1.9042  -1.8920
    -1.8894  -1.8765  -1.8705  -1.8703  -1.8695  -1.8693  -1.8683  -1.8668
    -1.8332  -1.8325  -1.6794  -1.6778  -1.6761  -1.6755  -1.6743  -1.6725
    -1.5246  -1.5201  -1.5195  -1.5186  -1.5172  -1.5157  -1.4238  -1.4233
    -1.3256  -1.3247  -1.2621  -1.2618  -1.2544  -1.2530  -1.2160  -1.2156
    -1.2029  -1.2022  -1.0599  -1.0544  -1.0504  -1.0485  -1.0477  -1.0472
    -1.0415  -0.5561  -0.5551  -0.5536  -0.5534  -0.5529  -0.5516  -0.4955
    -0.4827  -0.4822  -0.4796  -0.4776  -0.4767  -0.4108  -0.4075  -0.2800
    -0.2411  -0.2380  -0.2350  -0.2323  -0.2314  -0.0973  -0.0949  -0.0925
    -0.0832  -0.0805  -0.0802   0.0376   0.0655   0.1756   0.1762   0.1770
     0.1777   0.1787   0.1793   0.2552   0.2583   0.4354   0.4372   0.4393
     0.4397   0.4437   0.4576   0.6078   0.6092   0.6102   0.6105   0.6118
     0.6134   0.6527   0.6535   0.6542   0.6555   0.6636   0.6963   0.7854
     0.7874   0.8052   0.8063   0.8072   0.8078   0.8080   0.8088   0.9102
     0.9129   0.9130   0.9145   0.9158   0.9168   0.9194   0.9204   1.0149
     1.0153   1.0161   1.0180   1.0183   1.0191   1.1166   1.1200   1.1256
     1.1261   1.1295   1.1302   1.2286   1.3415   1.3479   1.4504   1.4511
     1.4532   1.4534   1.4547   1.4556   2.2915   2.3364   2.3384   2.3413
     2.3470   2.3551   2.3953   4.6487   4.6578   4.6674   4.6752   4.6894
     4.7068   5.5700   5.9061   6.0086   6.2116   6.2203   6.2656   6.2676
     6.2699   6.2705

          k = 0.0000 0.2309 0.0000 ( 94856 PWs)   bands (ev):

   -13.1496 -10.9499  -7.2944  -6.3378  -5.9860  -5.5353  -5.1346  -5.1339
    -4.9098  -4.8729  -4.8295  -4.7840  -4.7830  -4.5802  -4.5560  -4.5135
    -4.4004  -4.3993  -4.3843  -4.3814  -4.3127  -4.3069  -4.1016  -3.9676
    -3.9667  -3.9388  -3.9303  -3.8698  -3.8679  -3.8001  -3.7997  -3.7984
    -3.7977  -3.7126  -3.6917  -3.6893  -3.5721  -3.5696  -3.5679  -3.5089
    -3.5084  -3.3517  -3.3491  -3.3170  -3.3166  -3.2874  -3.0513  -3.0498
    -3.0086  -2.9635  -2.9623  -2.9188  -2.9182  -2.7416  -2.7405  -2.6736
    -2.6722  -2.6288  -2.5966  -2.5941  -2.3893  -2.2943  -2.2936  -2.2082
    -2.2066  -2.1689  -2.1279  -2.0949  -2.0936  -2.0746  -2.0507  -2.0495
    -2.0048  -1.9308  -1.9139  -1.8994  -1.8972  -1.8301  -1.8131  -1.8122
    -1.7530  -1.7378  -1.7355  -1.6715  -1.6390  -1.6167  -1.6144  -1.6110
    -1.5262  -1.5253  -1.5131  -1.5103  -1.5004  -1.4266  -1.4236  -1.4085
    -1.3990  -1.3354  -1.3291  -1.3284  -1.2800  -1.2779  -1.2398  -1.2381
    -1.2238  -1.1336  -1.0597  -1.0529  -1.0512  -1.0438  -1.0428  -1.0172
    -1.0100  -1.0095  -0.9543  -0.9532  -0.9272  -0.9257  -0.7229  -0.6408
    -0.5840  -0.5356  -0.5342  -0.5274  -0.5239  -0.4981  -0.4967  -0.3376
    -0.3278  -0.3240  -0.2473  -0.1889  -0.1820  -0.1655  -0.1597  -0.0746
    -0.0588  -0.0544  -0.0470   0.0089   0.0403   0.0500   0.0551   0.0684
     0.0811   0.0837   0.2692   0.2929   0.3075   0.3081   0.3097   0.3376
     0.3599   0.4275   0.4466   0.4570   0.4831   0.5122   0.5508   0.5509
     0.5518   0.5562   0.6687   0.6732   0.6976   0.6981   0.7923   0.8425
     0.8457   0.8517   0.8538   0.8737   0.9162   0.9239   0.9828   0.9833
     1.0417   1.0459   1.0499   1.0972   1.0986   1.1007   1.1040   1.1049
     1.1107   1.1773   1.1784   1.3373   1.3380   1.3544   1.3681   1.3779
     1.3790   1.4166   1.4569   1.4582   1.4739   1.5716   1.5733   1.5963
     1.7559   1.7588   1.7611   1.7979   1.8385   2.2133   2.2248   2.9289
     2.9317   2.9797   3.0885   3.9468   4.3921   4.4134   5.0770   5.0779
     5.2306   5.2361   5.4493   5.6797   5.8104   6.0123   6.0692   6.1049
     6.2995   6.3920

          k = 0.0000 0.4619 0.0000 ( 94878 PWs)   bands (ev):

   -13.1495 -10.9503  -6.8713  -6.3337  -6.2359  -5.5806  -5.1684  -5.1681
    -5.0257  -4.8032  -4.6475  -4.5356  -4.5127  -4.4816  -4.4427  -4.4416
    -4.3243  -4.3139  -4.2549  -4.2474  -4.2274  -4.2201  -4.2186  -4.0947
    -4.0603  -4.0598  -4.0090  -4.0082  -3.9462  -3.9179  -3.8711  -3.8702
    -3.8363  -3.5975  -3.5971  -3.5801  -3.5799  -3.5784  -3.5775  -3.3533
    -3.3519  -3.2932  -3.2929  -3.2813  -3.2811  -3.1013  -2.9974  -2.9969
    -2.9875  -2.9867  -2.9213  -2.9199  -2.8695  -2.8569  -2.8564  -2.7774
    -2.7757  -2.6467  -2.6461  -2.5946  -2.5942  -2.4993  -2.4600  -2.4166
    -2.4159  -2.4148  -2.2761  -2.1996  -2.1875  -2.1760  -2.1752  -2.0883
    -2.0846  -2.0613  -1.9547  -1.9521  -1.9303  -1.9279  -1.8066  -1.8055
    -1.8045  -1.8036  -1.7996  -1.7266  -1.7093  -1.7081  -1.7054  -1.6763
    -1.6749  -1.6747  -1.6594  -1.6188  -1.5529  -1.5340  -1.5305  -1.5247
    -1.4833  -1.4801  -1.4565  -1.3800  -1.3142  -1.2814  -1.2812  -1.2374
    -1.2352  -1.2064  -1.2003  -1.1990  -1.0650  -1.0640  -1.0484  -0.9876
    -0.9838  -0.9354  -0.8010  -0.7998  -0.7701  -0.7155  -0.6315  -0.6284
    -0.6147  -0.5974  -0.5946  -0.5915  -0.5898  -0.4990  -0.4936  -0.4660
    -0.4634  -0.4439  -0.4382  -0.4276  -0.4232  -0.3872  -0.3686  -0.2581
    -0.2247  -0.2225  -0.1574  -0.1516  -0.0617  -0.0602  -0.0032   0.0560
     0.0823   0.0883   0.1707   0.2235   0.2478   0.2728   0.2751   0.2940
     0.3340   0.3354   0.3911   0.4047   0.4425   0.4451   0.5059   0.5514
     0.5534   0.6060   0.6068   0.6169   0.6182   0.6996   0.7990   0.8069
     0.8852   0.8985   0.8989   0.9051   0.9949   1.0067   1.0072   1.1023
     1.1049   1.1106   1.1162   1.1807   1.2016   1.2026   1.2156   1.3367
     1.3377   1.3618   1.3636   1.3718   1.3745   1.3934   1.3959   1.5641
     1.6066   1.6080   1.6148   1.6169   1.8041   1.8395   2.2214   2.2299
     2.2830   2.5341   2.6540   2.6540   3.0546   3.0579   3.2538   3.3925
     3.8664   3.8667   3.8899   4.0412   4.1396   4.1458   4.2853   4.3097
     4.5360   4.5391   5.1637   5.1752   5.6119   5.6584   5.7606   5.8461
     6.1723   6.2025

          k = 0.2000-0.1155 0.0000 ( 94856 PWs)   bands (ev):

   -13.1496 -10.9497  -7.2944  -6.3395  -5.9858  -5.5344  -5.1359  -5.1337
    -4.9097  -4.8727  -4.8280  -4.7856  -4.7831  -4.5787  -4.5562  -4.5146
    -4.4002  -4.3990  -4.3831  -4.3789  -4.3145  -4.3067  -4.1021  -3.9680
    -3.9667  -3.9373  -3.9300  -3.8705  -3.8681  -3.8004  -3.7998  -3.7985
    -3.7963  -3.7118  -3.6921  -3.6905  -3.5704  -3.5695  -3.5680  -3.5102
    -3.5081  -3.3525  -3.3483  -3.3184  -3.3159  -3.2885  -3.0516  -3.0502
    -3.0078  -2.9634  -2.9617  -2.9194  -2.9179  -2.7433  -2.7400  -2.6746
    -2.6715  -2.6287  -2.5963  -2.5938  -2.3907  -2.2947  -2.2933  -2.2111
    -2.2078  -2.1702  -2.1301  -2.0940  -2.0900  -2.0736  -2.0502  -2.0492
    -2.0046  -1.9313  -1.9167  -1.9012  -1.8970  -1.8301  -1.8081  -1.8058
    -1.7530  -1.7395  -1.7371  -1.6712  -1.6363  -1.6213  -1.6189  -1.6137
    -1.5243  -1.5214  -1.5141  -1.5114  -1.5003  -1.4259  -1.4246  -1.4078
    -1.3958  -1.3348  -1.3314  -1.3287  -1.2794  -1.2773  -1.2406  -1.2353
    -1.2244  -1.1332  -1.0577  -1.0542  -1.0479  -1.0463  -1.0421  -1.0145
    -1.0108  -1.0088  -0.9595  -0.9525  -0.9276  -0.9251  -0.7264  -0.6418
    -0.5830  -0.5361  -0.5352  -0.5272  -0.5222  -0.4984  -0.4968  -0.3366
    -0.3316  -0.3233  -0.2374  -0.1983  -0.1808  -0.1700  -0.1553  -0.0783
    -0.0577  -0.0549  -0.0463   0.0237   0.0403   0.0471   0.0580   0.0703
     0.0797   0.0847   0.2716   0.2935   0.3068   0.3075   0.3101   0.3404
     0.3448   0.4316   0.4507   0.4568   0.4834   0.5108   0.5487   0.5508
     0.5526   0.5578   0.6678   0.6719   0.6965   0.6978   0.7902   0.8440
     0.8461   0.8526   0.8545   0.8748   0.9156   0.9246   0.9822   0.9840
     1.0427   1.0443   1.0501   1.0957   1.0987   1.1000   1.1048   1.1049
     1.1110   1.1783   1.1796   1.3396   1.3399   1.3511   1.3675   1.3762
     1.3787   1.4149   1.4542   1.4568   1.4739   1.5720   1.5734   1.5963
     1.7544   1.7590   1.7610   1.7969   1.8353   2.2152   2.2263   2.9263
     2.9341   2.9798   3.0882   3.9449   4.3988   4.4142   5.0773   5.0784
     5.2110   5.2344   5.4899   5.6079   5.8522   6.0383   6.0578   6.1280
     6.3467   6.3989

          k = 0.2000 0.1155 0.0000 ( 94856 PWs)   bands (ev):

   -13.1496 -10.9498  -7.2943  -6.3384  -5.9859  -5.5339  -5.1361  -5.1342
    -4.9097  -4.8726  -4.8270  -4.7858  -4.7840  -4.5806  -4.5564  -4.5138
    -4.3999  -4.3987  -4.3838  -4.3785  -4.3136  -4.3074  -4.1025  -3.9680
    -3.9669  -3.9366  -3.9298  -3.8705  -3.8684  -3.8002  -3.7994  -3.7987
    -3.7965  -3.7116  -3.6924  -3.6909  -3.5698  -3.5692  -3.5677  -3.5102
    -3.5085  -3.3522  -3.3485  -3.3184  -3.3160  -3.2893  -3.0518  -3.0507
    -3.0078  -2.9629  -2.9618  -2.9193  -2.9179  -2.7436  -2.7404  -2.6741
    -2.6721  -2.6288  -2.5960  -2.5938  -2.3918  -2.2944  -2.2932  -2.2118
    -2.2096  -2.1710  -2.1317  -2.0923  -2.0886  -2.0729  -2.0499  -2.0490
    -2.0043  -1.9316  -1.9181  -1.9009  -1.8981  -1.8301  -1.8043  -1.8026
    -1.7532  -1.7404  -1.7379  -1.6709  -1.6348  -1.6229  -1.6199  -1.6180
    -1.5222  -1.5201  -1.5142  -1.5120  -1.5005  -1.4261  -1.4245  -1.4076
    -1.3939  -1.3355  -1.3334  -1.3285  -1.2789  -1.2774  -1.2392  -1.2353
    -1.2245  -1.1333  -1.0585  -1.0519  -1.0477  -1.0454  -1.0422  -1.0161
    -1.0106  -1.0091  -0.9591  -0.9523  -0.9273  -0.9255  -0.7291  -0.6428
    -0.5827  -0.5365  -0.5347  -0.5262  -0.5220  -0.4979  -0.4964  -0.3362
    -0.3307  -0.3234  -0.2407  -0.1960  -0.1788  -0.1720  -0.1537  -0.0774
    -0.0567  -0.0550  -0.0442   0.0223   0.0401   0.0489   0.0529   0.0707
     0.0787   0.0830   0.2726   0.2926   0.3061   0.3070   0.3099   0.3413
     0.3517   0.4279   0.4516   0.4571   0.4835   0.5111   0.5487   0.5510
     0.5520   0.5559   0.6665   0.6712   0.6951   0.6975   0.7938   0.8440
     0.8456   0.8524   0.8547   0.8756   0.9157   0.9265   0.9820   0.9838
     1.0425   1.0434   1.0502   1.0959   1.0980   1.0995   1.1048   1.1052
     1.1115   1.1793   1.1805   1.3403   1.3413   1.3492   1.3673   1.3760
     1.3775   1.4140   1.4532   1.4550   1.4740   1.5720   1.5734   1.5963
     1.7533   1.7594   1.7607   1.7951   1.8426   2.2129   2.2236   2.9282
     2.9313   2.9773   3.0924   3.9518   4.3977   4.4111   5.0767   5.0786
     5.2041   5.2284   5.4918   5.6262   5.8964   6.0239   6.0575   6.1419
     6.2982   6.3993

          k = 0.2000 0.3464 0.0000 ( 94844 PWs)   bands (ev):

   -13.1495 -10.9502  -7.0086  -6.3345  -5.7827  -5.7816  -5.7096  -4.7068
    -4.7043  -4.6801  -4.6730  -4.6324  -4.6311  -4.6303  -4.6181  -4.5179
    -4.5150  -4.5119  -4.3129  -4.3082  -4.1268  -4.1252  -4.1229  -4.1223
    -4.0579  -4.0361  -3.8939  -3.8674  -3.8645  -3.8386  -3.8380  -3.7727
    -3.7170  -3.7166  -3.6758  -3.6749  -3.6354  -3.5885  -3.5845  -3.5446
    -3.5430  -3.4681  -3.1962  -3.0938  -3.0932  -3.0815  -3.0593  -3.0562
    -3.0410  -3.0401  -2.9866  -2.9676  -2.8083  -2.8066  -2.7975  -2.7207
    -2.6935  -2.6451  -2.6430  -2.6203  -2.5390  -2.5386  -2.3659  -2.3655
    -2.3481  -2.2642  -2.2625  -2.2335  -2.2305  -2.2253  -2.1540  -2.1524
    -2.0006  -1.9821  -1.9745  -1.9703  -1.9090  -1.9072  -1.8428  -1.8405
    -1.8388  -1.8323  -1.7081  -1.6725  -1.6713  -1.6612  -1.6563  -1.6538
    -1.6387  -1.6094  -1.5909  -1.5208  -1.5171  -1.4902  -1.4838  -1.4234
    -1.4200  -1.3586  -1.3388  -1.2971  -1.2954  -1.2900  -1.2445  -1.2415
    -1.2400  -1.2229  -1.2191  -1.1951  -1.1859  -1.1816  -1.1208  -1.1199
    -1.0177  -0.9775  -0.9734  -0.9049  -0.9007  -0.8966  -0.8941  -0.7137
    -0.7120  -0.5698  -0.5521  -0.5214  -0.5124  -0.5105  -0.4837  -0.4813
    -0.4350  -0.4319  -0.4089  -0.4011  -0.3430  -0.3137  -0.1988  -0.1582
    -0.1239  -0.1084  -0.0708  -0.0694  -0.0165  -0.0016   0.0222   0.0612
     0.1300   0.1363   0.1520   0.1869   0.1938   0.2730   0.3246   0.3409
     0.3478   0.3554   0.4227   0.4275   0.4307   0.4438   0.4511   0.4685
     0.4697   0.4813   0.4901   0.6177   0.6832   0.6911   0.8222   0.8263
     0.8446   0.9898   0.9921   0.9940   0.9969   1.0989   1.1294   1.1360
     1.1421   1.1437   1.1817   1.1830   1.2068   1.2116   1.2133   1.2717
     1.2764   1.2934   1.3608   1.3851   1.3910   1.4244   1.4251   1.4681
     1.6028   1.6543   1.6575   1.7396   1.7410   1.7423   1.7582   1.8922
     1.8942   2.3439   2.4203   2.4215   2.9577   2.9600   2.9922   2.9982
     3.6805   3.6998   3.7606   3.8777   3.9330   3.9355   4.5858   5.0665
     5.1153   5.1384   5.3090   5.5917   5.7472   5.8146   5.8629   5.8980
     5.9135   5.9783

          k = 0.2000-0.5774 0.0000 ( 94884 PWs)   bands (ev):

   -13.1495 -10.9503  -6.4743  -6.4725  -6.3331  -5.8648  -5.2163  -5.2136
    -4.7030  -4.7005  -4.5667  -4.5324  -4.5212  -4.4230  -4.4220  -4.3361
    -4.3196  -4.3138  -4.3057  -4.1899  -4.1881  -4.1856  -4.1504  -4.1482
    -4.1172  -4.1074  -3.9935  -3.9819  -3.9810  -3.9386  -3.9373  -3.8378
    -3.7449  -3.7252  -3.6581  -3.5665  -3.5654  -3.5496  -3.5487  -3.5307
    -3.4196  -3.4188  -3.3251  -3.3227  -3.1514  -3.1408  -3.0833  -2.9823
    -2.9812  -2.9311  -2.9305  -2.8237  -2.7724  -2.7241  -2.7232  -2.7015
    -2.6552  -2.6548  -2.6266  -2.5212  -2.5199  -2.4898  -2.4888  -2.4825
    -2.4821  -2.4796  -2.4088  -2.4052  -2.2765  -2.2532  -2.2044  -2.2016
    -2.0868  -2.0485  -2.0463  -2.0450  -1.9983  -1.9601  -1.9595  -1.8697
    -1.8430  -1.8417  -1.8374  -1.8057  -1.7735  -1.7252  -1.7206  -1.6822
    -1.6217  -1.6202  -1.6055  -1.6033  -1.4949  -1.4461  -1.4428  -1.3990
    -1.3977  -1.3581  -1.3571  -1.3418  -1.3394  -1.3120  -1.3089  -1.2614
    -1.2598  -1.2200  -1.2119  -1.2110  -1.2060  -1.2045  -1.1900  -1.1561
    -1.0921  -1.0902  -1.0884  -0.8792  -0.8747  -0.7778  -0.7761  -0.6699
    -0.6584  -0.6573  -0.6279  -0.5784  -0.5681  -0.5668  -0.5469  -0.5396
    -0.4583  -0.4249  -0.4229  -0.3714  -0.3528  -0.3350  -0.2883  -0.2719
    -0.2259  -0.0861  -0.0382  -0.0191  -0.0052   0.0086   0.0174   0.0601
     0.1027   0.1131   0.1168   0.1305   0.1553   0.1840   0.1881   0.2104
     0.3082   0.3124   0.3265   0.3748   0.3773   0.3983   0.4049   0.4199
     0.4427   0.5838   0.6325   0.6601   0.7416   0.7496   0.8233   0.8251
     0.9104   0.9506   0.9585   0.9602   1.0628   1.0706   1.1368   1.1661
     1.1776   1.1861   1.1890   1.2337   1.2394   1.2685   1.3452   1.3463
     1.3674   1.3975   1.3982   1.4055   1.4178   1.4624   1.6035   1.6109
     1.6117   1.6130   1.6146   1.6870   1.7559   1.8016   1.9413   2.7612
     2.7614   3.0011   3.0148   3.0397   3.1643   3.1660   3.1725   3.6130
     3.7731   3.7739   4.2322   4.2546   4.2624   4.3766   4.3790   4.5960
     4.6745   4.7678   4.8059   5.0968   5.2066   5.2121   5.5578   5.7600
     5.8528   5.8710

          k = 0.2000-0.3464 0.0000 ( 94844 PWs)   bands (ev):

   -13.1495 -10.9500  -7.0086  -6.3364  -5.7828  -5.7817  -5.7095  -4.7068
    -4.7051  -4.6786  -4.6741  -4.6319  -4.6309  -4.6292  -4.6176  -4.5168
    -4.5150  -4.5123  -4.3128  -4.3083  -4.1274  -4.1263  -4.1228  -4.1220
    -4.0588  -4.0358  -3.8931  -3.8673  -3.8653  -3.8385  -3.8381  -3.7714
    -3.7169  -3.7159  -3.6759  -3.6749  -3.6351  -3.5884  -3.5853  -3.5443
    -3.5427  -3.4694  -3.1960  -3.0939  -3.0925  -3.0813  -3.0582  -3.0563
    -3.0410  -3.0402  -2.9867  -2.9677  -2.8078  -2.8068  -2.7973  -2.7206
    -2.6937  -2.6444  -2.6430  -2.6208  -2.5392  -2.5386  -2.3658  -2.3647
    -2.3476  -2.2625  -2.2615  -2.2333  -2.2307  -2.2245  -2.1540  -2.1522
    -2.0007  -1.9817  -1.9768  -1.9712  -1.9092  -1.9081  -1.8421  -1.8405
    -1.8383  -1.8343  -1.7065  -1.6720  -1.6712  -1.6606  -1.6573  -1.6531
    -1.6387  -1.6102  -1.5910  -1.5209  -1.5185  -1.4907  -1.4845  -1.4228
    -1.4201  -1.3583  -1.3396  -1.2981  -1.2966  -1.2898  -1.2444  -1.2419
    -1.2398  -1.2214  -1.2185  -1.1948  -1.1865  -1.1821  -1.1212  -1.1201
    -1.0177  -0.9774  -0.9736  -0.9050  -0.9016  -0.8961  -0.8947  -0.7135
    -0.7115  -0.5716  -0.5519  -0.5210  -0.5126  -0.5111  -0.4835  -0.4812
    -0.4333  -0.4316  -0.4085  -0.4011  -0.3429  -0.3118  -0.2003  -0.1638
    -0.1226  -0.1035  -0.0714  -0.0687  -0.0156  -0.0019   0.0191   0.0672
     0.1265   0.1323   0.1542   0.1867   0.1957   0.2729   0.3201   0.3428
     0.3476   0.3556   0.4224   0.4276   0.4332   0.4433   0.4512   0.4684
     0.4697   0.4822   0.4904   0.6169   0.6823   0.6908   0.8211   0.8262
     0.8452   0.9900   0.9924   0.9942   0.9985   1.0985   1.1297   1.1360
     1.1420   1.1445   1.1815   1.1829   1.2065   1.2104   1.2122   1.2714
     1.2751   1.2953   1.3600   1.3858   1.3900   1.4245   1.4251   1.4678
     1.6044   1.6559   1.6582   1.7392   1.7408   1.7413   1.7596   1.8922
     1.8941   2.3420   2.4200   2.4209   2.9588   2.9605   2.9927   3.0012
     3.6756   3.7024   3.7577   3.8779   3.9293   3.9388   4.5876   5.0665
     5.1270   5.1329   5.3074   5.5824   5.7068   5.8121   5.8440   5.9001
     5.9107   5.9769

          k = 0.4000-0.2309 0.0000 ( 94878 PWs)   bands (ev):

   -13.1496 -10.9498  -6.8712  -6.3384  -6.2351  -5.5802  -5.1694  -5.1679
    -5.0253  -4.8018  -4.6476  -4.5241  -4.5148  -4.4875  -4.4437  -4.4421
    -4.3208  -4.3089  -4.2574  -4.2502  -4.2276  -4.2200  -4.2176  -4.0932
    -4.0611  -4.0599  -4.0092  -4.0072  -3.9461  -3.9159  -3.8714  -3.8708
    -3.8356  -3.5981  -3.5972  -3.5811  -3.5799  -3.5794  -3.5781  -3.3542
    -3.3522  -3.2941  -3.2929  -3.2825  -3.2810  -3.1004  -2.9974  -2.9967
    -2.9883  -2.9861  -2.9213  -2.9200  -2.8721  -2.8575  -2.8552  -2.7770
    -2.7755  -2.6478  -2.6465  -2.5966  -2.5932  -2.5002  -2.4630  -2.4183
    -2.4176  -2.4150  -2.2762  -2.1988  -2.1886  -2.1768  -2.1725  -2.0871
    -2.0830  -2.0647  -1.9522  -1.9464  -1.9309  -1.9268  -1.8089  -1.8061
    -1.8040  -1.8035  -1.8014  -1.7269  -1.7106  -1.7094  -1.7028  -1.6778
    -1.6766  -1.6740  -1.6606  -1.6190  -1.5521  -1.5364  -1.5311  -1.5248
    -1.4854  -1.4822  -1.4539  -1.3776  -1.3138  -1.2783  -1.2773  -1.2398
    -1.2367  -1.2047  -1.1963  -1.1945  -1.0656  -1.0639  -1.0472  -0.9862
    -0.9846  -0.9357  -0.8002  -0.7993  -0.7703  -0.7153  -0.6327  -0.6282
    -0.6136  -0.6047  -0.5971  -0.5915  -0.5896  -0.4998  -0.4991  -0.4668
    -0.4624  -0.4479  -0.4388  -0.4318  -0.4206  -0.3738  -0.3719  -0.2563
    -0.2273  -0.2212  -0.1515  -0.1356  -0.0614  -0.0598   0.0126   0.0554
     0.0811   0.0858   0.1628   0.2142   0.2479   0.2569   0.2758   0.2961
     0.3322   0.3353   0.3936   0.4109   0.4416   0.4434   0.5059   0.5499
     0.5513   0.6042   0.6057   0.6184   0.6191   0.6994   0.8018   0.8172
     0.8859   0.8981   0.9003   0.9052   0.9913   1.0064   1.0081   1.1021
     1.1041   1.1109   1.1142   1.1819   1.2043   1.2050   1.2156   1.3361
     1.3382   1.3612   1.3631   1.3692   1.3731   1.3888   1.3930   1.5639
     1.6039   1.6073   1.6119   1.6150   1.8042   1.8398   2.2232   2.2337
     2.2849   2.5307   2.6537   2.6547   3.0553   3.0568   3.2498   3.3904
     3.8662   3.8670   3.8896   4.0355   4.1390   4.1459   4.2968   4.3145
     4.5366   4.5385   5.1485   5.1677   5.6125   5.6960   5.7497   5.8258
     6.1823   6.2265

          k = 0.4000-0.0000 0.0000 ( 94844 PWs)   bands (ev):

   -13.1496 -10.9499  -7.0085  -6.3372  -5.7828  -5.7812  -5.7092  -4.7054
    -4.7044  -4.6786  -4.6747  -4.6335  -4.6312  -4.6305  -4.6163  -4.5175
    -4.5154  -4.5114  -4.3126  -4.3073  -4.1249  -4.1242  -4.1234  -4.1226
    -4.0567  -4.0366  -3.8950  -3.8662  -3.8647  -3.8385  -3.8379  -3.7747
    -3.7185  -3.7165  -3.6755  -3.6746  -3.6359  -3.5868  -3.5850  -3.5450
    -3.5434  -3.4662  -3.1965  -3.0951  -3.0937  -3.0821  -3.0591  -3.0578
    -3.0404  -3.0398  -2.9862  -2.9675  -2.8085  -2.8073  -2.7981  -2.7209
    -2.6933  -2.6455  -2.6435  -2.6193  -2.5391  -2.5384  -2.3678  -2.3658
    -2.3489  -2.2666  -2.2644  -2.2334  -2.2307  -2.2263  -2.1537  -2.1526
    -2.0008  -1.9784  -1.9755  -1.9691  -1.9078  -1.9061  -1.8432  -1.8422
    -1.8366  -1.8339  -1.7112  -1.6733  -1.6719  -1.6592  -1.6574  -1.6550
    -1.6387  -1.6081  -1.5915  -1.5183  -1.5158  -1.4894  -1.4822  -1.4233
    -1.4202  -1.3589  -1.3368  -1.2961  -1.2932  -1.2903  -1.2424  -1.2410
    -1.2395  -1.2226  -1.2216  -1.1954  -1.1876  -1.1818  -1.1197  -1.1191
    -1.0177  -0.9799  -0.9749  -0.9029  -0.9008  -0.8958  -0.8945  -0.7144
    -0.7127  -0.5680  -0.5523  -0.5215  -0.5122  -0.5088  -0.4838  -0.4835
    -0.4349  -0.4331  -0.4079  -0.4025  -0.3456  -0.3159  -0.1969  -0.1599
    -0.1237  -0.0967  -0.0704  -0.0695  -0.0161  -0.0007   0.0288   0.0544
     0.1310   0.1387   0.1537   0.1872   0.1931   0.2701   0.3267   0.3407
     0.3486   0.3550   0.4201   0.4279   0.4300   0.4423   0.4531   0.4681
     0.4711   0.4795   0.4886   0.6179   0.6826   0.6852   0.8233   0.8260
     0.8438   0.9891   0.9922   0.9934   1.0014   1.0984   1.1282   1.1336
     1.1423   1.1434   1.1817   1.1830   1.2072   1.2134   1.2146   1.2731
     1.2769   1.2897   1.3617   1.3876   1.3900   1.4242   1.4250   1.4684
     1.6003   1.6530   1.6549   1.7395   1.7412   1.7438   1.7563   1.8931
     1.8947   2.3414   2.4205   2.4216   2.9574   2.9583   2.9902   3.0014
     3.6883   3.6932   3.7609   3.8774   3.9306   3.9381   4.5869   5.0660
     5.1093   5.1394   5.3069   5.5970   5.7768   5.8305   5.8603   5.9039
     5.9091   5.9488

          k = 0.4000 0.2309 0.0000 ( 94878 PWs)   bands (ev):

   -13.1495 -10.9501  -6.8711  -6.3352  -6.2351  -5.5804  -5.1698  -5.1680
    -5.0256  -4.8009  -4.6477  -4.5316  -4.5134  -4.4838  -4.4440  -4.4430
    -4.3233  -4.3070  -4.2568  -4.2497  -4.2279  -4.2195  -4.2173  -4.0927
    -4.0616  -4.0603  -4.0086  -4.0072  -3.9460  -3.9153  -3.8717  -3.8711
    -3.8355  -3.5983  -3.5974  -3.5814  -3.5805  -3.5796  -3.5788  -3.3542
    -3.3526  -3.2942  -3.2931  -3.2830  -3.2815  -3.1004  -2.9971  -2.9967
    -2.9880  -2.9863  -2.9211  -2.9201  -2.8737  -2.8571  -2.8549  -2.7766
    -2.7754  -2.6483  -2.6470  -2.5967  -2.5934  -2.5010  -2.4649  -2.4194
    -2.4185  -2.4152  -2.2764  -2.1982  -2.1892  -2.1760  -2.1720  -2.0860
    -2.0825  -2.0666  -1.9487  -1.9447  -1.9304  -1.9262  -1.8086  -1.8060
    -1.8046  -1.8037  -1.8022  -1.7273  -1.7112  -1.7101  -1.7014  -1.6780
    -1.6769  -1.6744  -1.6610  -1.6188  -1.5517  -1.5362  -1.5324  -1.5249
    -1.4863  -1.4838  -1.4528  -1.3760  -1.3136  -1.2765  -1.2758  -1.2404
    -1.2376  -1.2041  -1.1943  -1.1928  -1.0661  -1.0637  -1.0476  -0.9857
    -0.9836  -0.9358  -0.8004  -0.7983  -0.7723  -0.7152  -0.6322  -0.6288
    -0.6131  -0.6056  -0.5978  -0.5913  -0.5892  -0.5031  -0.4991  -0.4651
    -0.4636  -0.4464  -0.4402  -0.4300  -0.4173  -0.3773  -0.3737  -0.2552
    -0.2270  -0.2214  -0.1514  -0.1396  -0.0611  -0.0582   0.0143   0.0539
     0.0793   0.0867   0.1573   0.2303   0.2466   0.2572   0.2770   0.2971
     0.3320   0.3344   0.3912   0.4110   0.4411   0.4425   0.5060   0.5479
     0.5509   0.6027   0.6058   0.6179   0.6186   0.7018   0.8007   0.8171
     0.8864   0.8983   0.9006   0.9054   0.9935   1.0059   1.0080   1.1026
     1.1038   1.1111   1.1123   1.1829   1.2052   1.2065   1.2154   1.3366
     1.3382   1.3612   1.3629   1.3674   1.3722   1.3898   1.3943   1.5640
     1.6036   1.6057   1.6110   1.6130   1.8043   1.8400   2.2210   2.2321
     2.2868   2.5327   2.6536   2.6549   3.0550   3.0567   3.2542   3.3890
     3.8661   3.8671   3.8880   4.0412   4.1349   4.1460   4.2957   4.3136
     4.5346   4.5387   5.1644   5.1677   5.5952   5.7006   5.7827   5.8540
     6.1679   6.2521

          k = 0.4000-0.6928 0.0000 ( 94884 PWs)   bands (ev):

   -13.1495 -10.9502  -6.4740  -6.4726  -6.3336  -5.8653  -5.2163  -5.2132
    -4.7015  -4.7003  -4.5671  -4.5330  -4.5185  -4.4241  -4.4228  -4.3365
    -4.3182  -4.3130  -4.3082  -4.1895  -4.1873  -4.1852  -4.1514  -4.1496
    -4.1145  -4.1060  -3.9911  -3.9823  -3.9812  -3.9387  -3.9366  -3.8376
    -3.7443  -3.7263  -3.6607  -3.5665  -3.5649  -3.5499  -3.5490  -3.5332
    -3.4198  -3.4193  -3.3260  -3.3243  -3.1494  -3.1423  -3.0825  -2.9825
    -2.9816  -2.9307  -2.9302  -2.8210  -2.7714  -2.7237  -2.7225  -2.7028
    -2.6600  -2.6580  -2.6271  -2.5214  -2.5206  -2.4910  -2.4903  -2.4829
    -2.4819  -2.4801  -2.4077  -2.4057  -2.2770  -2.2530  -2.2053  -2.2019
    -2.0859  -2.0505  -2.0455  -2.0440  -1.9990  -1.9556  -1.9553  -1.8688
    -1.8440  -1.8425  -1.8378  -1.8058  -1.7752  -1.7255  -1.7234  -1.6787
    -1.6265  -1.6249  -1.6035  -1.6026  -1.4906  -1.4469  -1.4432  -1.4010
    -1.3995  -1.3567  -1.3555  -1.3405  -1.3390  -1.3092  -1.3046  -1.2581
    -1.2569  -1.2299  -1.2092  -1.2090  -1.2062  -1.2050  -1.1855  -1.1596
    -1.0916  -1.0884  -1.0874  -0.8803  -0.8717  -0.7775  -0.7767  -0.6695
    -0.6589  -0.6551  -0.6337  -0.5794  -0.5669  -0.5656  -0.5473  -0.5436
    -0.4631  -0.4234  -0.4212  -0.3660  -0.3513  -0.3357  -0.2856  -0.2712
    -0.2279  -0.0919  -0.0343  -0.0145  -0.0050   0.0071   0.0261   0.0561
     0.1057   0.1079   0.1245   0.1324   0.1436   0.1765   0.1867   0.2133
     0.3044   0.3124   0.3271   0.3746   0.3769   0.4003   0.4077   0.4201
     0.4437   0.5834   0.6336   0.6666   0.7392   0.7499   0.8224   0.8238
     0.9094   0.9531   0.9570   0.9608   1.0626   1.0678   1.1370   1.1701
     1.1776   1.1863   1.1895   1.2305   1.2382   1.2695   1.3446   1.3459
     1.3721   1.3976   1.3988   1.4013   1.4166   1.4634   1.6045   1.6077
     1.6093   1.6107   1.6116   1.6875   1.7571   1.8016   1.9426   2.7613
     2.7615   2.9923   3.0183   3.0449   3.1641   3.1658   3.1743   3.6184
     3.7731   3.7736   4.2308   4.2538   4.2586   4.3772   4.3785   4.5873
     4.6734   4.7491   4.8142   5.1152   5.2029   5.2107   5.6777   5.7628
     5.8337   5.8640

          k = 0.4000-0.4619 0.0000 ( 94884 PWs)   bands (ev):

   -13.1495 -10.9500  -6.4742  -6.4729  -6.3351  -5.8652  -5.2163  -5.2129
    -4.7021  -4.7009  -4.5670  -4.5329  -4.5153  -4.4239  -4.4222  -4.3390
    -4.3176  -4.3144  -4.3062  -4.1902  -4.1878  -4.1848  -4.1506  -4.1494
    -4.1177  -4.1033  -3.9921  -3.9821  -3.9812  -3.9395  -3.9360  -3.8377
    -3.7443  -3.7260  -3.6601  -3.5670  -3.5646  -3.5497  -3.5489  -3.5322
    -3.4199  -3.4191  -3.3253  -3.3239  -3.1504  -3.1416  -3.0824  -2.9826
    -2.9815  -2.9309  -2.9303  -2.8222  -2.7717  -2.7243  -2.7225  -2.7023
    -2.6582  -2.6567  -2.6270  -2.5212  -2.5204  -2.4904  -2.4897  -2.4827
    -2.4820  -2.4796  -2.4076  -2.4062  -2.2769  -2.2531  -2.2055  -2.2010
    -2.0863  -2.0488  -2.0464  -2.0450  -1.9989  -1.9575  -1.9568  -1.8696
    -1.8440  -1.8417  -1.8375  -1.8061  -1.7751  -1.7250  -1.7229  -1.6799
    -1.6252  -1.6228  -1.6045  -1.6028  -1.4921  -1.4476  -1.4420  -1.4004
    -1.3987  -1.3576  -1.3559  -1.3412  -1.3388  -1.3118  -1.3044  -1.2591
    -1.2578  -1.2263  -1.2102  -1.2095  -1.2062  -1.2047  -1.1873  -1.1584
    -1.0914  -1.0888  -1.0876  -0.8800  -0.8735  -0.7774  -0.7766  -0.6699
    -0.6589  -0.6554  -0.6322  -0.5818  -0.5675  -0.5658  -0.5458  -0.5419
    -0.4629  -0.4248  -0.4212  -0.3610  -0.3496  -0.3365  -0.2841  -0.2725
    -0.2298  -0.0935  -0.0324  -0.0155  -0.0043   0.0067   0.0222   0.0580
     0.1058   0.1114   0.1191   0.1314   0.1534   0.1717   0.1877   0.2100
     0.3070   0.3105   0.3287   0.3751   0.3772   0.3999   0.4076   0.4212
     0.4404   0.5838   0.6318   0.6670   0.7402   0.7477   0.8226   0.8246
     0.9093   0.9540   0.9575   0.9610   1.0630   1.0680   1.1368   1.1686
     1.1780   1.1856   1.1900   1.2307   1.2384   1.2693   1.3444   1.3464
     1.3703   1.3971   1.3988   1.4027   1.4141   1.4629   1.6041   1.6078
     1.6102   1.6120   1.6133   1.6874   1.7595   1.8016   1.9424   2.7612
     2.7615   2.9943   3.0113   3.0455   3.1645   3.1662   3.1729   3.6206
     3.7730   3.7740   4.2322   4.2543   4.2609   4.3765   4.3792   4.5916
     4.6748   4.7455   4.8036   5.1130   5.2047   5.2122   5.6872   5.7343
     5.8246   5.8652

     the Fermi energy is     1.3770 ev

!    total energy              =  -27816.03788586 Ry

     total all-electron energy =  -1326876.095581 Ry
     estimated scf accuracy    <       0.00000033 Ry
     smearing contrib. (-TS)   =       0.00263122 Ry
     internal energy E=F+TS    =  -27816.04051707 Ry

     The total energy is F=E-TS. E is the sum of the following terms:
     one-electron contribution =  -30196.14720049 Ry
     hartree contribution      =   15395.85856559 Ry
     xc contribution           =    -907.25394690 Ry
     ewald contribution        =   13385.10180983 Ry
     one-center paw contrib.   =  -25493.59974510 Ry

     convergence has been achieved in  23 iterations

     negative rho (up, down):  1.212E-02 0.000E+00

     Forces acting on atoms (cartesian axes, Ry/au):

     atom    1 type  1   force =     0.00008216    0.00012082   -0.00321704
     atom    2 type  1   force =    -0.00002981    0.00009844   -0.00327285
     atom    3 type  1   force =    -0.00000153    0.00007558   -0.00330898
     atom    4 type  1   force =     0.00007090    0.00004653   -0.00370796
     atom    5 type  1   force =    -0.00003777    0.00006255   -0.00323291
     atom    6 type  1   force =     0.00004670    0.00009890   -0.00327446
     atom    7 type  1   force =    -0.00002986   -0.00004542   -0.00330760
     atom    8 type  1   force =     0.00007501    0.00007761   -0.00343179
     atom    9 type  1   force =     0.00000788   -0.00000869   -0.00321682
     atom   10 type  1   force =    -0.00006461   -0.00017752    0.00395983
     atom   11 type  1   force =    -0.00001547   -0.00016505    0.00321516
     atom   12 type  1   force =    -0.00020359   -0.00011233    0.00317717
     atom   13 type  1   force =    -0.00021164   -0.00011176    0.00331440
     atom   14 type  1   force =     0.00001768   -0.00007644    0.00304926
     atom   15 type  1   force =     0.00005907    0.00000811    0.00338937
     atom   16 type  1   force =     0.00005859   -0.00014675    0.00325786
     atom   17 type  1   force =    -0.00009054   -0.00022933    0.00350430
     atom   18 type  1   force =    -0.00012161   -0.00017495    0.00339411
     atom   19 type  1   force =    -0.00000297   -0.00004496    0.00014102
     atom   20 type  1   force =     0.00015028   -0.00001745   -0.00007297
     atom   21 type  1   force =    -0.00004194    0.00021685    0.00003593
     atom   22 type  1   force =    -0.00003999   -0.00009723   -0.00017442
     atom   23 type  1   force =     0.00018027   -0.00013462    0.00030396
     atom   24 type  1   force =    -0.00005495   -0.00002196    0.00015254
     atom   25 type  1   force =     0.00010489   -0.00005398    0.00003802
     atom   26 type  1   force =     0.00002706   -0.00001616    0.00015293
     atom   27 type  1   force =    -0.00015364   -0.00001034   -0.00006753
     atom   28 type  1   force =     0.00001964    0.00001851    0.00075793
     atom   29 type  1   force =    -0.00006451    0.00001647    0.00033295
     atom   30 type  1   force =    -0.00002001    0.00012770   -0.00002080
     atom   31 type  1   force =     0.00009742   -0.00002645   -0.00010709
     atom   32 type  1   force =    -0.00003421   -0.00004822    0.00018781
     atom   33 type  1   force =    -0.00004466    0.00002397    0.00001850
     atom   34 type  1   force =    -0.00001785   -0.00008283    0.00032194
     atom   35 type  1   force =     0.00008936    0.00008164    0.00031865
     atom   36 type  1   force =    -0.00001683   -0.00006758    0.00043205
     atom   37 type  2   force =    -0.00021691   -0.00032451   -0.00068229
     atom   38 type  2   force =    -0.00041795    0.00168400   -0.00080463
     atom   39 type  2   force =    -0.00140179    0.00099514   -0.00073671
     atom   40 type  3   force =     0.00013668   -0.00019466   -0.00016387
     atom   41 type  3   force =     0.00028423   -0.00003984    0.00037556
     atom   42 type  3   force =    -0.00010983    0.00006102    0.00006154
     atom   43 type  3   force =     0.00193663   -0.00138483   -0.00109206

     Total force =     0.004066     Total SCF correction =     0.000877
     SCF correction compared to forces is large: reduce conv_thr to get better values

     negative rho (up, down):  1.212E-02 0.000E+00

     negative rho (up, down):  1.212E-02 0.000E+00

     negative rho (up, down):  1.212E-02 0.000E+00

     negative rho (up, down):  1.212E-02 0.000E+00

     negative rho (up, down):  1.212E-02 0.000E+00

     negative rho (up, down):  1.212E-02 0.000E+00

     negative rho (up, down):  1.212E-02 0.000E+00

     negative rho (up, down):  1.212E-02 0.000E+00

     negative rho (up, down):  1.212E-02 0.000E+00

     negative rho (up, down):  1.212E-02 0.000E+00

     negative rho (up, down):  1.212E-02 0.000E+00

     negative rho (up, down):  1.212E-02 0.000E+00

     negative rho (up, down):  1.212E-02 0.000E+00

     negative rho (up, down):  1.212E-02 0.000E+00

     negative rho (up, down):  1.212E-02 0.000E+00

     negative rho (up, down):  1.212E-02 0.000E+00

     negative rho (up, down):  1.212E-02 0.000E+00

     negative rho (up, down):  1.212E-02 0.000E+00

     negative rho (up, down):  1.212E-02 0.000E+00

     negative rho (up, down):  1.212E-02 0.000E+00

     negative rho (up, down):  1.212E-02 0.000E+00

     negative rho (up, down):  1.212E-02 0.000E+00

     negative rho (up, down):  1.212E-02 0.000E+00

     negative rho (up, down):  1.212E-02 0.000E+00

     negative rho (up, down):  1.212E-02 0.000E+00

     negative rho (up, down):  1.212E-02 0.000E+00

     negative rho (up, down):  1.212E-02 0.000E+00

     negative rho (up, down):  1.212E-02 0.000E+00

     negative rho (up, down):  1.212E-02 0.000E+00

     negative rho (up, down):  1.212E-02 0.000E+00

     negative rho (up, down):  1.212E-02 0.000E+00

     negative rho (up, down):  1.212E-02 0.000E+00

     negative rho (up, down):  1.212E-02 0.000E+00

     negative rho (up, down):  1.212E-02 0.000E+00
 BEEFens 2000 ensemble energies
             -0.607505889486769E+02
             -0.360432790164251E+01
             -0.158299105456008E+02
              0.429932148184052E+02
             -0.221534665119245E+02
             -0.205359819966858E+02
             -0.353134975096438E+02
             -0.866048882951819E+02
             -0.465177573236379E+02
             -0.472872853088961E+02
             -0.369632566394023E+02
              0.231598691100129E+01
              0.405962251096201E+01
              0.759583606857055E+01
              0.265520219732642E+01
              0.475451026721132E+02
             -0.208913216069874E+02
             -0.229831503277487E+02
              0.193122541085286E+02
             -0.112513703745660E+03
              0.536948731590138E+02
             -0.289868508215690E+02
             -0.334858346111467E+01
             -0.114274109030456E+02
             -0.879496460925338E+01
             -0.460974330358457E+01
              0.883711968394014E+02
             -0.187796402826909E+02
             -0.899222759165514E+01
             -0.518940331703554E+02
              0.815726229526497E+02
             -0.186850605633196E+02
             -0.375248741826690E+02
              0.249161469216662E+02
             -0.285316107558799E+01
              0.164552625316974E+02
             -0.484897585422061E+01
              0.107995299373626E+02
              0.289069599229685E+02
             -0.103346837882578E+03
              0.559171698304285E+02
              0.142579163006907E+02
             -0.177320813415781E+01
             -0.361525644751737E+02
              0.123355357077090E+02
             -0.147399348798709E+02
              0.398954235911705E+02
              0.365163688110312E+02
             -0.308060027975557E+02
             -0.275225838375737E+02
             -0.328646078040838E+02
             -0.352723060076476E+02
              0.137014164827510E+02
             -0.491269253133593E+02
              0.115928584274831E+02
              0.623846896959965E+02
              0.636415128625472E+02
              0.356364930109332E+02
              0.154164774458006E+02
              0.271169242894564E+02
              0.892751811973966E+02
              0.212377894175315E+02
             -0.549148733621780E+02
             -0.157118155357208E+02
             -0.236356949929407E+02
              0.630197960221310E+02
             -0.773973245452002E+02
             -0.672432052292235E+02
             -0.260287089977235E+02
             -0.656679500266125E+01
             -0.470680524584274E+02
              0.271077841070251E+02
              0.802777434685538E+01
              0.869504007121776E+01
             -0.397919962710179E+02
             -0.347153635966930E+02
             -0.542668300515579E+02
              0.390329162945341E+02
             -0.296544080644636E+02
              0.266043911502229E+02
             -0.719527588042283E+01
             -0.318127335123638E+02
             -0.576339770610039E+02
             -0.176536618196274E+02
             -0.905174364484242E+01
             -0.124602780413581E+02
              0.412871433145638E+02
              0.684118969315353E+02
             -0.386180000081126E+02
             -0.795299815181827E+02
             -0.219792014371234E+02
              0.111604804998899E+03
             -0.593377033160342E+02
              0.356339354793730E+02
             -0.958035585829793E+01
             -0.663567917918801E+02
              0.254636627870008E+02
              0.398145965594797E+02
             -0.198971582548481E+02
              0.400439058271646E+02
             -0.296009884041011E+02
             -0.479117358559296E+02
              0.867118330730516E+02
              0.454145546213545E+02
              0.336586343044415E+02
              0.146358127673087E+02
              0.206110990913582E+02
              0.857207761767074E+02
             -0.257192931942819E+02
              0.789201351752671E+01
             -0.142517069202416E+03
              0.181156653019203E+02
             -0.716717977716767E+02
              0.151230502430219E+02
              0.204906546908715E+02
             -0.333394230262141E+02
             -0.557614472034484E+02
              0.650737840386512E+01
             -0.304599990329873E+02
              0.308424695082716E+02
             -0.530359602630235E+02
              0.169074458020100E+01
             -0.357278377093549E+02
             -0.422371725429502E+01
             -0.102213847144958E+01
              0.181777469085491E+02
              0.142066555319991E+01
             -0.651556525517185E+01
              0.591437321565818E+02
              0.909320444550239E+02
              0.484708934928684E+02
              0.830629178009424E+02
             -0.115324224647293E+02
              0.142768380504547E+02
              0.541694233044370E+02
             -0.110483022523265E+02
             -0.736939498263886E+02
             -0.384951299312204E+02
             -0.522433859042937E+02
             -0.277098246264976E+02
              0.327544262589971E+02
             -0.116897566731209E+03
             -0.187400151854202E+02
              0.414463432657122E+02
             -0.386579396839926E+02
             -0.365545946656405E+02
              0.545073575323703E+02
              0.401183208377018E+02
             -0.354476914870661E+02
              0.138570307168290E+02
             -0.273736625939341E+02
              0.343543473311675E+02
              0.443300532476638E+01
              0.210926698630050E+02
             -0.885703228173394E+02
             -0.480623754057595E+02
             -0.999109910791708E+01
              0.316798871585081E+01
             -0.367342545560728E+02
              0.106147353317379E+03
             -0.230979706333524E+02
             -0.399076579898679E+02
              0.388950701947392E+02
             -0.494446244428831E+02
             -0.363759062786352E+02
              0.325155813747444E+02
              0.124653863601011E+02
              0.164942457671382E+02
              0.116907830316411E+02
             -0.132895308115228E+02
              0.225194662758543E+02
              0.590626662236325E+02
             -0.311732765986089E+02
              0.162575395615698E+02
              0.935549249359079E+02
              0.341145035212596E+02
             -0.729349900981447E+01
             -0.188868070678385E+02
              0.153513021364217E+03
             -0.164464011235025E+02
              0.363820089935859E+02
              0.194953948765805E+02
              0.361543578484940E+02
              0.892749176164962E+02
              0.543150139891598E+02
             -0.238084891548338E+01
              0.228071064985816E+02
              0.485382338085649E+02
              0.363759136399048E+02
             -0.526420769915462E+02
              0.937057410918037E+02
             -0.826874287168874E+02
             -0.197893041543909E+02
              0.583187133574212E+02
              0.681603394964952E+01
              0.787412417815904E+01
              0.340893323905950E+02
              0.299275799312381E+02
              0.353985421316721E+02
             -0.638041055331014E+02
              0.286149562307287E+01
             -0.297844319262703E+02
             -0.867535703666800E+01
             -0.146081309636361E+01
             -0.726066539130111E+01
             -0.416336666578593E+01
              0.860348384929700E+02
             -0.101070549063362E+02
             -0.276565276382794E+02
             -0.496323377833263E+01
              0.140020016037222E+02
             -0.564535973560663E+02
             -0.408312266956300E+02
             -0.382262184512160E+02
             -0.630844475949212E+02
             -0.169671781249124E+02
             -0.447789340807145E+02
              0.163470304210958E+02
             -0.237776966971262E+01
             -0.104681740676771E+02
             -0.934506826865473E+01
              0.807905974701765E+01
             -0.242486107375564E+02
              0.690204112300526E+02
             -0.808433651591475E+02
             -0.141247998816737E+02
             -0.174015067250882E+02
              0.182130012273668E+02
              0.214905112744946E+02
             -0.464105569562539E+02
             -0.201670614935202E+02
              0.441466202756667E+02
             -0.276302565189654E+02
              0.187235068671173E+02
              0.383137315673181E+02
             -0.321964128470336E+01
              0.114222595523038E+03
             -0.229600308737270E+02
             -0.341168274791154E+02
              0.577145490724433E+01
             -0.228673887254584E+02
              0.527976707684657E+02
             -0.338096938550595E+02
              0.106692640045466E+02
              0.640632892280532E+02
             -0.126528330406911E+02
              0.120361752995153E+03
              0.126010585985437E+03
             -0.650667823133797E+02
              0.591235874352948E+02
              0.166908316830738E+02
             -0.518502782446112E+02
              0.216038895525319E+02
              0.354802540788872E+02
              0.363410991460771E+02
              0.133715410641176E+01
              0.160163180874156E+02
              0.697027938048070E+02
             -0.247168291662611E+02
              0.181562433331169E+02
              0.739549794807805E+02
             -0.372821463697025E+02
             -0.130308548220853E+02
              0.509478593256917E+02
              0.297724751502413E+02
              0.780622582130529E+02
              0.223446799746243E+02
              0.629522786787732E+01
              0.280542764587743E+02
              0.383901733755654E+02
             -0.472949373116182E+02
              0.334698750275425E+01
              0.130707194614817E+02
              0.113826508453463E+02
              0.220951460924578E+02
             -0.575847760155988E+02
              0.366078988497036E+02
             -0.444160377460668E+02
             -0.347898282519146E+02
              0.178612546459913E+02
             -0.181375324423769E+02
              0.555746741414572E+02
             -0.255727636274020E+02
              0.267164119614721E+02
              0.368228798541085E+02
              0.829843991454687E+02
              0.575268651340624E+02
              0.462590823045444E+02
             -0.105099092852170E+02
             -0.393176901009923E+01
             -0.332663682151885E+02
              0.751739203539674E+02
              0.797877897955009E+02
              0.362373042938142E+02
             -0.192474485149313E+02
              0.512178284901698E+02
             -0.162488918216345E+02
              0.214777316288395E+02
              0.615376269541999E+02
              0.211641016750147E+01
             -0.104521477442111E+02
             -0.282811476535736E+02
             -0.512858739713043E+02
              0.946467476581402E+02
              0.440798567177372E+02
             -0.559904659499598E+02
             -0.966318829068615E+01
              0.250031242193599E+02
             -0.997993483745651E+01
              0.592827620034317E+02
              0.152055112433856E+02
              0.799816790639780E+02
              0.280289633827790E+02
             -0.263666570870898E+02
              0.248681045799316E+02
             -0.501853046172494E+01
             -0.323455891204548E+02
              0.133245848999435E+02
              0.205453687888828E+02
              0.934173242658729E+02
              0.798159491985905E+02
              0.551784675128904E+02
              0.731028481866447E+02
              0.804270051643880E+01
             -0.274020182053217E+02
              0.163195950468112E+02
             -0.368163808014721E+02
             -0.477260038173977E+02
             -0.564045354440957E+02
             -0.266985202007982E+02
             -0.109816944218401E+03
             -0.292041504478970E+02
             -0.838446337927098E+02
              0.210484262406149E+02
             -0.477575933071252E+02
              0.397587873392523E+02
             -0.942813574502711E+02
             -0.330378222104671E+02
              0.548366743891107E+02
              0.207734717600497E+02
             -0.831808548520867E+02
              0.631124714941257E+02
             -0.257238631983599E+02
              0.513053690257964E+02
             -0.242476794844079E+02
             -0.752252573373900E+02
              0.111994986522898E+02
             -0.612036994146029E+02
             -0.167898543286238E+02
             -0.151290483368642E+01
              0.418483024518295E+02
              0.127144341881051E+03
             -0.462015397825759E+02
             -0.362700706301049E+02
             -0.999502099729284E+00
             -0.130489333338499E+02
             -0.823287261345980E+02
             -0.597322566503230E+02
              0.517518051740148E+02
             -0.288970290607101E+02
              0.169613853668555E+02
             -0.489779412161217E+02
             -0.132190383957807E+02
             -0.437521279206582E+02
              0.565954834662502E+02
              0.150611212488204E+02
             -0.231930599577724E+02
             -0.127371699509795E+02
              0.670650894116764E+01
             -0.620413925351420E+01
              0.441851340840834E+02
             -0.252243698163883E+02
              0.284598485240099E+01
              0.340034634400117E+02
              0.171092167472074E+02
             -0.160470550199693E+02
              0.156416104232500E+03
              0.539123425691803E+02
              0.117597716432962E+01
              0.161249677360473E+02
             -0.615773275896008E+02
              0.315358708212245E+02
             -0.722631614068499E+02
             -0.252464786634832E+02
             -0.523453377786784E+02
             -0.220305685123568E+02
              0.569993610904353E+02
             -0.537806255052625E+02
              0.161463043205180E+02
             -0.411195401350949E+01
              0.385562514427801E+01
             -0.434007657208634E+02
             -0.478624166882477E+02
             -0.405158193145303E+01
             -0.424882046078854E+02
             -0.217112081675908E+02
             -0.438919233333906E+02
             -0.119244212728461E+02
             -0.359359383988609E+02
             -0.517013344221049E+02
              0.212955342497487E+02
             -0.209096703210345E+02
              0.188274535563380E+02
              0.976374152718563E+01
             -0.738997084830124E+02
             -0.548527104889915E+02
             -0.399138304118800E+02
              0.354440666826895E+02
              0.268834202397483E+01
             -0.627202765858092E+02
              0.586605343861336E+02
             -0.401656105365250E+02
              0.545659306439147E+02
             -0.290240597571194E+02
             -0.446522119552554E+02
              0.298218621658131E+02
             -0.658356650400952E+02
             -0.380369314185707E+02
              0.673362143233784E+02
              0.204392857710891E+02
             -0.361213615291098E+02
              0.490543657304394E+02
             -0.174378280482050E+02
             -0.323640370244212E+02
             -0.302151289108944E+02
             -0.501261598836583E+02
              0.250001133858932E+02
             -0.934162255935908E+02
             -0.841022848538466E+02
             -0.736774276980339E+01
             -0.307075825017690E+02
             -0.576525480984805E+02
              0.722585387136733E+02
              0.131691106770973E+03
             -0.361016198705767E+02
             -0.256036276315194E+01
             -0.637846371998263E+02
              0.651187967446104E+02
              0.171150403249663E+02
             -0.182421864400819E+02
             -0.410340081394105E+02
              0.148713945707834E+02
             -0.586662318518886E+02
             -0.198140035530652E+02
             -0.905445934935854E+02
              0.337546000400381E+02
              0.168919490782449E+02
              0.183839276582432E+01
             -0.709974276028640E+01
             -0.330631887644745E+02
             -0.762484679138458E+01
              0.125724792953059E+03
             -0.198971152531308E+02
             -0.438499168929966E+02
             -0.684775710248605E+02
              0.109644120497495E+02
             -0.342827757317378E+02
              0.594673837519265E+01
              0.261982730558158E+02
              0.102292982009029E+02
              0.278513760181781E+02
              0.120290848458723E+02
              0.630165673888400E+02
              0.316789844007674E+02
             -0.327171255769584E+02
              0.356685201089254E+02
              0.379820960357815E+02
              0.120941396924311E+02
              0.487656055592251E+02
             -0.225405093834780E+02
              0.766441962261556E+02
              0.172780381685784E+02
             -0.272611925636136E+02
             -0.726116795178825E+01
             -0.186745750521043E+02
              0.261858613647055E+02
             -0.234384434690876E+02
             -0.169056593730318E+00
             -0.852867923051872E+01
              0.810422423926772E+02
              0.500893572830124E+02
             -0.687433795238734E+02
             -0.479792345431105E+01
             -0.555827395281468E+02
             -0.159337302287372E+02
             -0.268694334078060E+02
              0.378737963202980E+01
              0.607477516141611E+00
             -0.258203857818268E+02
              0.818287481242089E+01
             -0.603884535189721E+01
             -0.128550709079899E+02
              0.859808685774818E+02
              0.181827291062355E+02
             -0.808235203961085E+02
             -0.458833835043580E+02
              0.946291050109825E+02
              0.278206474287920E+02
             -0.106861511346458E+02
              0.104709226097870E+03
             -0.194563659048306E+02
             -0.123047824262844E+02
             -0.542608447749490E+01
              0.107840320459101E+02
              0.273088476150971E+02
              0.780280169084293E+01
              0.305628304075808E+02
             -0.187783154567072E+02
             -0.304618652983822E+02
             -0.418563109898657E+02
             -0.477511927522360E+02
              0.464447402826754E+02
              0.126904217357217E+02
              0.388193428547133E+02
              0.133803619408907E+02
              0.856839252271250E+02
              0.156646127902857E+02
             -0.846948824400140E+02
             -0.334956803966183E+02
              0.133511414804073E+02
             -0.303076220918588E+02
              0.627392808307923E+02
             -0.889202982329743E+01
              0.148779543189370E+02
              0.497942148611880E+02
             -0.708300373077550E+02
              0.149907358479046E+03
              0.209058310850569E+02
              0.271471206398126E+02
              0.348221575019563E+02
              0.103877849453147E+02
             -0.154048858438932E+01
              0.358655441506964E+02
             -0.357925941927816E+02
              0.774566719667430E+02
              0.686079451847049E+02
             -0.406735462480577E+02
              0.149973404696287E+02
              0.671067076903795E+02
             -0.224000886641967E+02
              0.154675725241879E+02
              0.435295189029698E+02
              0.422534862576634E+02
             -0.785862157583056E+02
             -0.152746722599162E+02
             -0.356256036039408E+02
             -0.150635574104899E+01
             -0.769589704795266E+01
             -0.538638759325750E+01
             -0.180551928085638E+02
             -0.294619452885911E+02
              0.639819415681401E+01
              0.111685493080962E+02
              0.536407124241819E+02
             -0.391083472452429E+02
              0.375422379010516E+02
              0.439336654885391E+02
             -0.186291816543263E+02
              0.872987278914864E+02
             -0.698629963017434E+02
             -0.103311570436516E+03
             -0.661031625906731E+01
             -0.271942602858348E+01
              0.384284069723230E+01
              0.790690178002354E+02
             -0.106909433990388E+02
              0.417319081473334E+02
              0.444731121533131E+02
              0.385624809070314E+02
             -0.997089300142488E+01
              0.627926888558160E+02
             -0.133888119766983E+02
             -0.308067389609246E+02
             -0.479816114789612E+02
              0.590310042430895E+01
              0.369798592250036E+02
             -0.601208554518828E+01
              0.393093258901531E+02
             -0.173269885540765E+01
              0.655663889605882E+02
              0.187252608712927E+02
              0.999182699777654E+01
             -0.121673378999881E+02
              0.332490936682524E+02
              0.362924613048690E+02
              0.232605523572164E+02
             -0.508091584134519E+00
             -0.551288375157023E+02
              0.261153195342651E+02
              0.175438327655136E+02
              0.402815758538999E+02
              0.272561075616532E+02
              0.372792577620221E+02
             -0.603131677814079E+01
              0.251914452770676E+02
             -0.298941977382999E+02
             -0.198801512889179E+01
             -0.569778840035618E+02
             -0.308040450979511E+02
              0.379272951092883E+02
             -0.936732042939316E+02
              0.294597584849998E+02
              0.184267712536580E+02
              0.841457893814705E+02
             -0.300177777644553E+02
              0.330095518582643E+02
             -0.137718809456289E+02
             -0.464618567812437E+02
             -0.761913423252715E+02
             -0.531108135540570E+01
             -0.861376447725422E+02
              0.199537779759893E+02
             -0.247726335052672E+02
              0.306245225644464E+02
              0.237461907906462E+02
             -0.241843020803423E+02
             -0.266228044594485E+02
              0.391382105834570E+02
             -0.589358172786424E+02
             -0.117105660261941E+02
             -0.196334702812449E+02
              0.213354618255495E+02
             -0.885948011141335E+01
              0.361664360488476E+01
             -0.200801011786818E+02
              0.559389034377261E+02
             -0.440958474084753E+02
              0.790080086863532E+01
              0.586462529074755E+02
             -0.324026498328631E+02
              0.361918953763524E+01
             -0.878556349513940E+01
             -0.670142274603044E+02
             -0.482605689090898E+02
             -0.859462217576196E+01
              0.241298064130085E+02
              0.302854361067322E+02
              0.861878123223721E+01
             -0.415841942359373E+01
              0.152071937470294E+02
             -0.440206650233203E+02
              0.329266401859496E+01
             -0.531864629198429E+02
             -0.325065943953826E+02
              0.475431833840874E+02
             -0.295474503942888E+02
              0.623659605616976E+02
             -0.215391126618784E+02
              0.353891438635962E+02
              0.242189628252712E+02
             -0.644880431492806E+02
             -0.280535417293595E+02
              0.933139620141560E+01
             -0.372579071346352E+02
             -0.340136576853532E+02
             -0.831157017773346E+02
             -0.540018272850439E+02
             -0.511136663371777E+02
             -0.416079708743926E+02
             -0.985241968360299E+00
              0.100008387211826E+02
              0.109527035284762E+01
              0.153843387224921E+02
             -0.550129365374888E+02
              0.142312419321360E+02
              0.257629232849798E+02
             -0.667614544233047E+02
             -0.702560097796326E+02
             -0.431959408712374E+02
             -0.172820356992327E+02
              0.178622372449428E+02
              0.453948794094572E+01
             -0.426079954288020E+02
              0.366302665585298E+02
             -0.216533254755993E+02
              0.518055964517137E+02
             -0.888303037173068E+02
[...]
              0.283627013344863E+02
              0.141916816117962E+03
              0.243079259798311E+02
              0.122860032084006E+02
             -0.464625559884857E+02
             -0.638099616356244E+02
             -0.189253300065857E+02
              0.330343852775961E+02
             -0.429253544728908E+01
              0.190828286965581E+02
              0.336657229752617E+02
             -0.586611177508666E+02
              0.222938921949891E+02
              0.581688265172442E+02
              0.553163878426748E+02
             -0.419411880402777E+01
             -0.134183265007937E+01
             -0.994614204186408E+01
             -0.482800119632273E+02
             -0.675652554024131E+02
              0.786135764473325E+02
             -0.523779896858269E+01
             -0.588327876903761E+02
              0.172969057083731E+01
             -0.205737923637087E+02
              0.939382903771227E+02
             -0.216859918675553E+02
             -0.353979966617225E+02
              0.335912242516156E+02
             -0.146109700111284E+02
              0.390169825730063E+02
             -0.232011633768951E+01
              0.101149191050857E+03
              0.490302596308843E+02
             -0.506769715647261E+01
             -0.322452794226784E+02
              0.232783989548543E+02
             -0.529107805508851E+02
             -0.127795272765779E+02
              0.586410634792765E+02
             -0.288041842030643E+02
             -0.438628056924002E+02
             -0.223463599411303E+02
              0.518960373119396E+02
              0.124671347450736E+02
             -0.849516456831253E+02
              0.304440168789157E+02
              0.152099138824549E+02
              0.580823912399489E+01
             -0.513963484874264E+02
             -0.375139187737744E+01
              0.323348308276723E+02
              0.513071250199567E+02
              0.633577353289258E+02
              0.229567991474361E+02
              0.742509027881169E+00
             -0.498802870226801E+02
             -0.510476185302094E+02
             -0.748156101581498E+02
             -0.621060556753787E+01
              0.309508900514713E+02
             -0.380137084129902E+01
              0.547233013735080E+02
             -0.318420711598525E+02
              0.166337377668378E+02
             -0.103311031601712E+02
             -0.290058580481768E+02
              0.586434705414593E+02
              0.792113233898840E+01
              0.605172332958483E+02
              0.510795293816682E+01
              0.265060757481048E+02
             -0.192748191892217E+02
              0.586652239928588E+02
             -0.112127026839432E+02
             -0.978177377784597E-01
             -0.790895947074375E+02
             -0.128310321118816E+02
              0.719671229906916E+02
              0.673534152624029E+02
              0.252249527182659E+02
             -0.130451892889956E+02
              0.347016059858231E+01
             -0.173900623400836E+02
             -0.211500886049231E+01
              0.908827633933222E+02
              0.126318818988898E+01
             -0.190912966295322E+02
             -0.110831937897795E+03
             -0.552594613171690E+02
             -0.375508914551840E+02
             -0.658949079437008E+02
             -0.556359743926268E+02
             -0.683225462335255E+02
             -0.447736531501146E+02
             -0.410864062602451E+02
             -0.452378704128212E+02
              0.484006390020263E+02
             -0.293938917913453E+02
             -0.995410760654701E+02
              0.419428079041801E+02
             -0.260578390514161E+02
             -0.791477602916286E+02
              0.944787427257004E+02
             -0.220149746375638E+02
              0.227939841987209E+02
              0.455321517143667E+02
             -0.127827676804276E+01
              0.254776914420112E+02
              0.469873002697872E+01
              0.408515518062245E+00
             -0.151064912464597E+02
             -0.716876570381492E+02
              0.133402590014642E+02
             -0.129481004747605E+03
              0.625332033160028E+02
             -0.441113465155934E+02
             -0.163066727488806E+02
             -0.158179054919916E+02
              0.720329245015661E+01
             -0.227699514510874E+02
              0.297092948062573E+02
             -0.521076787029719E+02
              0.367514002412906E+02
              0.371822031086245E+02
              0.168064914334788E+02
              0.100987355721871E+02
              0.198067323433845E+02
              0.624629567174492E+01
              0.310351296525347E+02
             -0.800662560569253E+01
             -0.593615035090903E+02
              0.759184974089442E+01
             -0.153178295398314E+02
             -0.195953265959207E+01
              0.507240146239606E+02
             -0.827594855108812E+02
             -0.144946498723755E+01
              0.581428044118411E+00
              0.996681602013524E+01
              0.318631523127906E+02
             -0.123721354293350E+02
              0.836256358853060E+02
              0.487618740336247E+02
             -0.183147691550772E+02
             -0.953175662145026E+01
              0.108115759844011E+01
              0.770081461383384E+02
             -0.586333780224751E+02
             -0.105850232747795E+03
              0.309661057360854E+02
             -0.163424914378269E+02
             -0.140047423923141E+02
              0.130687840332200E+02
              0.769109123065201E+02
              0.464562141510687E+02
             -0.153537601877537E+02
             -0.503622153344585E+02
             -0.551590907486859E+01
              0.306628617830871E+02
             -0.111914338393195E+02
             -0.756440567575780E+02
             -0.275035545257569E+01
             -0.891048732846474E+02
             -0.476043439492073E+02
              0.769661155895390E+02
             -0.484252789539060E+02
             -0.637445131978519E+02
             -0.514968267703097E+02
             -0.350222514167110E+02
              0.341676858592023E+02
              0.822518290611002E+02
             -0.361860840577816E+01
              0.276728257155698E+02
             -0.184151399195644E+02
             -0.694598772910422E+02
              0.465707262964167E+02
             -0.445707393109400E+02
              0.321722865028585E+02
              0.376247556449379E+02
             -0.658819846372387E+01
              0.390505992410750E+02
              0.438547176008940E+02
              0.100831495441754E+03
             -0.155863036078954E+02
             -0.456991718825232E+02
             -0.613301083546813E+02
             -0.124110731777590E+02
             -0.233826903985161E+02
              0.103085993882931E+03
             -0.449719581919767E+02
              0.105150217860755E+02
              0.968871973237378E+01
             -0.264682643757959E+02
             -0.800119588122493E+02
             -0.700802680544689E+01
              0.980890905295242E+02
              0.942673766624387E+01
              0.808555143502730E+01
             -0.527846826434495E+02
             -0.605696669029421E+02
             -0.566715060296572E+01
              0.500662526784195E+02
             -0.222321256391580E+02
              0.108048902905179E+03
             -0.436652272360802E+02
              0.146531985350586E+02
             -0.223774157319617E+02
             -0.719006862124793E+02
              0.168979533044683E+01
             -0.502209358057614E+02
             -0.761177215929747E+02
              0.619700130615922E+01
              0.234668008984198E+01
              0.514650283566046E+02
              0.187597896857137E+02
             -0.324142903875200E+02
              0.230157859810873E+02
             -0.812275009544891E+02
             -0.521878254944384E+02
              0.902598798030851E+02
              0.141937945605493E+02
             -0.187741489683140E+02
             -0.352412887380404E+02
             -0.271571827182277E+01
             -0.588581608828167E+01
              0.831798433818743E+02
              0.418413028590946E+02
             -0.165766257172990E+02
             -0.121473344855930E+02
             -0.427800473970717E+02
             -0.200505283596826E+02
             -0.670260072681084E+02
              0.460497550674408E+02
              0.548597698100085E+01
              0.144783421631107E+02
              0.156455835103845E+02
             -0.595041942437398E+00
             -0.168771057120270E+02
             -0.302779238502154E+01
             -0.100554417926318E+03
             -0.230045335441986E+02
             -0.768946951351978E+01
             -0.948348273517320E+01
              0.546298317656122E+02
              0.624750553952568E+02
              0.164932988608510E+02
             -0.971416914944446E+02
              0.647866733884780E+02
             -0.215089045216996E+02
             -0.377310350600405E+02
             -0.865011006908206E+02
             -0.386905070340112E+02
              0.565527750127829E+02
              0.245116528711682E+02
              0.518179176802397E+01
              0.292734888086639E+02
             -0.565430363662471E+02
             -0.422898169086373E+02
              0.516097779005235E+02
              0.387447213110975E+02
              0.519103096949997E+02
             -0.115473385653351E+01
              0.688896007132291E+01
              0.569855007960719E+02
              0.963646221394641E+02
             -0.300021323273543E+02
              0.323624055483053E+02
             -0.119617843447527E+02
             -0.412662036679868E+02
             -0.314974222244653E+02
             -0.300851317363126E+02
             -0.131467856259466E+02
             -0.523550150345520E+02
             -0.217163495800113E+02
             -0.141283505031540E+03
              0.369378731826651E+02
              0.206930814252793E+02
             -0.395058838347398E+01
             -0.380356322536604E+02
             -0.204180209477662E+02
             -0.527453266511312E+02
              0.151351880991251E+02
              0.820732003509264E+02
             -0.252181647171639E+02
             -0.163272111292240E+02
              0.238261030862628E+02
             -0.490203782841267E+02
              0.881159989650521E+02
              0.154466268766457E+02
              0.226004584432960E+02
              0.490463814702241E+02
              0.315353700043266E+01
              0.542473392850136E+02
              0.143324353648568E+02
             -0.106338318683203E+02
              0.730759310484569E+01
              0.715165505376149E+00
              0.727403878472886E+02
              0.101450868477444E+02
              0.121010826933133E+02
             -0.130324168418098E+02
              0.132573486072981E+02
             -0.911981504674415E+02
             -0.326187504690596E+02
             -0.457824866064682E+02
              0.485406130142902E+02
             -0.291461035546888E+02
             -0.658747346085842E+02
              0.539144093956746E+02
             -0.122015333480427E+02
              0.440349328361954E+02
             -0.899441620337866E+02
              0.232081918697593E+02
              0.855132140213112E+01
              0.584120653595414E+01
             -0.833971341592348E+01
             -0.905034178795211E+01
              0.480017224670750E+02
              0.199073723141390E+01
             -0.475697670634336E+02
             -0.176513788784851E+02
              0.276528216773794E+02
             -0.118046101465951E+03
             -0.930353094336930E+02
              0.394911419852156E+01
              0.117925548151786E+02
             -0.414045194918264E+02
             -0.389034123821040E+01
              0.112170691505176E+03
              0.306396678020623E+02
             -0.571985035051604E+02
              0.925109552282163E+01
             -0.963945653228569E+01
              0.106093541752410E+02
             -0.338260076841370E+02
              0.195855899727817E+02
              0.284781723147883E+02
             -0.298055721410924E+01
              0.108279062766951E+03
             -0.140204762220876E+02
             -0.316200282910164E+02
              0.143411286592924E+02
              0.466882959745858E+02
             -0.356125747723596E+02
             -0.316938898309233E+01
              0.965870735442979E+02
             -0.462947378599620E+01
              0.622098107276343E+02
              0.135680504021937E+02
             -0.899604305289616E+01
             -0.305244010873120E+02
              0.566701756742336E+02
             -0.514743505381725E+02
             -0.220726646839978E+01
             -0.170216577131640E+02
             -0.405556109313491E+02
              0.185189661590136E+02
              0.239839416157772E+02
              0.115999523971961E+02
              0.712345197115951E+00
             -0.384875106763047E+02
              0.215067469246727E+02
             -0.673597506683430E+01
             -0.246392058951090E+02
             -0.210667396142679E+02
              0.203044335984509E+02
             -0.599890837597786E+01
             -0.349582759853391E+02
             -0.106758454718817E+03
              0.103084903496859E+02
              0.248764890577958E+02
             -0.387988948306946E+02
             -0.211258141747224E+02
              0.807987129968658E+02
              0.655148108522209E+01
              0.311449557026040E+02
              0.393066127308958E+01
              0.322299574303188E+02
              0.648303628721408E+01
             -0.373279593874889E+02
             -0.238810344788644E+01
              0.876130834607693E+01
              0.274277987777281E+02
              0.782239094281113E+02
              0.507723610192957E+02
              0.200553363672554E+00
              0.169704008795338E+02
              0.613831963872401E+02
              0.236182444601767E+02
             -0.753168680974404E+02
             -0.273987582861969E+02
              0.151123263425209E+02
              0.562602893966846E+01
              0.255138245487109E+02
             -0.548083415344158E+02
              0.897020452160818E+01
              0.386699874349496E+02
              0.498300555815534E+02
             -0.435154372412222E+02
             -0.687338475432637E+01
             -0.208818896747186E+01
             -0.133909335923794E+02
             -0.365326469079133E+02
             -0.215252325177043E+02
             -0.207628081446641E+01
              0.795258316068845E+01
              0.421800724554143E+02
             -0.308346661524334E+02
              0.826883488384752E+02
              0.327711724642157E+02
              0.220342405818315E+02
              0.333705391479851E+02
              0.323142942934400E+02
              0.346888901723963E+02
              0.537589108608303E+02
             -0.434355643062189E+02
              0.620222159348409E+02
             -0.112398318166737E+03
              0.307567796515093E+02
             -0.106614224553924E+03
              0.855191069197806E+02
              0.691513649632247E+02
             -0.109880252233936E+02
             -0.493537171930014E+02
             -0.430060924333632E+02
             -0.623814186257104E+02
             -0.629394119484900E+02
              0.552530545123004E+02
              0.405814957208167E+02
              0.236902948903038E+02
              0.373668899223613E+02
              0.403738715018743E+02
             -0.382473438995141E+02
             -0.197896134313846E+02
              0.587155767083811E+02
             -0.116411032057079E+02
              0.552406091445408E+02
              0.700224112167868E+02
             -0.556755188025282E+01
             -0.707059579910224E+02
             -0.836771731041495E+00
             -0.247790638838655E+01
             -0.883329895525264E+01
             -0.182035392078018E+01
             -0.653472459991050E+02
             -0.210300803187715E+02
              0.542710629073157E+01
              0.904435984364039E+01
              0.469462265984440E+02
             -0.398162374262898E+02
              0.657461158158623E+02
             -0.425607381820434E+02
              0.210954021495951E+02
              0.350747187555857E+02
 
 BEEF-vdW xc energy contributions
           1 :   -783.246851674502     
           2 :    719.179676941913     
           3 :   -608.487442569722     
           4 :    478.489852312295     
           5 :   -356.696779368863     
           6 :    262.779782333577     
           7 :   -204.239307965508     
           8 :    176.471212965399     
           9 :   -166.792033849217     
          10 :    160.565213416866     
          11 :   -146.966025430035     
          12 :    122.206719345764     
          13 :   -89.3751949928874     
          14 :    55.5194803635062     
          15 :   -27.6629211519401     
          16 :    9.55019097595095     
          17 :  -0.377533767258910     
          18 :   -4.24870447610067     
          19 :    9.82982775253595     
          20 :   -20.2730532863221     
          21 :    36.2058828664890     
          22 :   -54.9727627837684     
          23 :    72.1503637585397     
          24 :   -83.7541494483008     
          25 :    88.0513592397400     
          26 :   -86.1858120287500     
          27 :    81.4228957153073     
          28 :   -77.4766990866231     
          29 :    76.7556769264442     
          30 :   -79.3457798543616     
          31 :   -85.9628703250287     
          32 :   -65.8048735624136     

     Writing output data file ./pwscf.save/
 
     init_run     :    358.40s CPU    363.04s WALL (       1 calls)
     electrons    :  16908.90s CPU  17079.53s WALL (       1 calls)
     forces       :    107.57s CPU    108.84s WALL (       1 calls)

     Called by init_run:
     wfcinit      :    310.71s CPU    314.33s WALL (       1 calls)
     potinit      :     44.54s CPU     44.87s WALL (       1 calls)
     hinit0       :      1.19s CPU      1.22s WALL (       1 calls)

     Called by electrons:
     c_bands      :  14049.08s CPU  14182.78s WALL (      24 calls)
     sum_band     :   2038.64s CPU   2055.64s WALL (      24 calls)
     v_of_rho     :    126.34s CPU    131.54s WALL (      24 calls)
     newd         :     38.60s CPU     53.16s WALL (      24 calls)
     PAW_pot      :    160.68s CPU    160.70s WALL (      24 calls)
     mix_rho      :    540.85s CPU    541.86s WALL (      24 calls)
     vdW_kernel   :     33.57s CPU     33.57s WALL (       1 calls)

     Called by c_bands:
     init_us_2    :     99.50s CPU     99.80s WALL (     650 calls)
     cegterg      :  13026.88s CPU  13159.03s WALL (     312 calls)

     Called by *egterg:
     cdiaghg      :    114.30s CPU    114.39s WALL (    2226 calls)
     h_psi        :   8354.47s CPU   8401.79s WALL (    2252 calls)
     s_psi        :   1405.11s CPU   1405.86s WALL (    2252 calls)
     g_psi        :     19.51s CPU     19.53s WALL (    1927 calls)

     Called by h_psi:
     h_psi:calbec :   1292.41s CPU   1293.60s WALL (    2252 calls)
     vloc_psi     :   5625.17s CPU   5629.18s WALL (    2252 calls)
     add_vuspsi   :   1404.71s CPU   1405.40s WALL (    2252 calls)

     General routines
     calbec       :   1884.47s CPU   1886.24s WALL (    2616 calls)
     fft          :     57.14s CPU     57.17s WALL (    3464 calls)
     ffts         :    171.76s CPU    171.83s WALL (   11140 calls)
     fftw         :   5742.30s CPU   5745.68s WALL (  389736 calls)
 
     Parallel routines
 
     PWSCF        :      4h51m CPU      4h54m WALL

 
   This run was terminated on:  18:55:40  26Sep2022            

=------------------------------------------------------------------------------=
   JOB DONE.
=------------------------------------------------------------------------------=
