
     Program PWSCF v.6.7MaX starts on  3Jan2023 at 22:34:24 

     This program is part of the open-source Quantum ESPRESSO suite
     for quantum simulation of materials; please cite
         "P. Giannozzi et al., J. Phys.:Condens. Matter 21 395502 (2009);
         "P. Giannozzi et al., J. Phys.:Condens. Matter 29 465901 (2017);
          URL http://www.quantum-espresso.org", 
     in publications or presentations arising from this work. More details at
     http://www.quantum-espresso.org/quote

     Parallel version (MPI), running on     1 processors

     MPI processes distributed on     1 nodes
     Reading input from ch2ch2oh-ensemble.in
Warning: card &CELL ignored
Warning: card / ignored

     Current dimensions of program PWSCF are:
     Max number of different atomic species (ntypx) = 10
     Max number of k-points (npk) =  40000
     Max angular momentum in pseudopotentials (lmaxx) =  3
     file Pt.pbe-n-kjpaw_psl.1.0.0.UPF: wavefunction(s)  6S 5D renormalized
     file C.pbe-n-kjpaw_psl.1.0.0.UPF: wavefunction(s)  2S 2P renormalized
     file O.pbe-nl-kjpaw_psl.1.0.0.UPF: wavefunction(s)  2S 2P renormalized
     file H.pbe-kjpaw_psl.1.0.0.UPF: wavefunction(s)  1S renormalized

     **************************************************************************
     Initializing libbeef V0.1.2 with the BEEF-vdW functional.
     Citation: Wellendorff et al., PRB 85, 235149 (2012).
     **************************************************************************


     IMPORTANT: XC functional enforced from input :
     Exchange-correlation= BEEF-VDW
                           (   1   4  43  14   2   0   0)
     Any further DFT definition will be discarded
     Please, verify this is what you really want


     Subspace diagonalization in iterative solution of the eigenvalue problem:
     a serial algorithm will be used

 
     G-vector sticks info
     --------------------
     sticks:   dense  smooth     PW     G-vecs:    dense   smooth      PW
     Sum        4267    4267   1159               738735   738735  104205
 


     bravais-lattice index     =            0
     lattice parameter (alat)  =      16.0349  a.u.
     unit-cell volume          =   11763.5949 (a.u.)^3
     number of atoms/cell      =           44
     number of atomic types    =            4
     number of electrons       =       379.00
     number of Kohn-Sham states=          228
     kinetic-energy cutoff     =      60.0000  Ry
     charge density cutoff     =     240.0000  Ry
     scf convergence threshold =      1.0E-06
     mixing beta               =       0.7000
     number of iterations used =            8  local-TF  mixing
     Exchange-correlation= BEEF-VDW
                           (   1   4  43  14   2   0   0)

     celldm(1)=  16.034858  celldm(2)=   0.000000  celldm(3)=   0.000000
     celldm(4)=   0.000000  celldm(5)=   0.000000  celldm(6)=   0.000000

     crystal axes: (cart. coord. in units of alat)
               a(1) = (   1.000000   0.000000   0.000000 )  
               a(2) = (   0.500000   0.866025   0.000000 )  
               a(3) = (   0.000000   0.000000   3.294686 )  

     reciprocal axes: (cart. coord. in units 2 pi/alat)
               b(1) = (  1.000000 -0.577350  0.000000 )  
               b(2) = (  0.000000  1.154701  0.000000 )  
               b(3) = (  0.000000  0.000000  0.303519 )  


     PseudoPot. # 1 for Pt read from file:
     /users/bkreitz1/quantum-espresso/potentials/Pt.pbe-n-kjpaw_psl.1.0.0.UPF
     MD5 check sum: 04dc8a03c51ece93fc7b5889c2958091
     Pseudo is Projector augmented-wave + core cor, Zval = 10.0
     Generated using 'atomic' code by A. Dal Corso  v.6.7MaX
     Shape of augmentation charge: PSQ
     Using radial grid of 1277 points,  6 beta functions with: 
                l(1) =   0
                l(2) =   0
                l(3) =   1
                l(4) =   1
                l(5) =   2
                l(6) =   2
     Q(r) pseudized with 0 coefficients 


     PseudoPot. # 2 for C  read from file:
     /users/bkreitz1/quantum-espresso/potentials/C.pbe-n-kjpaw_psl.1.0.0.UPF
     MD5 check sum: a169b0ebad56f5ec0d79c4633f80bf22
     Pseudo is Projector augmented-wave + core cor, Zval =  4.0
     Generated using 'atomic' code by A. Dal Corso  v.6.7MaX
     Shape of augmentation charge: PSQ
     Using radial grid of 1073 points,  4 beta functions with: 
                l(1) =   0
                l(2) =   0
                l(3) =   1
                l(4) =   1
     Q(r) pseudized with 0 coefficients 


     PseudoPot. # 3 for O  read from file:
     /users/bkreitz1/quantum-espresso/potentials/O.pbe-nl-kjpaw_psl.1.0.0.UPF
     MD5 check sum: eef08af8b58d9ec80f8fdb78829eb7cf
     Pseudo is Projector augmented-wave + core cor, Zval =  6.0
     Generated using 'atomic' code by A. Dal Corso  v.6.7MaX
     Shape of augmentation charge: PSQ
     Using radial grid of 1095 points,  4 beta functions with: 
                l(1) =   0
                l(2) =   0
                l(3) =   1
                l(4) =   1
     Q(r) pseudized with 0 coefficients 


     PseudoPot. # 4 for H  read from file:
     /users/bkreitz1/quantum-espresso/potentials/H.pbe-kjpaw_psl.1.0.0.UPF
     MD5 check sum: ae98473e6dc62675f0d0baffdab24f65
     Pseudo is Projector augmented-wave, Zval =  1.0
     Generated using 'atomic' code by A. Dal Corso  v.6.7MaX
     Shape of augmentation charge: PSQ
     Using radial grid of  929 points,  2 beta functions with: 
                l(1) =   0
                l(2) =   0
     Q(r) pseudized with 0 coefficients 


     atomic species   valence    mass     pseudopotential
        Pt            10.00   195.08400     Pt( 1.00)
        C              4.00    12.01100     C ( 1.00)
        O              6.00    15.99900     O ( 1.00)
        H              1.00     1.00800     H ( 1.00)

     No symmetry found



   Cartesian axes

     site n.     atom                  positions (alat units)
         1           Pt  tau(   1) = (   0.0000000   0.0000000   1.0017346  )
         2           Pt  tau(   2) = (   0.3333333   0.0000000   1.0017346  )
         3           Pt  tau(   3) = (   0.6666667   0.0000000   1.0017346  )
         4           Pt  tau(   4) = (   0.1666667   0.2886751   1.0017346  )
         5           Pt  tau(   5) = (   0.5000000   0.2886751   1.0017346  )
         6           Pt  tau(   6) = (   0.8333333   0.2886751   1.0017346  )
         7           Pt  tau(   7) = (   0.3333333   0.5773503   1.0017346  )
         8           Pt  tau(   8) = (   0.6666667   0.5773503   1.0017346  )
         9           Pt  tau(   9) = (   1.0000000   0.5773503   1.0017346  )
        10           Pt  tau(  10) = (   0.1666667   0.0962250   1.2739001  )
        11           Pt  tau(  11) = (   0.5000000   0.0962250   1.2739001  )
        12           Pt  tau(  12) = (   0.8333333   0.0962250   1.2739001  )
        13           Pt  tau(  13) = (   0.3333333   0.3849002   1.2739001  )
        14           Pt  tau(  14) = (   0.6666667   0.3849002   1.2739001  )
        15           Pt  tau(  15) = (   1.0000000   0.3849002   1.2739001  )
        16           Pt  tau(  16) = (   0.5000000   0.6735753   1.2739001  )
        17           Pt  tau(  17) = (   0.8333333   0.6735753   1.2739001  )
        18           Pt  tau(  18) = (   1.1666667   0.6735753   1.2739001  )
        19           Pt  tau(  19) = (  -0.0031866   0.1938869   1.5465629  )
        20           Pt  tau(  20) = (   0.3308335   0.1933321   1.5432157  )
        21           Pt  tau(  21) = (   0.6675698   0.1940090   1.5467921  )
        22           Pt  tau(  22) = (   0.1647509   0.4807371   1.5428833  )
        23           Pt  tau(  23) = (   0.4984281   0.4811113   1.5424322  )
        24           Pt  tau(  24) = (   0.8313790   0.4789598   1.5463570  )
        25           Pt  tau(  25) = (   0.3312728   0.7699934   1.5412668  )
        26           Pt  tau(  26) = (   0.6651446   0.7696585   1.5411621  )
        27           Pt  tau(  27) = (   0.9986055   0.7705245   1.5406592  )
        28           Pt  tau(  28) = (  -0.0038686  -0.0014660   1.8136642  )
        29           Pt  tau(  29) = (   0.3301690  -0.0009869   1.8156460  )
        30           Pt  tau(  30) = (   0.6624042   0.0001171   1.8161431  )
        31           Pt  tau(  31) = (   0.1646005   0.2884090   1.8180496  )
        32           Pt  tau(  32) = (   0.4976804   0.2887574   1.8160411  )
        33           Pt  tau(  33) = (   0.8295501   0.2894216   1.8426100  )
        34           Pt  tau(  34) = (   0.3302637   0.5787317   1.8155629  )
        35           Pt  tau(  35) = (   0.6626720   0.5783074   1.8161746  )
        36           Pt  tau(  36) = (   0.9955321   0.5800662   1.8143531  )
        37           C   tau(  37) = (   0.8377496   0.2969240   2.0894423  )
        38           C   tau(  38) = (   0.9861333   0.2323655   2.1647429  )
        39           O   tau(  39) = (   1.1323921   0.3044171   2.1114580  )
        40           H   tau(  40) = (   0.7365502   0.2280402   2.1296745  )
        41           H   tau(  41) = (   0.8186496   0.4203706   2.1210350  )
        42           H   tau(  42) = (   1.0011842   0.1068815   2.1413095  )
        43           H   tau(  43) = (   0.9785414   0.2496245   2.2929457  )
        44           H   tau(  44) = (   1.1230759   0.4180570   2.1224007  )

     number of k points=    13  Marzari-Vanderbilt smearing, width (Ry)=  0.0200
                       cart. coord. in units 2pi/alat
        k(    1) = (   0.0000000   0.0000000   0.0000000), wk =   0.0800000
        k(    2) = (   0.0000000   0.2309401   0.0000000), wk =   0.1600000
        k(    3) = (   0.0000000   0.4618802   0.0000000), wk =   0.1600000
        k(    4) = (   0.2000000  -0.1154701   0.0000000), wk =   0.1600000
        k(    5) = (   0.2000000   0.1154701   0.0000000), wk =   0.1600000
        k(    6) = (   0.2000000   0.3464102   0.0000000), wk =   0.1600000
        k(    7) = (   0.2000000  -0.5773503   0.0000000), wk =   0.1600000
        k(    8) = (   0.2000000  -0.3464102   0.0000000), wk =   0.1600000
        k(    9) = (   0.4000000  -0.2309401   0.0000000), wk =   0.1600000
        k(   10) = (   0.4000000  -0.0000000   0.0000000), wk =   0.1600000
        k(   11) = (   0.4000000   0.2309401   0.0000000), wk =   0.1600000
        k(   12) = (   0.4000000  -0.6928203   0.0000000), wk =   0.1600000
        k(   13) = (   0.4000000  -0.4618802   0.0000000), wk =   0.1600000

     Dense  grid:   738735 G-vectors     FFT dimensions: (  80,  80, 270)

     Estimated max dynamical RAM per process >       9.04 GB

     Check: negative core charge=   -0.000002

     Initial potential from superposition of free atoms

     starting charge  378.99376, renormalised to  379.00000

     negative rho (up, down):  1.242E-02 0.000E+00


     %%%%%%%%%%%%%%%%%%%%%%%%%%%%%%%%%%%%%%%%%%%%%%%%%%%%%%%%%%%%%%%%%%%%%%%%
     %                                                                      %
     % You are using vdW-DF, which was implemented by the Thonhauser group. %
     % Please cite the following two papers that made this development      %
     % possible and the two reviews that describe the various versions:     %
     %                                                                      %
     %   T. Thonhauser et al., PRL 115, 136402 (2015).                      %
     %   T. Thonhauser et al., PRB 76, 125112 (2007).                       %
     %   K. Berland et al., Rep. Prog. Phys. 78, 066501 (2015).             %
     %   D.C. Langreth et al., J. Phys.: Condens. Matter 21, 084203 (2009). %
     %                                                                      %
     %                                                                      %
     % If you are calculating the stress with vdW-DF, please also cite:     %
     %                                                                      %
     %   R. Sabatini et al., J. Phys.: Condens. Matter 24, 424209 (2012).   %
     %                                                                      %
     %%%%%%%%%%%%%%%%%%%%%%%%%%%%%%%%%%%%%%%%%%%%%%%%%%%%%%%%%%%%%%%%%%%%%%%%


     Starting wfcs are  341 randomized atomic wfcs
     Checking if some PAW data can be deallocated... 

     total cpu time spent up to now is      361.8 secs

     Self-consistent Calculation

     iteration #  1     ecut=    60.00 Ry     beta= 0.70
     Davidson diagonalization with overlap
     ethr =  1.00E-02,  avg # of iterations =  2.5

     Threshold (ethr) on eigenvalues was too large:
     Diagonalizing with lowered threshold

     Davidson diagonalization with overlap
     ethr =  6.99E-04,  avg # of iterations =  3.2

     negative rho (up, down):  1.202E-02 0.000E+00

     total cpu time spent up to now is     1787.1 secs

     total energy              =  -27840.64286492 Ry
     estimated scf accuracy    <       2.87256301 Ry

     iteration #  2     ecut=    60.00 Ry     beta= 0.70
     Davidson diagonalization with overlap
     ethr =  7.58E-04,  avg # of iterations =  7.1

     negative rho (up, down):  1.024E-02 0.000E+00

     total cpu time spent up to now is     2476.4 secs

     total energy              =  -27840.76937559 Ry
     estimated scf accuracy    <       1.14811169 Ry

     iteration #  3     ecut=    60.00 Ry     beta= 0.70
     Davidson diagonalization with overlap
     ethr =  3.03E-04,  avg # of iterations =  6.2

     negative rho (up, down):  6.723E-03 0.000E+00

     total cpu time spent up to now is     3174.1 secs

     total energy              =  -27840.80675390 Ry
     estimated scf accuracy    <       0.36983782 Ry

     iteration #  4     ecut=    60.00 Ry     beta= 0.70
     Davidson diagonalization with overlap
     c_bands:  1 eigenvalues not converged
     ethr =  9.76E-05,  avg # of iterations = 10.5

     negative rho (up, down):  5.269E-03 0.000E+00

     total cpu time spent up to now is     4025.9 secs

     total energy              =  -27840.86507618 Ry
     estimated scf accuracy    <       0.18676550 Ry

     iteration #  5     ecut=    60.00 Ry     beta= 0.70
     Davidson diagonalization with overlap
     ethr =  4.93E-05,  avg # of iterations =  4.1

     negative rho (up, down):  3.438E-03 0.000E+00

     total cpu time spent up to now is     4693.5 secs

     total energy              =  -27840.86967701 Ry
     estimated scf accuracy    <       0.04479195 Ry

     iteration #  6     ecut=    60.00 Ry     beta= 0.70
     Davidson diagonalization with overlap
     c_bands:  2 eigenvalues not converged
     c_bands:  1 eigenvalues not converged
     ethr =  1.18E-05,  avg # of iterations = 14.1

     negative rho (up, down):  2.904E-03 0.000E+00

     total cpu time spent up to now is     5696.3 secs

     total energy              =  -27840.87800560 Ry
     estimated scf accuracy    <       0.01707870 Ry

     iteration #  7     ecut=    60.00 Ry     beta= 0.70
     Davidson diagonalization with overlap
     ethr =  4.51E-06,  avg # of iterations =  8.1

     negative rho (up, down):  2.749E-03 0.000E+00

     total cpu time spent up to now is     6427.0 secs

     total energy              =  -27840.87900151 Ry
     estimated scf accuracy    <       0.01005465 Ry

     iteration #  8     ecut=    60.00 Ry     beta= 0.70
     Davidson diagonalization with overlap
     c_bands:  2 eigenvalues not converged
     ethr =  2.65E-06,  avg # of iterations = 13.2

     negative rho (up, down):  2.954E-03 0.000E+00

     total cpu time spent up to now is     7192.4 secs

     total energy              =  -27840.87965065 Ry
     estimated scf accuracy    <       0.00587322 Ry

     iteration #  9     ecut=    60.00 Ry     beta= 0.70
     Davidson diagonalization with overlap
     ethr =  1.55E-06,  avg # of iterations = 10.8

     negative rho (up, down):  3.724E-03 0.000E+00

     total cpu time spent up to now is     7923.8 secs

     total energy              =  -27840.88001255 Ry
     estimated scf accuracy    <       0.00207453 Ry

     iteration # 10     ecut=    60.00 Ry     beta= 0.70
     Davidson diagonalization with overlap
     c_bands:  1 eigenvalues not converged
     ethr =  5.47E-07,  avg # of iterations = 12.2

     negative rho (up, down):  4.683E-03 0.000E+00

     total cpu time spent up to now is     8673.7 secs

     total energy              =  -27840.88020010 Ry
     estimated scf accuracy    <       0.00112244 Ry

     iteration # 11     ecut=    60.00 Ry     beta= 0.70
     Davidson diagonalization with overlap
     ethr =  2.96E-07,  avg # of iterations =  5.8

     negative rho (up, down):  5.920E-03 0.000E+00

     total cpu time spent up to now is     9340.5 secs

     total energy              =  -27840.88029670 Ry
     estimated scf accuracy    <       0.00086206 Ry

     iteration # 12     ecut=    60.00 Ry     beta= 0.70
     Davidson diagonalization with overlap
     ethr =  2.27E-07,  avg # of iterations =  4.2

     negative rho (up, down):  7.150E-03 0.000E+00

     total cpu time spent up to now is     9991.6 secs

     total energy              =  -27840.88033612 Ry
     estimated scf accuracy    <       0.00061527 Ry

     iteration # 13     ecut=    60.00 Ry     beta= 0.70
     Davidson diagonalization with overlap
     ethr =  1.62E-07,  avg # of iterations =  1.5

     negative rho (up, down):  1.022E-02 0.000E+00

     total cpu time spent up to now is    10591.3 secs

     total energy              =  -27840.88031538 Ry
     estimated scf accuracy    <       0.00046044 Ry

     iteration # 14     ecut=    60.00 Ry     beta= 0.70
     Davidson diagonalization with overlap
     ethr =  1.21E-07,  avg # of iterations =  2.0

     negative rho (up, down):  1.120E-02 0.000E+00

     total cpu time spent up to now is    11225.2 secs

     total energy              =  -27840.88029199 Ry
     estimated scf accuracy    <       0.00025994 Ry

     iteration # 15     ecut=    60.00 Ry     beta= 0.70
     Davidson diagonalization with overlap
     ethr =  6.86E-08,  avg # of iterations =  2.0

     negative rho (up, down):  1.391E-02 0.000E+00

     total cpu time spent up to now is    11857.8 secs

     total energy              =  -27840.88028366 Ry
     estimated scf accuracy    <       0.00008979 Ry

     iteration # 16     ecut=    60.00 Ry     beta= 0.70
     Davidson diagonalization with overlap
     ethr =  2.37E-08,  avg # of iterations =  3.8

     negative rho (up, down):  1.353E-02 0.000E+00

     total cpu time spent up to now is    12555.4 secs

     total energy              =  -27840.88030465 Ry
     estimated scf accuracy    <       0.00003959 Ry

     iteration # 17     ecut=    60.00 Ry     beta= 0.70
     Davidson diagonalization with overlap
     ethr =  1.04E-08,  avg # of iterations =  3.5

     negative rho (up, down):  1.346E-02 0.000E+00

     total cpu time spent up to now is    13241.3 secs

     total energy              =  -27840.88031301 Ry
     estimated scf accuracy    <       0.00001336 Ry

     iteration # 18     ecut=    60.00 Ry     beta= 0.70
     Davidson diagonalization with overlap
     ethr =  3.52E-09,  avg # of iterations =  4.2

     negative rho (up, down):  1.373E-02 0.000E+00

     total cpu time spent up to now is    14049.5 secs

     total energy              =  -27840.88031708 Ry
     estimated scf accuracy    <       0.00000675 Ry

     iteration # 19     ecut=    60.00 Ry     beta= 0.70
     Davidson diagonalization with overlap
     ethr =  1.78E-09,  avg # of iterations =  2.0

     negative rho (up, down):  1.380E-02 0.000E+00

     total cpu time spent up to now is    14689.0 secs

     total energy              =  -27840.88031776 Ry
     estimated scf accuracy    <       0.00000288 Ry

     iteration # 20     ecut=    60.00 Ry     beta= 0.70
     Davidson diagonalization with overlap
     ethr =  7.59E-10,  avg # of iterations =  2.0

     negative rho (up, down):  1.373E-02 0.000E+00

     total cpu time spent up to now is    15339.6 secs

     End of self-consistent calculation

          k = 0.0000 0.0000 0.0000 ( 92447 PWs)   bands (ev):

   -19.7494 -12.3774  -9.2005  -6.9470  -6.2187  -5.6506  -5.1924  -4.6353
    -4.5644  -4.5414  -4.5381  -4.5277  -4.5205  -4.5059  -4.4935  -4.4875
    -3.9876  -3.9809  -3.9724  -3.9681  -3.9601  -3.9538  -3.5203  -3.5149
    -3.5057  -3.5027  -3.4950  -3.4805  -3.3640  -3.3098  -3.2902  -3.2829
    -3.2783  -3.2725  -3.1962  -3.0723  -3.0630  -3.0600  -3.0567  -3.0498
    -3.0427  -3.0356  -3.0330  -3.0200  -3.0044  -2.9936  -2.9834  -2.6923
    -2.4519  -2.4366  -2.4333  -2.4159  -2.4086  -2.3629  -2.3581  -2.3511
    -2.3360  -2.3059  -2.2208  -2.1897  -2.1519  -2.0897  -1.8052  -1.6253
    -1.6230  -1.6196  -1.6020  -1.5842  -1.5816  -1.5166  -1.4541  -1.4533
    -1.4402  -1.4361  -1.4199  -1.4124  -1.4073  -1.3966  -1.3865  -1.3737
    -1.3636  -1.3540  -1.3297  -1.3267  -1.3069  -1.2569  -1.2103  -1.2026
    -1.1990  -1.1874  -1.1182  -1.0461  -1.0371  -1.0302  -1.0036  -0.9866
    -0.9819  -0.9514  -0.9470  -0.9087  -0.8848  -0.8579  -0.8482  -0.8120
    -0.7723  -0.7717  -0.7324  -0.7307  -0.7018  -0.6731  -0.6024  -0.5846
    -0.5737  -0.5701  -0.5444  -0.4807  -0.1414  -0.1310  -0.1032  -0.0997
    -0.0817  -0.0812  -0.0750  -0.0588  -0.0243  -0.0096  -0.0042   0.0534
     0.0722   0.0815   0.0925   0.2009   0.2182   0.2302   0.2834   0.2924
     0.3248   0.3632   0.3722   0.3919   0.4123   0.4158   0.4244   0.6329
     0.6434   0.6498   0.6601   0.6616   0.6777   0.7218   0.7267   0.9032
     0.9111   0.9198   0.9255   0.9505   0.9853   1.0677   1.0729   1.0850
     1.0946   1.1004   1.1149   1.1211   1.1284   1.1296   1.1334   1.1703
     1.2186   1.2327   1.2370   1.2591   1.2636   1.2695   1.2885   1.3155
     1.3478   1.3512   1.3569   1.3612   1.3810   1.3862   1.4074   1.4108
     1.4745   1.4797   1.4882   1.4908   1.4983   1.5062   1.5200   1.5783
     1.5990   1.6024   1.6275   1.6292   1.6744   1.7989   1.8154   1.8961
     1.9082   1.9302   1.9404   1.9425   1.9500   2.2375   2.7158   2.7880
     2.8052   2.8100   2.8376   3.0364   4.0788   5.0467   5.0791   5.1180
     5.1308   5.2883   5.5734   6.0366   6.4394   6.6946   6.7118   6.7215
     6.7373   6.7519   6.7583   6.8211

          k = 0.0000 0.2309 0.0000 ( 92306 PWs)   bands (ev):

   -19.7494 -12.3774  -9.2005  -6.8014  -6.2150  -5.5157  -5.1910  -5.0285
    -4.6438  -4.6396  -4.6060  -4.4243  -4.3837  -4.3267  -4.2910  -4.2774
    -4.0898  -4.0562  -3.9195  -3.9029  -3.9001  -3.8859  -3.6026  -3.4830
    -3.4732  -3.4601  -3.4455  -3.4038  -3.3844  -3.3524  -3.3312  -3.3068
    -3.2846  -3.2603  -3.2370  -3.1924  -3.1722  -3.1031  -3.0833  -3.0556
    -3.0386  -3.0227  -2.8679  -2.8535  -2.8450  -2.8174  -2.8051  -2.6960
    -2.5667  -2.5452  -2.5343  -2.4847  -2.4626  -2.4335  -2.4243  -2.2703
    -2.2490  -2.1989  -2.1793  -2.1580  -2.1297  -2.0942  -1.9399  -1.8503
    -1.8030  -1.7623  -1.7316  -1.7082  -1.6823  -1.6376  -1.6062  -1.5946
    -1.5840  -1.5739  -1.5134  -1.5031  -1.4520  -1.4393  -1.4221  -1.3919
    -1.3354  -1.3251  -1.3066  -1.2809  -1.2564  -1.2306  -1.1902  -1.1561
    -1.1493  -1.1282  -1.1053  -1.0813  -1.0451  -1.0352  -1.0311  -1.0187
    -0.9867  -0.9580  -0.9144  -0.8986  -0.8889  -0.8596  -0.8532  -0.8178
    -0.8066  -0.7686  -0.7628  -0.7367  -0.7194  -0.6277  -0.6080  -0.6010
    -0.5881  -0.5601  -0.5497  -0.5150  -0.5020  -0.4841  -0.4779  -0.4257
    -0.3922  -0.3426  -0.1602  -0.1217  -0.1092  -0.0819  -0.0511  -0.0426
    -0.0328  -0.0111   0.0206   0.1256   0.1469   0.1889   0.2711   0.2938
     0.3227   0.3469   0.3618   0.3911   0.4118   0.4391   0.4577   0.5059
     0.5273   0.5387   0.5541   0.5696   0.7232   0.7345   0.7577   0.7728
     0.7955   0.8230   0.8572   0.9033   0.9156   0.9339   0.9494   0.9777
     1.0203   1.0388   1.0466   1.0677   1.1462   1.1557   1.1907   1.2388
     1.2674   1.2991   1.3063   1.3238   1.3433   1.3684   1.3847   1.4449
     1.4654   1.4806   1.5225   1.5320   1.5391   1.5788   1.5831   1.5900
     1.5922   1.6138   1.6501   1.6720   1.7863   1.7919   1.8252   1.8460
     1.8467   1.8693   1.8928   1.9191   1.9299   1.9418   2.0202   2.0454
     2.0674   2.0877   2.2165   2.2321   2.2419   2.2560   2.5846   2.7402
     3.0619   3.3970   3.4669   3.5447   4.0326   4.6208   4.8560   5.1496
     5.5588   5.5602   5.6513   5.7416   5.8712   6.1808   6.4482   6.5143
     6.5649   6.6730   6.9069   6.9304

          k = 0.0000 0.4619 0.0000 ( 92302 PWs)   bands (ev):

   -19.7494 -12.3774  -9.2004  -6.3924  -6.2025  -5.7327  -5.2444  -5.0573
    -4.6763  -4.6685  -4.6156  -4.5248  -4.3014  -4.1491  -4.0340  -3.9996
    -3.9513  -3.9405  -3.8009  -3.7834  -3.7360  -3.7228  -3.7080  -3.6093
    -3.5682  -3.5562  -3.5213  -3.5010  -3.4706  -3.4442  -3.3799  -3.3708
    -3.3647  -3.2512  -3.1364  -3.1074  -3.1063  -3.0930  -3.0828  -3.0661
    -2.9175  -2.8549  -2.8279  -2.8229  -2.8140  -2.7875  -2.6546  -2.6055
    -2.5330  -2.5111  -2.4975  -2.4852  -2.4501  -2.4289  -2.3862  -2.3580
    -2.3434  -2.3089  -2.2747  -2.1586  -2.1512  -2.1329  -2.1069  -2.0285
    -1.9993  -1.9430  -1.9328  -1.9224  -1.7921  -1.7675  -1.7252  -1.7069
    -1.6865  -1.6678  -1.6331  -1.5973  -1.5660  -1.4826  -1.4657  -1.4466
    -1.4136  -1.3491  -1.3390  -1.3279  -1.3198  -1.3014  -1.2550  -1.2317
    -1.2164  -1.2091  -1.2042  -1.1882  -1.1800  -1.1612  -1.1299  -1.0930
    -1.0602  -1.0514  -1.0271  -1.0205  -0.9837  -0.9625  -0.8730  -0.8647
    -0.8332  -0.7907  -0.7703  -0.7578  -0.7369  -0.7135  -0.6853  -0.6282
    -0.5919  -0.5673  -0.5255  -0.4879  -0.4649  -0.4165  -0.3334  -0.3278
    -0.2795  -0.2408  -0.1858  -0.1711  -0.1479  -0.1144  -0.1086  -0.0940
    -0.0520  -0.0292  -0.0183  -0.0043   0.0119   0.0188   0.0546   0.0805
     0.1066   0.1152   0.1962   0.2228   0.2504   0.2679   0.3219   0.4160
     0.4246   0.4458   0.5294   0.5434   0.6259   0.6905   0.7080   0.7340
     0.7697   0.7771   0.7969   0.8153   0.8668   0.8803   0.9155   0.9470
     0.9675   1.0475   1.0542   1.0725   1.0912   1.1099   1.1325   1.2292
     1.2862   1.3113   1.3436   1.3626   1.3822   1.3868   1.4737   1.4893
     1.5028   1.5699   1.5851   1.6171   1.6575   1.6736   1.6818   1.7047
     1.7710   1.8044   1.8242   1.8346   1.8476   1.8692   1.8767   1.8988
     2.0493   2.0607   2.0736   2.0938   2.1167   2.2552   2.3113   2.4781
     2.7178   2.7719   2.8894   3.1260   3.1378   3.3802   3.5198   3.5433
     3.8613   3.9644   4.3406   4.3487   4.3716   4.5264   4.6244   4.6577
     4.7710   4.9857   5.0075   5.1870   5.5919   5.7304   6.0153   6.1807
     6.2796   6.4843   6.6274   6.7909

          k = 0.2000-0.1155 0.0000 ( 92306 PWs)   bands (ev):

   -19.7494 -12.3775  -9.2002  -6.8012  -6.2142  -5.5177  -5.1910  -5.0327
    -4.6428  -4.6343  -4.6086  -4.4227  -4.3831  -4.3346  -4.2828  -4.2776
    -4.0940  -4.0556  -3.9183  -3.9105  -3.8936  -3.8821  -3.6040  -3.4824
    -3.4727  -3.4678  -3.4523  -3.4001  -3.3773  -3.3425  -3.3234  -3.3090
    -3.2941  -3.2601  -3.2363  -3.1878  -3.1756  -3.0985  -3.0843  -3.0600
    -3.0379  -3.0231  -2.8675  -2.8519  -2.8423  -2.8194  -2.8080  -2.7049
    -2.5652  -2.5468  -2.5043  -2.4850  -2.4764  -2.4495  -2.4020  -2.2965
    -2.2379  -2.2041  -2.1798  -2.1516  -2.1338  -2.0949  -1.9244  -1.8591
    -1.8013  -1.7612  -1.7244  -1.7095  -1.6782  -1.6411  -1.6138  -1.5965
    -1.5849  -1.5709  -1.5299  -1.5083  -1.4410  -1.4228  -1.4126  -1.3973
    -1.3450  -1.3316  -1.3190  -1.2936  -1.2512  -1.2240  -1.2116  -1.1489
    -1.1417  -1.1316  -1.1145  -1.0666  -1.0437  -1.0412  -1.0257  -1.0121
    -0.9837  -0.9515  -0.9248  -0.9004  -0.8727  -0.8597  -0.8517  -0.8164
    -0.7969  -0.7824  -0.7539  -0.7374  -0.7128  -0.6347  -0.6154  -0.5955
    -0.5874  -0.5660  -0.5504  -0.5113  -0.5047  -0.4846  -0.4736  -0.4557
    -0.3921  -0.2819  -0.1607  -0.1529  -0.1212  -0.0778  -0.0511  -0.0390
    -0.0272  -0.0190   0.0206   0.1280   0.1350   0.1931   0.2612   0.2899
     0.3301   0.3395   0.3640   0.3916   0.4048   0.4381   0.4468   0.5051
     0.5310   0.5436   0.5584   0.5725   0.7176   0.7281   0.7639   0.7741
     0.8011   0.8253   0.8355   0.9028   0.9247   0.9301   0.9500   0.9997
     1.0197   1.0332   1.0528   1.0790   1.1460   1.1603   1.2019   1.2304
     1.2716   1.2853   1.3062   1.3311   1.3398   1.3677   1.3707   1.4344
     1.4693   1.4719   1.5213   1.5341   1.5502   1.5764   1.5808   1.5914
     1.5955   1.6081   1.6480   1.6713   1.7916   1.7988   1.8290   1.8414
     1.8476   1.8650   1.8978   1.9200   1.9301   1.9493   2.0119   2.0449
     2.0602   2.0728   2.2231   2.2315   2.2477   2.3194   2.5358   2.7340
     3.0920   3.3805   3.4365   3.5714   4.0899   4.5165   4.8550   5.2230
     5.5561   5.5599   5.6797   5.7189   5.8712   6.2026   6.4599   6.5079
     6.5514   6.6563   6.8616   6.9259

          k = 0.2000 0.1155 0.0000 ( 92306 PWs)   bands (ev):

   -19.7494 -12.3775  -9.2001  -6.8013  -6.2147  -5.5147  -5.1891  -5.0318
    -4.6433  -4.6362  -4.6123  -4.4234  -4.3826  -4.3249  -4.2895  -4.2811
    -4.1004  -4.0589  -3.9125  -3.9033  -3.8918  -3.8827  -3.6085  -3.4802
    -3.4763  -3.4661  -3.4551  -3.3895  -3.3785  -3.3610  -3.3216  -3.3025
    -3.2855  -3.2608  -3.2213  -3.1944  -3.1820  -3.0873  -3.0774  -3.0633
    -3.0392  -3.0272  -2.8682  -2.8530  -2.8468  -2.8230  -2.8123  -2.7099
    -2.5724  -2.5500  -2.4994  -2.4848  -2.4662  -2.4462  -2.4071  -2.2920
    -2.2490  -2.1990  -2.1785  -2.1575  -2.1261  -2.0973  -1.9362  -1.8522
    -1.8014  -1.7658  -1.7384  -1.7162  -1.6845  -1.6401  -1.6177  -1.5926
    -1.5776  -1.5666  -1.5113  -1.5003  -1.4456  -1.4297  -1.4228  -1.3998
    -1.3366  -1.3218  -1.2968  -1.2853  -1.2567  -1.2402  -1.2110  -1.1608
    -1.1468  -1.1388  -1.1267  -1.0685  -1.0458  -1.0371  -1.0244  -1.0131
    -0.9797  -0.9654  -0.9232  -0.8867  -0.8756  -0.8588  -0.8557  -0.8136
    -0.8063  -0.7781  -0.7632  -0.7378  -0.6907  -0.6419  -0.6151  -0.5885
    -0.5836  -0.5548  -0.5369  -0.5260  -0.5081  -0.4817  -0.4700  -0.4529
    -0.3956  -0.2593  -0.1757  -0.1654  -0.1176  -0.0828  -0.0526  -0.0337
    -0.0264  -0.0057   0.0251   0.1314   0.1387   0.1903   0.2676   0.2901
     0.3114   0.3508   0.3741   0.3869   0.4199   0.4409   0.4477   0.5046
     0.5350   0.5441   0.5522   0.5635   0.7258   0.7344   0.7608   0.7812
     0.7944   0.8230   0.8359   0.9021   0.9163   0.9389   0.9473   0.9745
     1.0211   1.0331   1.0443   1.0724   1.1448   1.1620   1.1939   1.2384
     1.2745   1.2963   1.3105   1.3302   1.3415   1.3629   1.3840   1.4449
     1.4678   1.4783   1.5204   1.5353   1.5404   1.5772   1.5807   1.5904
     1.5928   1.6062   1.6509   1.6750   1.7860   1.7933   1.8280   1.8414
     1.8469   1.8593   1.8921   1.9176   1.9239   1.9413   2.0204   2.0443
     2.0662   2.0752   2.2208   2.2322   2.2431   2.3226   2.5334   2.7172
     3.0999   3.3955   3.4354   3.5693   4.0823   4.5365   4.8536   5.1939
     5.5580   5.5617   5.6602   5.7324   5.8981   6.1922   6.4105   6.5313
     6.5637   6.6401   6.9086   6.9317

          k = 0.2000 0.3464 0.0000 ( 92356 PWs)   bands (ev):

   -19.7494 -12.3775  -9.2000  -6.5215  -6.2077  -5.3183  -5.2754  -5.2636
    -5.1338  -4.6143  -4.2134  -4.2063  -4.1994  -4.1896  -4.1516  -4.1385
    -4.1247  -4.1185  -4.0205  -4.0091  -3.6544  -3.6342  -3.6274  -3.6181
    -3.5501  -3.5374  -3.4092  -3.3847  -3.3778  -3.3664  -3.3590  -3.2999
    -3.2714  -3.2357  -3.2130  -3.2024  -3.1868  -3.1402  -3.1142  -3.0925
    -3.0656  -3.0454  -2.9639  -2.7520  -2.7062  -2.6296  -2.6175  -2.5995
    -2.5823  -2.5674  -2.5563  -2.5175  -2.4862  -2.4426  -2.3421  -2.3308
    -2.2894  -2.2355  -2.2011  -2.1591  -2.1474  -2.1293  -2.1027  -2.0428
    -1.9266  -1.8923  -1.8704  -1.8124  -1.7773  -1.7703  -1.7518  -1.7287
    -1.6850  -1.6607  -1.6356  -1.5247  -1.5010  -1.4925  -1.4583  -1.4332
    -1.4149  -1.3810  -1.3605  -1.3407  -1.3265  -1.2671  -1.2038  -1.1967
    -1.1890  -1.1746  -1.1629  -1.1395  -1.1251  -1.1026  -1.0787  -1.0480
    -1.0156  -0.9989  -0.9358  -0.9312  -0.9120  -0.8769  -0.8482  -0.8287
    -0.8078  -0.7980  -0.7829  -0.7556  -0.7457  -0.7369  -0.7193  -0.6995
    -0.6515  -0.6440  -0.6324  -0.5634  -0.5379  -0.5115  -0.4664  -0.4278
    -0.3935  -0.3735  -0.3046  -0.2231  -0.1795  -0.0957  -0.0769  -0.0527
    -0.0333  -0.0227   0.0010   0.0285   0.0446   0.0613   0.0810   0.1273
     0.1572   0.1798   0.2883   0.3511   0.3775   0.3899   0.4090   0.4424
     0.4778   0.4875   0.5868   0.5933   0.6090   0.6484   0.6674   0.7205
     0.7874   0.8005   0.8115   0.8377   0.8794   0.9000   0.9121   0.9196
     0.9310   0.9418   0.9519   0.9744   1.0549   1.1400   1.1561   1.2130
     1.2761   1.3194   1.3735   1.4622   1.4711   1.4906   1.5173   1.5769
     1.6018   1.6149   1.6294   1.6463   1.6718   1.6799   1.6908   1.7092
     1.7273   1.7535   1.7671   1.8373   1.8608   1.8694   1.8996   1.9079
     1.9531   2.0371   2.0962   2.1366   2.1542   2.2105   2.2178   2.2650
     2.3501   2.3682   2.6220   2.8902   2.8990   3.2172   3.4230   3.4297
     3.4910   3.7068   4.0874   4.1689   4.3461   4.3613   4.4241   4.9144
     5.0932   5.5421   5.5642   5.7090   5.7891   5.9289   6.1233   6.2239
     6.3144   6.3690   6.4082   6.5578

          k = 0.2000-0.5774 0.0000 ( 92338 PWs)   bands (ev):

   -19.7494 -12.3775  -9.2001  -6.2369  -5.9892  -5.9406  -5.3723  -5.2117
    -4.7496  -4.7092  -4.5974  -4.2225  -4.1995  -4.0679  -4.0349  -3.9369
    -3.9182  -3.8207  -3.8044  -3.7206  -3.7027  -3.6875  -3.6666  -3.6488
    -3.6327  -3.6249  -3.5334  -3.4856  -3.4790  -3.4516  -3.4334  -3.3663
    -3.2844  -3.2607  -3.2238  -3.1700  -3.0969  -3.0854  -3.0725  -3.0557
    -3.0457  -2.9556  -2.9462  -2.8579  -2.8450  -2.7190  -2.6429  -2.6084
    -2.5915  -2.5049  -2.4818  -2.4488  -2.4093  -2.3154  -2.3008  -2.2522
    -2.2478  -2.2114  -2.1858  -2.1623  -2.1328  -2.0479  -2.0356  -2.0187
    -2.0069  -1.9976  -1.9837  -1.9730  -1.9422  -1.8947  -1.8130  -1.7871
    -1.7429  -1.7323  -1.6936  -1.6148  -1.5719  -1.5604  -1.5413  -1.5134
    -1.4846  -1.4642  -1.3898  -1.3835  -1.3685  -1.3505  -1.3303  -1.3063
    -1.2517  -1.2233  -1.2092  -1.1706  -1.1419  -1.1325  -1.1055  -1.0211
    -0.9878  -0.9547  -0.9382  -0.9331  -0.9187  -0.8825  -0.8698  -0.8429
    -0.8302  -0.8189  -0.7998  -0.7892  -0.7414  -0.7337  -0.7246  -0.7124
    -0.7001  -0.6919  -0.6665  -0.6416  -0.6174  -0.5840  -0.4616  -0.3909
    -0.3337  -0.3029  -0.2926  -0.2025  -0.1900  -0.1550  -0.1313  -0.1061
    -0.0936  -0.0697  -0.0509  -0.0300   0.0262   0.0543   0.0690   0.1042
     0.1240   0.1781   0.2020   0.2596   0.3503   0.3957   0.4166   0.4554
     0.4753   0.4988   0.5509   0.5628   0.6002   0.6043   0.6138   0.6584
     0.6679   0.7015   0.7673   0.7823   0.8146   0.8373   0.8564   0.8695
     0.8931   0.9194   1.0004   1.0325   1.1309   1.1548   1.2060   1.2966
     1.3024   1.3206   1.3904   1.4291   1.4359   1.4905   1.5405   1.5997
     1.6196   1.6407   1.6560   1.6663   1.6853   1.7222   1.7483   1.8102
     1.8217   1.8351   1.8516   1.8620   1.8715   1.9238   1.9506   2.0543
     2.0686   2.0857   2.0951   2.1148   2.1576   2.2343   2.2808   2.4074
     2.9542   3.2394   3.2441   3.3699   3.5236   3.6196   3.6395   3.6571
     3.9202   4.2371   4.2521   4.3475   4.7068   4.7149   4.8395   4.8529
     4.8987   5.0494   5.0948   5.1622   5.4365   5.6118   5.6828   5.7747
     6.0367   6.3008   6.3285   6.3689

          k = 0.2000-0.3464 0.0000 ( 92356 PWs)   bands (ev):

   -19.7494 -12.3774  -9.2002  -6.5207  -6.2082  -5.3218  -5.2894  -5.2609
    -5.1216  -4.6148  -4.2179  -4.2088  -4.2016  -4.1873  -4.1456  -4.1380
    -4.1231  -4.1103  -4.0169  -4.0098  -3.6573  -3.6463  -3.6238  -3.6184
    -3.5590  -3.5363  -3.4020  -3.3945  -3.3787  -3.3687  -3.3559  -3.2989
    -3.2532  -3.2334  -3.2113  -3.2035  -3.1896  -3.1408  -3.1118  -3.0934
    -3.0845  -3.0431  -2.9723  -2.7504  -2.6998  -2.6247  -2.6138  -2.5927
    -2.5746  -2.5654  -2.5612  -2.5149  -2.4929  -2.4381  -2.3423  -2.3319
    -2.2974  -2.2313  -2.2029  -2.1580  -2.1493  -2.1307  -2.0825  -2.0525
    -1.9381  -1.8751  -1.8664  -1.8113  -1.7751  -1.7522  -1.7486  -1.7280
    -1.6842  -1.6590  -1.6428  -1.5347  -1.5126  -1.4893  -1.4574  -1.4365
    -1.4105  -1.3822  -1.3598  -1.3356  -1.3341  -1.2455  -1.2141  -1.2000
    -1.1806  -1.1696  -1.1587  -1.1398  -1.1150  -1.0958  -1.0843  -1.0564
    -1.0333  -0.9922  -0.9379  -0.9277  -0.9093  -0.8808  -0.8515  -0.8399
    -0.8129  -0.8006  -0.7721  -0.7599  -0.7455  -0.7328  -0.7170  -0.7019
    -0.6589  -0.6522  -0.6259  -0.5625  -0.5428  -0.5127  -0.4791  -0.4299
    -0.4107  -0.3834  -0.2945  -0.2231  -0.1786  -0.1072  -0.0813  -0.0503
    -0.0352  -0.0198  -0.0056   0.0311   0.0423   0.0646   0.0867   0.1277
     0.1548   0.2046   0.2753   0.3504   0.3766   0.3875   0.4091   0.4335
     0.4710   0.4853   0.5713   0.6023   0.6067   0.6553   0.6704   0.7132
     0.7844   0.8052   0.8273   0.8411   0.8780   0.9037   0.9084   0.9146
     0.9340   0.9484   0.9683   0.9886   1.0387   1.1382   1.1628   1.2054
     1.2756   1.3047   1.3745   1.4585   1.4705   1.4869   1.5226   1.5847
     1.6089   1.6183   1.6351   1.6423   1.6730   1.6786   1.6873   1.7065
     1.7297   1.7520   1.7686   1.8314   1.8538   1.8767   1.8984   1.9074
     1.9523   2.0291   2.1092   2.1465   2.1600   2.2044   2.2223   2.2631
     2.3557   2.3661   2.6147   2.8834   2.9012   3.2151   3.4273   3.4418
     3.5002   3.6971   4.0805   4.1664   4.3493   4.3623   4.4316   4.8966
     5.0884   5.5456   5.5972   5.7370   5.7807   5.8715   6.1471   6.2258
     6.3108   6.3657   6.4165   6.6381

          k = 0.4000-0.2309 0.0000 ( 92302 PWs)   bands (ev):

   -19.7494 -12.3776  -9.1998  -6.3891  -6.2028  -5.7384  -5.2474  -5.0572
    -4.6715  -4.6674  -4.6259  -4.5190  -4.3079  -4.1434  -4.0357  -4.0008
    -3.9442  -3.9403  -3.8038  -3.7737  -3.7387  -3.7202  -3.7132  -3.6130
    -3.5627  -3.5548  -3.5162  -3.5103  -3.4715  -3.4494  -3.3767  -3.3688
    -3.3673  -3.2568  -3.1310  -3.1046  -3.0998  -3.0944  -3.0800  -3.0620
    -2.8930  -2.8516  -2.8334  -2.8228  -2.8187  -2.7800  -2.6769  -2.5915
    -2.5329  -2.5186  -2.5054  -2.4749  -2.4582  -2.4236  -2.3717  -2.3686
    -2.3467  -2.3123  -2.2903  -2.1642  -2.1459  -2.1440  -2.1024  -2.0162
    -1.9824  -1.9399  -1.9257  -1.9119  -1.8231  -1.7719  -1.7236  -1.7057
    -1.6849  -1.6788  -1.6345  -1.5934  -1.5631  -1.4885  -1.4769  -1.4499
    -1.4152  -1.3758  -1.3366  -1.3233  -1.3124  -1.2919  -1.2550  -1.2361
    -1.2129  -1.2108  -1.2030  -1.1938  -1.1772  -1.1628  -1.1295  -1.0888
    -1.0551  -1.0373  -1.0246  -1.0208  -0.9773  -0.9402  -0.8815  -0.8740
    -0.8361  -0.8028  -0.7730  -0.7571  -0.7423  -0.7191  -0.6894  -0.5996
    -0.5833  -0.5649  -0.5231  -0.4979  -0.4641  -0.4222  -0.3381  -0.3281
    -0.2771  -0.2410  -0.2005  -0.1759  -0.1474  -0.1134  -0.1007  -0.0928
    -0.0576  -0.0306  -0.0263  -0.0086   0.0096   0.0133   0.0531   0.0768
     0.1037   0.1200   0.2073   0.2134   0.2480   0.2723   0.3212   0.4045
     0.4183   0.4434   0.5359   0.5443   0.6343   0.6796   0.7092   0.7333
     0.7567   0.7668   0.8079   0.8227   0.8717   0.8961   0.9274   0.9572
     0.9615   1.0443   1.0598   1.0758   1.0907   1.1131   1.1357   1.2132
     1.2902   1.3074   1.3413   1.3621   1.3669   1.3881   1.4692   1.4972
     1.5040   1.5785   1.5872   1.6175   1.6510   1.6669   1.6808   1.6990
     1.7827   1.8007   1.8275   1.8331   1.8541   1.8751   1.8777   1.8988
     2.0473   2.0594   2.0804   2.1022   2.1177   2.2547   2.3111   2.4761
     2.7223   2.7673   2.8732   3.1247   3.1377   3.4188   3.5206   3.5496
     3.8746   3.9521   4.3413   4.3504   4.3845   4.4597   4.6243   4.6605
     4.7696   4.9930   5.0050   5.2586   5.5906   5.6886   6.0630   6.1682
     6.2749   6.5802   6.6617   6.7624

          k = 0.4000-0.0000 0.0000 ( 92356 PWs)   bands (ev):

   -19.7494 -12.3776  -9.1996  -6.5201  -6.2083  -5.3163  -5.2927  -5.2545
    -5.1320  -4.6152  -4.2194  -4.2030  -4.2011  -4.1877  -4.1546  -4.1418
    -4.1234  -4.1080  -4.0201  -4.0069  -3.6525  -3.6359  -3.6280  -3.6167
    -3.5586  -3.5358  -3.4035  -3.3895  -3.3799  -3.3716  -3.3593  -3.2993
    -3.2544  -3.2333  -3.2054  -3.2035  -3.1935  -3.1378  -3.1126  -3.0875
    -3.0596  -3.0456  -2.9736  -2.7581  -2.7096  -2.6339  -2.6135  -2.6038
    -2.5784  -2.5680  -2.5460  -2.5262  -2.4917  -2.4197  -2.3447  -2.3288
    -2.3187  -2.2272  -2.2020  -2.1579  -2.1477  -2.1243  -2.0923  -2.0488
    -1.9414  -1.8816  -1.8633  -1.8114  -1.7796  -1.7612  -1.7514  -1.7316
    -1.6851  -1.6598  -1.6392  -1.5352  -1.5136  -1.4835  -1.4615  -1.4275
    -1.4217  -1.3889  -1.3636  -1.3419  -1.3233  -1.2503  -1.2206  -1.1942
    -1.1834  -1.1666  -1.1606  -1.1450  -1.1287  -1.1051  -1.0874  -1.0499
    -1.0282  -0.9745  -0.9421  -0.9307  -0.9024  -0.8835  -0.8428  -0.8286
    -0.8093  -0.7966  -0.7761  -0.7581  -0.7485  -0.7276  -0.7085  -0.6876
    -0.6621  -0.6487  -0.6334  -0.5600  -0.5432  -0.5141  -0.4612  -0.4350
    -0.4064  -0.3745  -0.3027  -0.2282  -0.1820  -0.0956  -0.0870  -0.0459
    -0.0320  -0.0227  -0.0041   0.0313   0.0411   0.0584   0.0732   0.1301
     0.1682   0.1936   0.2787   0.3450   0.3632   0.3812   0.4165   0.4322
     0.4824   0.4919   0.5708   0.5987   0.6127   0.6552   0.6712   0.7226
     0.7767   0.8072   0.8190   0.8485   0.8883   0.8982   0.9091   0.9216
     0.9353   0.9411   0.9654   0.9827   1.0354   1.1413   1.1570   1.2144
     1.2696   1.2859   1.3951   1.4574   1.4717   1.4875   1.5152   1.5856
     1.6013   1.6106   1.6278   1.6570   1.6701   1.6799   1.6863   1.7112
     1.7415   1.7534   1.7633   1.8282   1.8614   1.8706   1.8958   1.9074
     1.9549   2.0393   2.1042   2.1441   2.1776   2.1949   2.2139   2.2334
     2.3553   2.3710   2.6621   2.8822   2.9041   3.1813   3.4193   3.4411
     3.4572   3.7646   4.0889   4.1648   4.3577   4.3874   4.4230   4.8455
     5.0745   5.5417   5.5552   5.7765   5.8374   5.9263   6.1101   6.2446
     6.3383   6.3611   6.3978   6.6166

          k = 0.4000 0.2309 0.0000 ( 92302 PWs)   bands (ev):

   -19.7494 -12.3776  -9.1994  -6.3908  -6.2024  -5.7335  -5.2325  -5.0721
    -4.6725  -4.6686  -4.6283  -4.5221  -4.2997  -4.1471  -4.0386  -3.9996
    -3.9516  -3.9425  -3.7897  -3.7695  -3.7372  -3.7202  -3.7098  -3.6159
    -3.5680  -3.5583  -3.5140  -3.5022  -3.4726  -3.4519  -3.3800  -3.3721
    -3.3681  -3.2283  -3.1244  -3.1098  -3.1007  -3.0887  -3.0847  -3.0743
    -2.8942  -2.8579  -2.8415  -2.8245  -2.8187  -2.7906  -2.6858  -2.5808
    -2.5271  -2.5203  -2.5052  -2.4842  -2.4499  -2.4271  -2.3869  -2.3696
    -2.3455  -2.3052  -2.2796  -2.1630  -2.1531  -2.1422  -2.1093  -2.0216
    -2.0016  -1.9489  -1.9357  -1.9236  -1.7986  -1.7722  -1.7164  -1.7001
    -1.6947  -1.6735  -1.6302  -1.6010  -1.5681  -1.4740  -1.4685  -1.4492
    -1.4097  -1.3568  -1.3457  -1.3241  -1.3104  -1.2923  -1.2724  -1.2426
    -1.2232  -1.2065  -1.2019  -1.1935  -1.1794  -1.1543  -1.1316  -1.1006
    -1.0557  -1.0489  -1.0281  -1.0189  -1.0023  -0.9436  -0.8719  -0.8631
    -0.8404  -0.7895  -0.7667  -0.7567  -0.7402  -0.7138  -0.6689  -0.5963
    -0.5824  -0.5706  -0.5224  -0.4711  -0.4565  -0.4286  -0.3358  -0.3307
    -0.2877  -0.2444  -0.1953  -0.1717  -0.1530  -0.1168  -0.1086  -0.0998
    -0.0422  -0.0328  -0.0254  -0.0012   0.0185   0.0388   0.0512   0.0798
     0.0975   0.1162   0.2087   0.2253   0.2659   0.2680   0.3229   0.4088
     0.4257   0.4442   0.5329   0.5470   0.6474   0.6733   0.7117   0.7385
     0.7484   0.7665   0.8014   0.8144   0.8672   0.8753   0.9161   0.9501
     0.9611   1.0416   1.0620   1.0738   1.0916   1.1102   1.1356   1.2267
     1.2907   1.3032   1.3439   1.3662   1.3770   1.3889   1.4718   1.4941
     1.5108   1.5787   1.5883   1.6177   1.6555   1.6667   1.6814   1.7012
     1.7820   1.7946   1.8288   1.8342   1.8473   1.8651   1.8690   1.9057
     2.0488   2.0506   2.0739   2.0974   2.1088   2.2556   2.3112   2.4660
     2.7088   2.7748   2.8885   3.1288   3.1371   3.4251   3.5189   3.5551
     3.8598   3.9570   4.3427   4.3498   4.3655   4.4894   4.6140   4.6496
     4.7753   4.9880   5.0111   5.2395   5.6131   5.7115   6.0210   6.1743
     6.2682   6.5000   6.6559   6.7941

          k = 0.4000-0.6928 0.0000 ( 92338 PWs)   bands (ev):

   -19.7494 -12.3776  -9.1994  -6.2349  -5.9842  -5.9476  -5.3751  -5.2017
    -4.7612  -4.7239  -4.5854  -4.2128  -4.2001  -4.0670  -4.0340  -3.9313
    -3.9253  -3.8178  -3.8071  -3.7193  -3.7081  -3.6899  -3.6632  -3.6497
    -3.6430  -3.6269  -3.5175  -3.4847  -3.4810  -3.4478  -3.4352  -3.3657
    -3.2893  -3.2397  -3.2203  -3.1820  -3.0941  -3.0877  -3.0662  -3.0572
    -3.0340  -2.9573  -2.9432  -2.8815  -2.8435  -2.7010  -2.6479  -2.6404
    -2.5653  -2.5075  -2.4820  -2.4448  -2.4159  -2.3292  -2.3031  -2.2474
    -2.2400  -2.2224  -2.1884  -2.1669  -2.1362  -2.0488  -2.0365  -2.0234
    -2.0063  -1.9983  -1.9846  -1.9708  -1.9377  -1.8954  -1.8134  -1.7874
    -1.7465  -1.7296  -1.6901  -1.6150  -1.5831  -1.5635  -1.5434  -1.5154
    -1.4752  -1.4580  -1.3964  -1.3880  -1.3790  -1.3618  -1.3339  -1.3029
    -1.2497  -1.2160  -1.1887  -1.1714  -1.1489  -1.1269  -1.1032  -1.0247
    -0.9858  -0.9555  -0.9380  -0.9298  -0.9155  -0.8906  -0.8714  -0.8399
    -0.8293  -0.8164  -0.8068  -0.7833  -0.7635  -0.7401  -0.7148  -0.7047
    -0.6972  -0.6870  -0.6661  -0.6328  -0.6123  -0.5630  -0.4792  -0.3757
    -0.3427  -0.3009  -0.2949  -0.2063  -0.1904  -0.1532  -0.1316  -0.1079
    -0.0906  -0.0779  -0.0508  -0.0314   0.0272   0.0542   0.0747   0.1086
     0.1406   0.1718   0.2074   0.2471   0.3503   0.3806   0.4182   0.4608
     0.4798   0.4970   0.5529   0.5723   0.5905   0.6088   0.6296   0.6542
     0.6746   0.6971   0.7573   0.7806   0.8187   0.8437   0.8598   0.8704
     0.8951   0.9124   0.9941   1.0294   1.1294   1.1513   1.2186   1.2734
     1.3028   1.3179   1.3873   1.4355   1.4542   1.4784   1.5606   1.5872
     1.6143   1.6415   1.6572   1.6669   1.6933   1.7085   1.7423   1.8084
     1.8190   1.8336   1.8558   1.8729   1.8793   1.9220   1.9634   2.0518
     2.0631   2.0885   2.0973   2.1081   2.1580   2.2143   2.2823   2.4068
     2.9536   3.2395   3.2434   3.4299   3.5172   3.6128   3.6308   3.6607
     3.8582   4.2475   4.2508   4.3911   4.7037   4.7467   4.8316   4.8488
     4.8684   5.0414   5.1265   5.1577   5.3553   5.6375   5.6961   5.8179
     6.0242   6.3170   6.3418   6.4009

          k = 0.4000-0.4619 0.0000 ( 92338 PWs)   bands (ev):

   -19.7494 -12.3776  -9.1997  -6.2314  -5.9859  -5.9528  -5.3674  -5.2140
    -4.7456  -4.7278  -4.5859  -4.2213  -4.2059  -4.0625  -4.0322  -3.9314
    -3.9182  -3.8229  -3.8101  -3.7145  -3.7076  -3.6900  -3.6602  -3.6462
    -3.6438  -3.6215  -3.5207  -3.4903  -3.4781  -3.4538  -3.4377  -3.3628
    -3.3098  -3.2565  -3.2203  -3.1554  -3.0912  -3.0818  -3.0719  -3.0497
    -3.0375  -2.9624  -2.9479  -2.8672  -2.8354  -2.7025  -2.6428  -2.6387
    -2.5613  -2.5186  -2.4837  -2.4471  -2.4162  -2.3343  -2.3047  -2.2592
    -2.2371  -2.2165  -2.1760  -2.1554  -2.1359  -2.0493  -2.0339  -2.0131
    -2.0057  -1.9910  -1.9806  -1.9709  -1.9346  -1.8966  -1.8487  -1.7828
    -1.7477  -1.7223  -1.6707  -1.6181  -1.5864  -1.5605  -1.5507  -1.5146
    -1.4840  -1.4700  -1.3959  -1.3799  -1.3676  -1.3457  -1.3288  -1.3042
    -1.2715  -1.2157  -1.1913  -1.1864  -1.1328  -1.1224  -1.0839  -1.0339
    -0.9890  -0.9530  -0.9353  -0.9300  -0.9157  -0.8887  -0.8793  -0.8426
    -0.8327  -0.8229  -0.8090  -0.7857  -0.7733  -0.7241  -0.7173  -0.7075
    -0.7000  -0.6858  -0.6613  -0.6294  -0.6043  -0.5725  -0.5061  -0.3934
    -0.3332  -0.3016  -0.2960  -0.2075  -0.1854  -0.1574  -0.1304  -0.1089
    -0.0928  -0.0678  -0.0519  -0.0293   0.0274   0.0528   0.0665   0.1201
     0.1314   0.1716   0.1956   0.2444   0.3455   0.3832   0.4225   0.4617
     0.4797   0.4942   0.5600   0.5669   0.5891   0.6088   0.6170   0.6609
     0.6753   0.7028   0.7600   0.7851   0.8212   0.8405   0.8564   0.8711
     0.8930   0.9162   1.0024   1.0391   1.1189   1.1494   1.2177   1.2681
     1.3075   1.3165   1.3853   1.4360   1.4559   1.4816   1.5525   1.5955
     1.6134   1.6337   1.6592   1.6759   1.6788   1.7113   1.7517   1.8145
     1.8211   1.8287   1.8458   1.8724   1.8797   1.9303   1.9527   2.0507
     2.0668   2.0918   2.1026   2.1162   2.1584   2.2256   2.2806   2.4076
     2.9445   3.2406   3.2420   3.4410   3.5069   3.6165   3.6222   3.6587
     3.8581   4.2411   4.2579   4.3970   4.7097   4.7358   4.8340   4.8420
     4.8629   5.0815   5.1544   5.1932   5.2587   5.6511   5.6763   5.7921
     6.1220   6.3107   6.3319   6.3481

     the Fermi energy is     1.8647 ev

!    total energy              =  -27840.88031763 Ry

     total all-electron energy =  -1326952.020806 Ry
     estimated scf accuracy    <       0.00000072 Ry
     smearing contrib. (-TS)   =       0.00100190 Ry
     internal energy E=F+TS    =  -27840.88131953 Ry

     The total energy is F=E-TS. E is the sum of the following terms:
     one-electron contribution =  -29236.11587963 Ry
     hartree contribution      =   14923.72529133 Ry
     xc contribution           =    -911.19923880 Ry
     ewald contribution        =   12879.89586331 Ry
     one-center paw contrib.   =  -25497.18735574 Ry

     convergence has been achieved in  20 iterations

     negative rho (up, down):  1.373E-02 0.000E+00

     Forces acting on atoms (cartesian axes, Ry/au):

     atom    1 type  1   force =     0.00052358    0.00002185   -0.00339368
     atom    2 type  1   force =     0.00002876   -0.00009533   -0.00684791
     atom    3 type  1   force =    -0.00012192    0.00006051   -0.00573382
     atom    4 type  1   force =     0.00064836   -0.00069563   -0.00379912
     atom    5 type  1   force =    -0.00004508   -0.00087145   -0.00305848
     atom    6 type  1   force =     0.00005110   -0.00046163   -0.00326289
     atom    7 type  1   force =     0.00014687    0.00019032   -0.00332694
     atom    8 type  1   force =     0.00052885    0.00058358   -0.00337483
     atom    9 type  1   force =     0.00000770    0.00075746   -0.00314925
     atom   10 type  1   force =     0.00005304    0.00082666   -0.00007105
     atom   11 type  1   force =    -0.00180609    0.00151318    0.00178433
     atom   12 type  1   force =    -0.00132298    0.00275207    0.00923439
     atom   13 type  1   force =    -0.00100022   -0.00085048    0.00298176
     atom   14 type  1   force =     0.00074449   -0.00101519    0.00939155
     atom   15 type  1   force =    -0.00184970   -0.00110326    0.00933735
     atom   16 type  1   force =     0.00006416   -0.00058103    0.00123464
     atom   17 type  1   force =    -0.00090417   -0.00014875   -0.00118273
     atom   18 type  1   force =    -0.00106422   -0.00025511    0.00208905
     atom   19 type  1   force =     0.00050220   -0.00030029    0.00025417
     atom   20 type  1   force =     0.00005351    0.00000685   -0.00006339
     atom   21 type  1   force =    -0.00028069   -0.00035924    0.00017807
     atom   22 type  1   force =    -0.00005180    0.00009928    0.00019286
     atom   23 type  1   force =     0.00026967   -0.00002966   -0.00012781
     atom   24 type  1   force =     0.00017096    0.00049588   -0.00014255
     atom   25 type  1   force =     0.00023890    0.00015785   -0.00010960
     atom   26 type  1   force =     0.00013178    0.00003014   -0.00000835
     atom   27 type  1   force =     0.00022766   -0.00003444   -0.00013172
     atom   28 type  1   force =     0.00063381   -0.00011302    0.00041871
     atom   29 type  1   force =     0.00054460    0.00029219    0.00034363
     atom   30 type  1   force =     0.00056289   -0.00028020    0.00078507
     atom   31 type  1   force =     0.00041629    0.00009228    0.00076753
     atom   32 type  1   force =    -0.00005839    0.00008416    0.00023954
     atom   33 type  1   force =     0.00049809   -0.00013602   -0.00020288
     atom   34 type  1   force =     0.00041629   -0.00041546    0.00047148
     atom   35 type  1   force =     0.00024413    0.00012753    0.00027333
     atom   36 type  1   force =     0.00092954   -0.00018020    0.00039194
     atom   37 type  2   force =    -0.00176601   -0.00101354   -0.00342757
     atom   38 type  2   force =     0.00104842    0.00079128   -0.00072729
     atom   39 type  3   force =    -0.00094536    0.00209632    0.00119054
     atom   40 type  4   force =     0.00004118    0.00010147    0.00027938
     atom   41 type  4   force =     0.00043828    0.00008559    0.00037021
     atom   42 type  4   force =     0.00001558    0.00048362    0.00018398
     atom   43 type  4   force =     0.00012185   -0.00039641    0.00035703
     atom   44 type  4   force =     0.00091413   -0.00231373   -0.00060869

     Total force =     0.006221     Total SCF correction =     0.001111
     SCF correction compared to forces is large: reduce conv_thr to get better values

     negative rho (up, down):  1.373E-02 0.000E+00

     negative rho (up, down):  1.373E-02 0.000E+00

     negative rho (up, down):  1.373E-02 0.000E+00

     negative rho (up, down):  1.373E-02 0.000E+00

     negative rho (up, down):  1.373E-02 0.000E+00

     negative rho (up, down):  1.373E-02 0.000E+00

     negative rho (up, down):  1.373E-02 0.000E+00

     negative rho (up, down):  1.373E-02 0.000E+00

     negative rho (up, down):  1.373E-02 0.000E+00

     negative rho (up, down):  1.373E-02 0.000E+00

     negative rho (up, down):  1.373E-02 0.000E+00

     negative rho (up, down):  1.373E-02 0.000E+00

     negative rho (up, down):  1.373E-02 0.000E+00

     negative rho (up, down):  1.373E-02 0.000E+00

     negative rho (up, down):  1.373E-02 0.000E+00

     negative rho (up, down):  1.373E-02 0.000E+00

     negative rho (up, down):  1.373E-02 0.000E+00

     negative rho (up, down):  1.373E-02 0.000E+00

     negative rho (up, down):  1.373E-02 0.000E+00

     negative rho (up, down):  1.373E-02 0.000E+00

     negative rho (up, down):  1.373E-02 0.000E+00

     negative rho (up, down):  1.373E-02 0.000E+00

     negative rho (up, down):  1.373E-02 0.000E+00

     negative rho (up, down):  1.373E-02 0.000E+00

     negative rho (up, down):  1.373E-02 0.000E+00

     negative rho (up, down):  1.373E-02 0.000E+00

     negative rho (up, down):  1.373E-02 0.000E+00

     negative rho (up, down):  1.373E-02 0.000E+00

     negative rho (up, down):  1.373E-02 0.000E+00

     negative rho (up, down):  1.373E-02 0.000E+00

     negative rho (up, down):  1.373E-02 0.000E+00

     negative rho (up, down):  1.373E-02 0.000E+00

     negative rho (up, down):  1.373E-02 0.000E+00

     negative rho (up, down):  1.373E-02 0.000E+00
 BEEFens 2000 ensemble energies
             -0.610265521226377E+02
             -0.362769148374096E+01
             -0.159033058074609E+02
              0.431819201135440E+02
             -0.222318556379540E+02
             -0.206181589491915E+02
             -0.354881809472065E+02
             -0.870173910235308E+02
             -0.466977611365848E+02
             -0.474706578906266E+02
             -0.371295534233929E+02
              0.231825917048255E+01
              0.409075821510069E+01
              0.759411741618078E+01
              0.267775337356994E+01
              0.477502669362605E+02
             -0.209835438469480E+02
             -0.230712339824765E+02
              0.194170258518058E+02
             -0.112991454395750E+03
              0.539433645034984E+02
             -0.290856489891843E+02
             -0.337458687362824E+01
             -0.114606943425322E+02
             -0.881832174439683E+01
             -0.465317721843630E+01
              0.887506241749228E+02
             -0.188546426253291E+02
             -0.904552574475838E+01
             -0.521469706294724E+02
              0.819127925884929E+02
             -0.187473675767703E+02
             -0.377134956690845E+02
              0.250203742301782E+02
             -0.285941799851173E+01
              0.165609646771693E+02
             -0.484590634304328E+01
              0.108094358597003E+02
              0.290425776110715E+02
             -0.103803914838047E+03
              0.561452787836516E+02
              0.143122572357129E+02
             -0.179110502374806E+01
             -0.363130897389728E+02
              0.123846181414831E+02
             -0.147886049855167E+02
              0.401075163091239E+02
              0.366687243813458E+02
             -0.309106321133953E+02
             -0.276725413234113E+02
             -0.330074770492093E+02
             -0.354191759180663E+02
              0.137578992293363E+02
             -0.493654849560642E+02
              0.116511376608958E+02
              0.626471397862580E+02
              0.639467789465561E+02
              0.357631889895991E+02
              0.154944725936745E+02
              0.272380603255580E+02
              0.896461267316399E+02
              0.213392418602800E+02
             -0.551523317006975E+02
             -0.157585158852510E+02
             -0.237479372827967E+02
              0.633136000398773E+02
             -0.777265522610749E+02
             -0.675010238635728E+02
             -0.261373285242392E+02
             -0.659271334757921E+01
             -0.472829865440239E+02
              0.272190594805025E+02
              0.807440450704974E+01
              0.875822262057505E+01
             -0.399389015589790E+02
             -0.348787840765954E+02
             -0.545137773028378E+02
              0.391979856144602E+02
             -0.297878476865806E+02
              0.267053134466780E+02
             -0.720809239198502E+01
             -0.319488686807052E+02
             -0.578887959959645E+02
             -0.177397639254980E+02
             -0.912962613835543E+01
             -0.125398834074462E+02
              0.414415717683499E+02
              0.687114186153307E+02
             -0.388064649829939E+02
             -0.798932883622402E+02
             -0.220625057691072E+02
              0.112089786283666E+03
             -0.595604974025317E+02
              0.357802048254465E+02
             -0.964196729116259E+01
             -0.666333843880713E+02
              0.255816016115103E+02
              0.399670399941252E+02
             -0.199710213725375E+02
              0.401843088329108E+02
             -0.297225487094586E+02
             -0.481537117557828E+02
              0.871257800381408E+02
              0.456365682507837E+02
              0.337694227683503E+02
              0.147113186065451E+02
              0.207073715271480E+02
              0.860883946006412E+02
             -0.258155882830820E+02
              0.790131394502505E+01
             -0.143139383233305E+03
              0.182002758065271E+02
             -0.719768848678781E+02
              0.151716920020093E+02
              0.205822929138834E+02
             -0.334941400044705E+02
             -0.559908071413835E+02
              0.653965852253555E+01
             -0.305858427476564E+02
              0.310241358749935E+02
             -0.532433598202710E+02
              0.167300053064173E+01
             -0.358951639841068E+02
             -0.425754371508623E+01
             -0.100896464739805E+01
              0.182582471060704E+02
              0.142173359315825E+01
             -0.654192091853713E+01
              0.594072026956128E+02
              0.913267974352680E+02
              0.486844660279010E+02
              0.833869587543695E+02
             -0.115785433475183E+02
              0.143469304257552E+02
              0.543936572346764E+02
             -0.110595079918313E+02
             -0.739985970032974E+02
             -0.386569956160015E+02
             -0.524469144955204E+02
             -0.278270421300657E+02
              0.328707103270694E+02
             -0.117431228182095E+03
             -0.187960503161279E+02
              0.416546642015857E+02
             -0.388323205747328E+02
             -0.366929233688938E+02
              0.547455628742293E+02
              0.403180284843359E+02
             -0.355657797072159E+02
              0.139501465488900E+02
             -0.274685864940849E+02
              0.345150928216967E+02
              0.447782178941463E+01
              0.211641340454681E+02
             -0.889228971743646E+02
             -0.482703766313388E+02
             -0.100109062164070E+02
              0.319897329947782E+01
             -0.369077466693751E+02
              0.106617053922314E+03
             -0.231667178777996E+02
             -0.400268170901273E+02
              0.390838978537822E+02
             -0.496606075094048E+02
             -0.365394629423397E+02
              0.326575362966184E+02
              0.125199501269860E+02
              0.165346233210826E+02
              0.117496229707570E+02
             -0.133432037629275E+02
              0.225752795110348E+02
              0.593207483903025E+02
             -0.313037325200181E+02
              0.163545603048397E+02
              0.939308026621767E+02
              0.342524731412562E+02
             -0.731872965400430E+01
             -0.189766534472591E+02
              0.154188450286927E+03
             -0.165432565708261E+02
              0.365372818591213E+02
              0.196066732657893E+02
              0.363001168772955E+02
              0.896867422949025E+02
              0.545429336938175E+02
             -0.242007528996521E+01
              0.229162052792980E+02
              0.487645001556473E+02
              0.365554109082512E+02
             -0.528867276108272E+02
              0.941068946055951E+02
             -0.830290112985429E+02
             -0.198625290629189E+02
              0.585776105154081E+02
              0.686207137393051E+01
              0.792335266213900E+01
              0.342271021094061E+02
              0.300104809688710E+02
              0.355445390895355E+02
             -0.640916192306104E+02
              0.288086177698654E+01
             -0.298913272266362E+02
             -0.872823828698199E+01
             -0.147383826262114E+01
             -0.730371644586831E+01
             -0.418551956716925E+01
              0.863841479496426E+02
             -0.101375015682818E+02
             -0.277841146276231E+02
             -0.496878551106545E+01
              0.140716006383318E+02
             -0.567349879117764E+02
             -0.410295727288720E+02
             -0.383877830262974E+02
             -0.633663985921568E+02
             -0.170662203690343E+02
             -0.449684539742903E+02
              0.164314358352250E+02
             -0.237867259972546E+01
             -0.105163518286940E+02
             -0.938550497379427E+01
              0.810270103987000E+01
             -0.243341066244919E+02
              0.692938944358038E+02
             -0.811992988031951E+02
             -0.141856249264121E+02
             -0.174719958786622E+02
              0.182746114956712E+02
              0.215778199456724E+02
             -0.466400850372556E+02
             -0.202546346343806E+02
              0.443312633947465E+02
             -0.277201173323190E+02
              0.187860077840575E+02
              0.384604123048815E+02
             -0.323205957367543E+01
              0.114745101497412E+03
             -0.230554569325102E+02
             -0.342694121610824E+02
              0.578944204951478E+01
             -0.229717567373380E+02
              0.530562298089257E+02
             -0.339814918824349E+02
              0.107205171034624E+02
              0.643279859131514E+02
             -0.126986758042003E+02
              0.120873993396633E+03
              0.126563277081661E+03
             -0.653527105723595E+02
              0.593713080112870E+02
              0.167802299546191E+02
             -0.520816345513867E+02
              0.216986714349340E+02
              0.356370001528232E+02
              0.365241439326144E+02
              0.135864205958217E+01
              0.160719111556621E+02
              0.699932623474682E+02
             -0.248212599867948E+02
              0.181938705924316E+02
              0.742627517233857E+02
             -0.374438722595975E+02
             -0.131049320837620E+02
              0.511797106093832E+02
              0.299030850503592E+02
              0.784269727344102E+02
              0.224526947367228E+02
              0.633266677484499E+01
              0.281781054038299E+02
              0.385564313289094E+02
             -0.474854209199631E+02
              0.336964021259467E+01
              0.131397252668375E+02
              0.114416533201829E+02
              0.221884859044712E+02
             -0.578276311482592E+02
              0.367691513066591E+02
             -0.446141556218234E+02
             -0.349213126458996E+02
              0.179241058587374E+02
             -0.181859023335583E+02
              0.558333593034874E+02
             -0.256690192128571E+02
              0.268417842353695E+02
              0.369817086013989E+02
              0.833357552869025E+02
              0.577507533044375E+02
              0.464525153406559E+02
             -0.105494144552106E+02
             -0.397232147186173E+01
             -0.333802024528266E+02
              0.755096676936813E+02
              0.801514877199847E+02
              0.364072690889814E+02
             -0.193524565991483E+02
              0.514463373370597E+02
             -0.162801334868878E+02
              0.215599274949089E+02
              0.618186105490677E+02
              0.212600644859523E+01
             -0.104906698751277E+02
             -0.283929896294885E+02
             -0.515101930130907E+02
              0.950599744347331E+02
              0.442725080482558E+02
             -0.562574639904163E+02
             -0.974548327406694E+01
              0.251174012515135E+02
             -0.100163659252557E+02
              0.595639018935885E+02
              0.152871395854810E+02
              0.803508508430917E+02
              0.281400152371396E+02
             -0.265053013705582E+02
              0.249844582850425E+02
             -0.505307068629156E+01
             -0.324901065250721E+02
              0.134008565830942E+02
              0.206395901900876E+02
              0.937941954550884E+02
              0.801527438250619E+02
              0.554130586624444E+02
              0.734164851293483E+02
              0.805110342001444E+01
             -0.275087685846737E+02
              0.163896709111319E+02
             -0.369738181011394E+02
             -0.479430118234427E+02
             -0.566608372076453E+02
             -0.268307820111550E+02
             -0.110280166064043E+03
             -0.293467753918681E+02
             -0.842101698692452E+02
              0.211332822274721E+02
             -0.479498706999248E+02
              0.399566508667264E+02
             -0.946893814643920E+02
             -0.331723664030052E+02
              0.550521399128045E+02
              0.208797787413992E+02
             -0.835619722053141E+02
              0.633803407262650E+02
             -0.258374784562516E+02
              0.515405280676290E+02
             -0.243835882836351E+02
             -0.755662471462323E+02
              0.112762076570973E+02
             -0.614932697146111E+02
             -0.168302139938179E+02
             -0.150407766836426E+01
              0.420404119713702E+02
              0.127694855593489E+03
             -0.464000256230640E+02
             -0.364563199576351E+02
             -0.100700402224061E+01
             -0.130784152644814E+02
             -0.826944945679834E+02
             -0.599795065187204E+02
              0.519786656527477E+02
             -0.289999833394601E+02
              0.170534027846369E+02
             -0.492013645259159E+02
             -0.132852709101028E+02
             -0.439449083226554E+02
              0.568255594760959E+02
              0.151478329566207E+02
             -0.232946828822080E+02
             -0.128006209608091E+02
              0.674522481091842E+01
             -0.623479954971987E+01
              0.443785212661717E+02
             -0.253366499997073E+02
              0.285195206516903E+01
              0.341289172283323E+02
              0.171851720809618E+02
             -0.161181834416081E+02
              0.157102541465993E+03
              0.541369515175200E+02
              0.121648377081488E+01
              0.161911637583571E+02
             -0.618204053690089E+02
              0.316813856520719E+02
             -0.726018636706257E+02
             -0.253878611285348E+02
             -0.525837554991058E+02
             -0.221118277244368E+02
              0.572458821160642E+02
             -0.540173476185101E+02
              0.162383629449487E+02
             -0.411579265596208E+01
              0.387803528884027E+01
             -0.435606760807277E+02
             -0.480586323189549E+02
             -0.405011195400959E+01
             -0.426622688151841E+02
             -0.218293438998820E+02
             -0.440735173329385E+02
             -0.119628538267136E+02
             -0.360790247404494E+02
             -0.519214306918603E+02
              0.213852908385532E+02
             -0.209894284382491E+02
              0.189164662124019E+02
              0.979463529532474E+01
             -0.742211029096739E+02
             -0.550853008407947E+02
             -0.401003077978777E+02
              0.355946736305202E+02
              0.267175441858453E+01
             -0.629967447178756E+02
              0.588952117410498E+02
             -0.403427904744172E+02
              0.548149713910078E+02
             -0.291405233691411E+02
             -0.448578554197767E+02
              0.299654190119560E+02
             -0.661567348036066E+02
             -0.381718119942836E+02
              0.675906615278428E+02
              0.205112006597044E+02
             -0.362725745653540E+02
              0.492530563292438E+02
             -0.175023686063182E+02
             -0.324999104009339E+02
             -0.303424260989657E+02
             -0.503454484128702E+02
              0.250961746026258E+02
             -0.937906155889714E+02
             -0.844407755912840E+02
             -0.739884125658966E+01
             -0.308415452060053E+02
             -0.578970822770269E+02
              0.725947621329872E+02
              0.132280910521860E+03
             -0.362187155771230E+02
             -0.257947221467629E+01
             -0.640387569480851E+02
              0.654167661296606E+02
              0.171958805396313E+02
             -0.183036984967483E+02
             -0.412015159410802E+02
              0.149463879037966E+02
             -0.589345838144620E+02
             -0.198605120551687E+02
             -0.909376032236540E+02
              0.338983673076054E+02
              0.169503932741810E+02
              0.181618428587171E+01
             -0.713070528731816E+01
             -0.332095061973905E+02
             -0.765805090823915E+01
              0.126275364150572E+03
             -0.199877682610378E+02
             -0.440250688390926E+02
             -0.687791306318043E+02
              0.110069860011380E+02
             -0.344342372319774E+02
              0.597426584441715E+01
              0.263301061481929E+02
              0.102490375793527E+02
              0.279830248208182E+02
              0.120882600161109E+02
              0.632827222104295E+02
              0.318108914866597E+02
             -0.328616260587991E+02
              0.358679550274406E+02
              0.381374927740328E+02
              0.121533128020352E+02
              0.489200546240137E+02
             -0.226572506521040E+02
              0.769662742071735E+02
              0.173789186556585E+02
             -0.274032623573001E+02
             -0.726679069897689E+01
             -0.187389756448837E+02
              0.262752779158300E+02
             -0.235713063128264E+02
             -0.192482376213263E+00
             -0.856827045890520E+01
              0.814145105980224E+02
              0.503228087627803E+02
             -0.690480710841600E+02
             -0.481364543414904E+01
             -0.558130770539377E+02
             -0.160132000009144E+02
             -0.269539661166644E+02
              0.381868276180683E+01
              0.584471958426601E+00
             -0.259212380456046E+02
              0.823985320019565E+01
             -0.607423007125357E+01
             -0.128919351844802E+02
              0.863756435061222E+02
              0.182614350146690E+02
             -0.811693715543255E+02
             -0.460474425531223E+02
              0.950369824126019E+02
              0.279261459285578E+02
             -0.107288655061619E+02
              0.105167346530546E+03
             -0.195582822841153E+02
             -0.123478275042552E+02
             -0.545334162029781E+01
              0.108318249180063E+02
              0.274335068492407E+02
              0.782159094185948E+01
              0.306907028395456E+02
             -0.188530359769896E+02
             -0.306036478300951E+02
             -0.420163334980427E+02
             -0.479540874746220E+02
              0.466214683744769E+02
              0.127583702426663E+02
              0.389743991632179E+02
              0.134334546254045E+02
              0.860636686512732E+02
              0.157558016056589E+02
             -0.850397675985067E+02
             -0.336291463701116E+02
              0.133929092192343E+02
             -0.304336013754078E+02
              0.630118463000779E+02
             -0.895274644773735E+01
              0.149672166978145E+02
              0.500282978734218E+02
             -0.711702841314268E+02
              0.150554812082744E+03
              0.209821591263357E+02
              0.272651499108596E+02
              0.349750237255477E+02
              0.104036929453002E+02
             -0.156554745008577E+01
              0.360190816649808E+02
             -0.359213732919321E+02
              0.778098031596856E+02
              0.689080918111540E+02
             -0.408295168542433E+02
              0.150486222462703E+02
              0.674195130193166E+02
             -0.225059009741445E+02
              0.155464406569965E+02
              0.436950223869279E+02
              0.424438367990593E+02
             -0.789039362687460E+02
             -0.153125262727169E+02
             -0.357657271623116E+02
             -0.151533780048072E+01
             -0.770449359409333E+01
             -0.539835538027569E+01
             -0.181268075379799E+02
             -0.295710356794377E+02
              0.643728841589889E+01
              0.112066096361623E+02
              0.538646082870999E+02
             -0.392885894744749E+02
              0.377116664814416E+02
              0.441248599986947E+02
             -0.187044152190487E+02
              0.876552761254328E+02
             -0.701664670250617E+02
             -0.103760909711982E+03
             -0.664658479115855E+01
             -0.273521585167020E+01
              0.384734276342249E+01
              0.793974893461738E+02
             -0.107165537797090E+02
              0.419124069626986E+02
              0.446938327324410E+02
              0.387387968842571E+02
             -0.999870069147516E+01
              0.630717747059736E+02
             -0.134551245841637E+02
             -0.309611856465060E+02
             -0.481418654397029E+02
              0.594216560101212E+01
              0.371389920933959E+02
             -0.603528912905264E+01
              0.394791161071016E+02
             -0.175286294326025E+01
              0.658397601530855E+02
              0.188194385541732E+02
              0.100317700916498E+02
             -0.121721022764053E+02
              0.333845151897712E+02
              0.364818513086072E+02
              0.233509239704064E+02
             -0.526914903632928E+00
             -0.553643284056343E+02
              0.262453391413980E+02
              0.176340910185780E+02
              0.404429150240831E+02
              0.273902710240019E+02
              0.374518981736197E+02
             -0.608932334778788E+01
              0.253038897502560E+02
             -0.300171569075953E+02
             -0.198690960160025E+01
             -0.572149650593149E+02
             -0.309746329889917E+02
              0.381096649279983E+02
             -0.940587679552208E+02
              0.295786683487917E+02
              0.184826045587928E+02
              0.845035225832054E+02
             -0.301201660752045E+02
              0.331347835267546E+02
             -0.138313217307563E+02
             -0.466750402807341E+02
             -0.765196986846335E+02
             -0.534863609916852E+01
             -0.865065616161333E+02
              0.200165672990427E+02
             -0.248657198595930E+02
              0.307662125362347E+02
              0.238337357655837E+02
             -0.242844944290808E+02
             -0.267202084212765E+02
              0.393250884916719E+02
             -0.591666155313489E+02
             -0.117517274302085E+02
             -0.197090567355714E+02
              0.214276617373834E+02
             -0.887465314044829E+01
              0.364210864515329E+01
             -0.201523807319822E+02
              0.561795429374633E+02
             -0.442934048112469E+02
              0.792032299940593E+01
              0.588871900059253E+02
             -0.325503662095108E+02
              0.362923929575348E+01
             -0.880059645990241E+01
             -0.673022215229183E+02
             -0.484584078444715E+02
             -0.862135586773315E+01
              0.242469921024273E+02
              0.304301055196606E+02
              0.862915576277783E+01
             -0.420918086859217E+01
              0.152832281082645E+02
             -0.442101190166882E+02
              0.329879522749405E+01
             -0.534067686071807E+02
             -0.326338758423914E+02
              0.477581518873616E+02
             -0.296817289723707E+02
              0.626435356144682E+02
             -0.216125227965529E+02
              0.355512648196702E+02
              0.243181132256258E+02
             -0.647526589326192E+02
             -0.281797092840803E+02
              0.938006315637435E+01
             -0.374209822938647E+02
             -0.341811120176334E+02
             -0.834951835082625E+02
             -0.542390648458849E+02
             -0.513317894122121E+02
             -0.418117579970428E+02
             -0.983009988514340E+00
              0.100860109766404E+02
              0.110609159326941E+01
              0.154806674964446E+02
             -0.552578547259105E+02
              0.142732379867515E+02
              0.258457690734508E+02
             -0.670609709964255E+02
             -0.705279513153598E+02
             -0.433596683148118E+02
             -0.173850802706689E+02
              0.179341695538337E+02
              0.453402438676301E+01
             -0.428230759572343E+02
              0.367785988545390E+02
             -0.217506423915032E+02
              0.520320131285690E+02
             -0.892226965282957E+02
              0.601437675796429E+02
             -0.219909003698519E+01
             -0.370875165841421E+02
             -0.217797285486021E+02
              0.471828688032268E+01
              0.377372258945435E+02
             -0.760340029971160E+02
             -0.121439498536461E+02
             -0.217709639204742E+02
              0.513424785557504E+02
              0.869423923613287E+02
             -0.970942720564196E+02
              0.949169152965655E+02
              0.469852711324183E+02
             -0.729718190373707E+02
             -0.368330349424624E+02
              0.756409362105300E+02
              0.635176370182872E+02
             -0.182433903914737E+02
             -0.467435136610504E+01
              0.742327018665588E+01
              0.653494800432404E+02
[...]
              0.284680423390384E+02
              0.142532571335762E+03
              0.244139224340561E+02
              0.123539641266700E+02
             -0.466881288306493E+02
             -0.640845197220232E+02
             -0.189750733396700E+02
              0.331375567107551E+02
             -0.430927706426098E+01
              0.191483933734892E+02
              0.338083949596862E+02
             -0.589608383737075E+02
              0.223939367248869E+02
              0.583846945602544E+02
              0.555841862148471E+02
             -0.424135152493795E+01
             -0.133510567783833E+01
             -0.997635763317939E+01
             -0.484738768493621E+02
             -0.678844891179781E+02
              0.789612342220883E+02
             -0.528611501332776E+01
             -0.590788579392146E+02
              0.175872525509973E+01
             -0.206845034312714E+02
              0.943134841134389E+02
             -0.217777739342670E+02
             -0.355618460987580E+02
              0.337263075601227E+02
             -0.146706679725444E+02
              0.392100194027026E+02
             -0.234473737369933E+01
              0.101580938808882E+03
              0.492593494416576E+02
             -0.504449773670022E+01
             -0.324068082444069E+02
              0.233882301485481E+02
             -0.531458900887290E+02
             -0.128191961001800E+02
              0.589089041377900E+02
             -0.289148666098307E+02
             -0.440633143376537E+02
             -0.224480392579849E+02
              0.521333365132053E+02
              0.125357008086736E+02
             -0.853185163378848E+02
              0.305726358146169E+02
              0.152456733625839E+02
              0.583597804964757E+01
             -0.516070704986363E+02
             -0.373512205014021E+01
              0.324878212358294E+02
              0.515198859513103E+02
              0.636238245697708E+02
              0.230803751192413E+02
              0.791153967573109E+00
             -0.501021517700318E+02
             -0.512368923872463E+02
             -0.751284886066470E+02
             -0.624170966425322E+01
              0.310797687978820E+02
             -0.378975564652944E+01
              0.549571074536509E+02
             -0.319779948722398E+02
              0.167316963825746E+02
             -0.103871292890537E+02
             -0.291097149162569E+02
              0.588849385519057E+02
              0.794782464167912E+01
              0.607746338947712E+02
              0.512348031339457E+01
              0.266061058867857E+02
             -0.193550101552116E+02
              0.589336910317195E+02
             -0.112461351468673E+02
             -0.117772447048127E+00
             -0.794302315597049E+02
             -0.128719590513147E+02
              0.722739493266570E+02
              0.676503673506650E+02
              0.253317394396013E+02
             -0.131260836165182E+02
              0.347636010194151E+01
             -0.174775311397938E+02
             -0.216479243804793E+01
              0.912692939358712E+02
              0.128122715479321E+01
             -0.192019006548895E+02
             -0.111316820161641E+03
             -0.554854581020539E+02
             -0.377062484900366E+02
             -0.661877775117226E+02
             -0.558756394288069E+02
             -0.686299157383291E+02
             -0.449573604734822E+02
             -0.412340391127789E+02
             -0.454500687887884E+02
              0.485935130086651E+02
             -0.295011558172766E+02
             -0.999690797429148E+02
              0.421127430404790E+02
             -0.261808217654758E+02
             -0.795048896640624E+02
              0.949125740917020E+02
             -0.221116343442324E+02
              0.228809950289185E+02
              0.457072951647231E+02
             -0.126775458000014E+01
              0.255836310337193E+02
              0.470958226828452E+01
              0.418423639613074E+00
             -0.151415576937354E+02
             -0.719791741204619E+02
              0.133821475274725E+02
             -0.130020736491764E+03
              0.628103358155373E+02
             -0.442867209276025E+02
             -0.163945735774390E+02
             -0.159188284229115E+02
              0.725767758180601E+01
             -0.228502021468535E+02
              0.298525807376730E+02
             -0.523655046624079E+02
              0.369042871675419E+02
              0.373296447538485E+02
              0.168778092189002E+02
              0.101139248077293E+02
              0.198982502992877E+02
              0.628167032751105E+01
              0.311792156485217E+02
             -0.801978238294126E+01
             -0.596389184270887E+02
              0.762558456004223E+01
             -0.154320351933011E+02
             -0.196154377819147E+01
              0.509332998833337E+02
             -0.831042470603782E+02
             -0.147251897058152E+01
              0.591293290558497E+00
              0.100056853813483E+02
              0.320066570370476E+02
             -0.124239198430484E+02
              0.840093298922313E+02
              0.489585146977736E+02
             -0.183981058601408E+02
             -0.959462349031793E+01
              0.109601419875122E+01
              0.773602802847445E+02
             -0.588794114362009E+02
             -0.106299142011320E+03
              0.310778457830256E+02
             -0.163736552349168E+02
             -0.140420637324602E+02
              0.131530357276829E+02
              0.772522617683939E+02
              0.466446472969446E+02
             -0.154272492617541E+02
             -0.505893753045086E+02
             -0.555822332123135E+01
              0.307895534478228E+02
             -0.112538315731156E+02
             -0.759739234026285E+02
             -0.276686099038469E+01
             -0.895138827661492E+02
             -0.478335856961124E+02
              0.773164125109817E+02
             -0.486345199799731E+02
             -0.640370539235115E+02
             -0.517107710916518E+02
             -0.351859140418511E+02
              0.342854890208063E+02
              0.826127794265295E+02
             -0.362910140851932E+01
              0.277974119400516E+02
             -0.184924369081229E+02
             -0.697631237665648E+02
              0.467730690189492E+02
             -0.447653899608483E+02
              0.322991957514578E+02
              0.377759544942194E+02
             -0.663811863271866E+01
              0.392343119722731E+02
              0.440373241737255E+02
              0.101308255821248E+03
             -0.156439942078250E+02
             -0.459164754109885E+02
             -0.616200430249097E+02
             -0.124920687630401E+02
             -0.235148930009962E+02
              0.103504420156316E+03
             -0.451441330535084E+02
              0.105723267666027E+02
              0.972234553546190E+01
             -0.265655177950759E+02
             -0.803541232363744E+02
             -0.703012013900525E+01
              0.985170430513335E+02
              0.949903788663104E+01
              0.812305582483464E+01
             -0.530216525508259E+02
             -0.608327689888922E+02
             -0.572741923311143E+01
              0.502771266569803E+02
             -0.223315173575464E+02
              0.108503528562858E+03
             -0.438286221658121E+02
              0.147363157678093E+02
             -0.224715487225974E+02
             -0.721811246073028E+02
              0.171620499961529E+01
             -0.504582794028081E+02
             -0.764498988064498E+02
              0.622955555770636E+01
              0.237013105364878E+01
              0.516797464724669E+02
              0.188669808123716E+02
             -0.325471719016058E+02
              0.231178637446063E+02
             -0.815795526809924E+02
             -0.524156841929163E+02
              0.906610694682908E+02
              0.142508423892591E+02
             -0.188213529131723E+02
             -0.353737697804294E+02
             -0.271384643682222E+01
             -0.592994168335679E+01
              0.835228894351445E+02
              0.419982249436397E+02
             -0.166399829781528E+02
             -0.121784945964765E+02
             -0.429584924456860E+02
             -0.201314593629919E+02
             -0.673190894594847E+02
              0.462422472107451E+02
              0.550293581934221E+01
              0.145262239845379E+02
              0.157154395762045E+02
             -0.632056527358579E+00
             -0.169630282808249E+02
             -0.302455971828518E+01
             -0.101023607734160E+03
             -0.230556975746900E+02
             -0.771120313554331E+01
             -0.951568566499819E+01
              0.548831497934469E+02
              0.627361067186789E+02
              0.165728748433813E+02
             -0.975522133789872E+02
              0.650805819128987E+02
             -0.216171232924909E+02
             -0.379005030151652E+02
             -0.868859150430893E+02
             -0.388283344874278E+02
              0.567985804441990E+02
              0.246124442530378E+02
              0.521725326055127E+01
              0.294168240331605E+02
             -0.567857918379878E+02
             -0.424958020431874E+02
              0.518540536258614E+02
              0.389325754248791E+02
              0.521342083173249E+02
             -0.116189600661974E+01
              0.691517938556393E+01
              0.572264334172947E+02
              0.967935146939029E+02
             -0.301093382108065E+02
              0.325123745600222E+02
             -0.120321203934611E+02
             -0.414470296089949E+02
             -0.316264044814305E+02
             -0.302091598644570E+02
             -0.132083652435765E+02
             -0.525874356318449E+02
             -0.218128588345141E+02
             -0.141861763084137E+03
              0.370608240397659E+02
              0.208152520461422E+02
             -0.396319468989299E+01
             -0.382039323782390E+02
             -0.205139852251224E+02
             -0.529854648260610E+02
              0.151575636999173E+02
              0.824213774868426E+02
             -0.253142864910824E+02
             -0.163993132918649E+02
              0.239218776504559E+02
             -0.492126567317971E+02
              0.884947031634523E+02
              0.155150926149233E+02
              0.226615359490847E+02
              0.492858209594503E+02
              0.316286382472072E+01
              0.545095498700106E+02
              0.144083848997710E+02
             -0.106552045082900E+02
              0.737345213796959E+01
              0.722854848874022E+00
              0.730561199137063E+02
              0.101607549700528E+02
              0.121680422387785E+02
             -0.130626486348012E+02
              0.132978038497985E+02
             -0.916059598822233E+02
             -0.327700841048223E+02
             -0.459961718675257E+02
              0.487742661070433E+02
             -0.292911287582688E+02
             -0.661376237262888E+02
              0.541667983812081E+02
             -0.122632797792428E+02
              0.442181890962367E+02
             -0.903427388141911E+02
              0.232900885700051E+02
              0.859117104932866E+01
              0.586643752372458E+01
             -0.839174223706704E+01
             -0.908011686875375E+01
              0.482058843715387E+02
              0.200713876196789E+01
             -0.477910290335689E+02
             -0.177246665573695E+02
              0.277611500751486E+02
             -0.118535540368539E+03
             -0.934298966798402E+02
              0.396329685906198E+01
              0.118522272641897E+02
             -0.415895561782731E+02
             -0.388633051374165E+01
              0.112640174822691E+03
              0.307961639522281E+02
             -0.574350464082593E+02
              0.929629265978531E+01
             -0.969746265993059E+01
              0.106378295755177E+02
             -0.339622899621622E+02
              0.196687882361040E+02
              0.285894361033845E+02
             -0.303221391405117E+01
              0.108768206781254E+03
             -0.140482911485468E+02
             -0.317611890905887E+02
              0.144583344071859E+02
              0.468775223853553E+02
             -0.357526011567617E+02
             -0.318200489158576E+01
              0.969956093238528E+02
             -0.464654762321459E+01
              0.624508083107817E+02
              0.136285685390241E+02
             -0.904650487132440E+01
             -0.306202583063671E+02
              0.569092564486637E+02
             -0.517333921661237E+02
             -0.221326578123728E+01
             -0.171053667537196E+02
             -0.407294460439309E+02
              0.185647233360819E+02
              0.240687614196221E+02
              0.116106408694443E+02
              0.712635957703242E+00
             -0.386707556965177E+02
              0.216095861646513E+02
             -0.674686645953437E+01
             -0.247576467874501E+02
             -0.211614835871938E+02
              0.204021306021744E+02
             -0.598593395264061E+01
             -0.351195676906562E+02
             -0.107205678157636E+03
              0.103397638474527E+02
              0.249522409086667E+02
             -0.389899060831168E+02
             -0.212232778587194E+02
              0.811424101997448E+02
              0.658693251290890E+01
              0.313195286695480E+02
              0.396880801727940E+01
              0.324001870858334E+02
              0.648486969409055E+01
             -0.375045298442316E+02
             -0.240113590366641E+01
              0.878930729469675E+01
              0.275579689612927E+02
              0.785735425220282E+02
              0.509968487138226E+02
              0.202874884626738E+00
              0.169980927705298E+02
              0.616394141357415E+02
              0.237397780495001E+02
             -0.756409452803620E+02
             -0.275169650025771E+02
              0.151592581356401E+02
              0.566954623159825E+01
              0.256349997738438E+02
             -0.550429561649254E+02
              0.901303915934834E+01
              0.388267334262113E+02
              0.500543285862500E+02
             -0.437132771378089E+02
             -0.688239220259635E+01
             -0.210057026558968E+01
             -0.134824169199105E+02
             -0.366852241356184E+02
             -0.215927565346180E+02
             -0.209762048070732E+01
              0.798812413068708E+01
              0.423590442570737E+02
             -0.309962601373155E+02
              0.830382038712420E+02
              0.329297734804717E+02
              0.221278094029163E+02
              0.335044587681300E+02
              0.324418483082557E+02
              0.348158135372340E+02
              0.540043411254933E+02
             -0.436343401113683E+02
              0.622890696383332E+02
             -0.112876814528177E+03
              0.309000361610237E+02
             -0.107082547581959E+03
              0.858906786961820E+02
              0.694770859213813E+02
             -0.110332018219922E+02
             -0.495655854480322E+02
             -0.431805428535879E+02
             -0.626317762246335E+02
             -0.632181680946951E+02
              0.554795237683007E+02
              0.407716529977953E+02
              0.238061290039974E+02
              0.375105778909617E+02
              0.405602231104618E+02
             -0.384226004266277E+02
             -0.198657886835916E+02
              0.589382105852663E+02
             -0.116754811283943E+02
              0.554500742144623E+02
              0.703494227975449E+02
             -0.557416847293695E+01
             -0.710231970038820E+02
             -0.853767883712862E+00
             -0.247012399857691E+01
             -0.888312136024842E+01
             -0.179551488110440E+01
             -0.656304185429693E+02
             -0.211088204511370E+02
              0.546266397288103E+01
              0.907502787497975E+01
              0.471593961664043E+02
             -0.400042325165438E+02
              0.660026516552382E+02
             -0.427368362215491E+02
              0.211923648769528E+02
              0.352581004064938E+02
 
 BEEF-vdW xc energy contributions
           1 :   -786.683196790215     
           2 :    722.420566863967     
           3 :   -611.257614739131     
           4 :    480.542063112795     
           5 :   -357.945762419855     
           6 :    263.333807557192     
           7 :   -204.324285483249     
           8 :    176.318933476610     
           9 :   -166.562076696174     
          10 :    160.328956406086     
          11 :   -146.729245447209     
          12 :    121.947187686703     
          13 :   -89.0797958728701     
          14 :    55.2018293899581     
          15 :   -27.3570254177395     
          16 :    9.28991374047291     
          17 :  -0.175062337358327     
          18 :   -4.41153888675365     
          19 :    9.99125240614239     
          20 :   -20.4645955386129     
          21 :    36.4282539869712     
          22 :   -55.1931589712310     
          23 :    72.3194296706708     
          24 :   -83.8299313718007     
          25 :    88.0204957198509     
          26 :   -86.0717104508473     
          27 :    81.2758466170665     
          28 :   -77.3448338855233     
          29 :    76.6510083364092     
          30 :   -79.2315023832748     
          31 :   -86.3277559580048     
          32 :   -66.0953797382233     

     Writing output data file ./pwscf.save/
 
     init_run     :    356.94s CPU    361.56s WALL (       1 calls)
     electrons    :  14833.94s CPU  14977.84s WALL (       1 calls)
     forces       :    106.45s CPU    107.87s WALL (       1 calls)

     Called by init_run:
     wfcinit      :    308.95s CPU    312.50s WALL (       1 calls)
     potinit      :     44.48s CPU     44.82s WALL (       1 calls)
     hinit0       :      1.50s CPU      1.54s WALL (       1 calls)

     Called by electrons:
     c_bands      :  12332.13s CPU  12442.32s WALL (      21 calls)
     sum_band     :   1770.90s CPU   1786.31s WALL (      21 calls)
     v_of_rho     :    113.19s CPU    117.77s WALL (      21 calls)
     newd         :     34.94s CPU     48.62s WALL (      21 calls)
     PAW_pot      :    140.69s CPU    140.72s WALL (      21 calls)
     mix_rho      :    487.30s CPU    488.21s WALL (      21 calls)
     vdW_kernel   :     33.47s CPU     33.47s WALL (       1 calls)

     Called by c_bands:
     init_us_2    :     86.21s CPU     86.52s WALL (     572 calls)
     cegterg      :  11464.22s CPU  11573.26s WALL (     273 calls)

     Called by *egterg:
     cdiaghg      :    119.07s CPU    119.13s WALL (    1859 calls)
     h_psi        :   7411.97s CPU   7450.47s WALL (    1885 calls)
     s_psi        :   1212.10s CPU   1212.36s WALL (    1885 calls)
     g_psi        :     17.30s CPU     17.33s WALL (    1599 calls)

     Called by h_psi:
     h_psi:calbec :   1138.10s CPU   1138.67s WALL (    1885 calls)
     vloc_psi     :   5033.91s CPU   5036.25s WALL (    1885 calls)
     add_vuspsi   :   1211.93s CPU   1212.23s WALL (    1885 calls)

     General routines
     calbec       :   1661.42s CPU   1662.23s WALL (    2210 calls)
     fft          :     52.64s CPU     52.68s WALL (    3281 calls)
     ffts         :    156.34s CPU    156.39s WALL (   10210 calls)
     fftw         :   5123.39s CPU   5125.11s WALL (  351154 calls)
 
     Parallel routines
 
     PWSCF        :      4h16m CPU      4h19m WALL

 
   This run was terminated on:   2:53:54   4Jan2023            

=------------------------------------------------------------------------------=
   JOB DONE.
=------------------------------------------------------------------------------=
