
     Program PWSCF v.6.7MaX starts on  3Jan2023 at 22:36:26 

     This program is part of the open-source Quantum ESPRESSO suite
     for quantum simulation of materials; please cite
         "P. Giannozzi et al., J. Phys.:Condens. Matter 21 395502 (2009);
         "P. Giannozzi et al., J. Phys.:Condens. Matter 29 465901 (2017);
          URL http://www.quantum-espresso.org", 
     in publications or presentations arising from this work. More details at
     http://www.quantum-espresso.org/quote

     Parallel version (MPI), running on     1 processors

     MPI processes distributed on     1 nodes
     Reading input from ch2chch2-mono-ensemble.in
Warning: card &CELL ignored
Warning: card / ignored

     Current dimensions of program PWSCF are:
     Max number of different atomic species (ntypx) = 10
     Max number of k-points (npk) =  40000
     Max angular momentum in pseudopotentials (lmaxx) =  3
     file Pt.pbe-n-kjpaw_psl.1.0.0.UPF: wavefunction(s)  6S 5D renormalized
     file C.pbe-n-kjpaw_psl.1.0.0.UPF: wavefunction(s)  2S 2P renormalized
     file H.pbe-kjpaw_psl.1.0.0.UPF: wavefunction(s)  1S renormalized

     **************************************************************************
     Initializing libbeef V0.1.2 with the BEEF-vdW functional.
     Citation: Wellendorff et al., PRB 85, 235149 (2012).
     **************************************************************************


     IMPORTANT: XC functional enforced from input :
     Exchange-correlation= BEEF-VDW
                           (   1   4  43  14   2   0   0)
     Any further DFT definition will be discarded
     Please, verify this is what you really want


     Subspace diagonalization in iterative solution of the eigenvalue problem:
     a serial algorithm will be used

 
     G-vector sticks info
     --------------------
     sticks:   dense  smooth     PW     G-vecs:    dense   smooth      PW
     Sum        4267    4267   1159               729851   729851  102883
 


     bravais-lattice index     =            0
     lattice parameter (alat)  =      16.0349  a.u.
     unit-cell volume          =   11619.6485 (a.u.)^3
     number of atoms/cell      =           44
     number of atomic types    =            3
     number of electrons       =       377.00
     number of Kohn-Sham states=          227
     kinetic-energy cutoff     =      60.0000  Ry
     charge density cutoff     =     240.0000  Ry
     scf convergence threshold =      1.0E-06
     mixing beta               =       0.7000
     number of iterations used =            8  local-TF  mixing
     Exchange-correlation= BEEF-VDW
                           (   1   4  43  14   2   0   0)

     celldm(1)=  16.034858  celldm(2)=   0.000000  celldm(3)=   0.000000
     celldm(4)=   0.000000  celldm(5)=   0.000000  celldm(6)=   0.000000

     crystal axes: (cart. coord. in units of alat)
               a(1) = (   1.000000   0.000000   0.000000 )  
               a(2) = (   0.500000   0.866025   0.000000 )  
               a(3) = (   0.000000   0.000000   3.254371 )  

     reciprocal axes: (cart. coord. in units 2 pi/alat)
               b(1) = (  1.000000 -0.577350  0.000000 )  
               b(2) = (  0.000000  1.154701  0.000000 )  
               b(3) = (  0.000000  0.000000  0.307279 )  


     PseudoPot. # 1 for Pt read from file:
     /users/bkreitz1/quantum-espresso/potentials/Pt.pbe-n-kjpaw_psl.1.0.0.UPF
     MD5 check sum: 04dc8a03c51ece93fc7b5889c2958091
     Pseudo is Projector augmented-wave + core cor, Zval = 10.0
     Generated using 'atomic' code by A. Dal Corso  v.6.7MaX
     Shape of augmentation charge: PSQ
     Using radial grid of 1277 points,  6 beta functions with: 
                l(1) =   0
                l(2) =   0
                l(3) =   1
                l(4) =   1
                l(5) =   2
                l(6) =   2
     Q(r) pseudized with 0 coefficients 


     PseudoPot. # 2 for C  read from file:
     /users/bkreitz1/quantum-espresso/potentials/C.pbe-n-kjpaw_psl.1.0.0.UPF
     MD5 check sum: a169b0ebad56f5ec0d79c4633f80bf22
     Pseudo is Projector augmented-wave + core cor, Zval =  4.0
     Generated using 'atomic' code by A. Dal Corso  v.6.7MaX
     Shape of augmentation charge: PSQ
     Using radial grid of 1073 points,  4 beta functions with: 
                l(1) =   0
                l(2) =   0
                l(3) =   1
                l(4) =   1
     Q(r) pseudized with 0 coefficients 


     PseudoPot. # 3 for H  read from file:
     /users/bkreitz1/quantum-espresso/potentials/H.pbe-kjpaw_psl.1.0.0.UPF
     MD5 check sum: ae98473e6dc62675f0d0baffdab24f65
     Pseudo is Projector augmented-wave, Zval =  1.0
     Generated using 'atomic' code by A. Dal Corso  v.6.7MaX
     Shape of augmentation charge: PSQ
     Using radial grid of  929 points,  2 beta functions with: 
                l(1) =   0
                l(2) =   0
     Q(r) pseudized with 0 coefficients 


     atomic species   valence    mass     pseudopotential
        Pt            10.00   195.08400     Pt( 1.00)
        C              4.00    12.01100     C ( 1.00)
        H              1.00     1.00800     H ( 1.00)

     No symmetry found



   Cartesian axes

     site n.     atom                  positions (alat units)
         1           Pt  tau(   1) = (   0.0000000   0.0000000   1.0017346  )
         2           Pt  tau(   2) = (   0.3333333   0.0000000   1.0017346  )
         3           Pt  tau(   3) = (   0.6666667   0.0000000   1.0017346  )
         4           Pt  tau(   4) = (   0.1666667   0.2886751   1.0017346  )
         5           Pt  tau(   5) = (   0.5000000   0.2886751   1.0017346  )
         6           Pt  tau(   6) = (   0.8333333   0.2886751   1.0017346  )
         7           Pt  tau(   7) = (   0.3333333   0.5773503   1.0017346  )
         8           Pt  tau(   8) = (   0.6666667   0.5773503   1.0017346  )
         9           Pt  tau(   9) = (   1.0000000   0.5773503   1.0017346  )
        10           Pt  tau(  10) = (   0.1666667   0.0962250   1.2739001  )
        11           Pt  tau(  11) = (   0.5000000   0.0962250   1.2739001  )
        12           Pt  tau(  12) = (   0.8333333   0.0962250   1.2739001  )
        13           Pt  tau(  13) = (   0.3333333   0.3849002   1.2739001  )
        14           Pt  tau(  14) = (   0.6666667   0.3849002   1.2739001  )
        15           Pt  tau(  15) = (   1.0000000   0.3849002   1.2739001  )
        16           Pt  tau(  16) = (   0.5000000   0.6735753   1.2739001  )
        17           Pt  tau(  17) = (   0.8333333   0.6735753   1.2739001  )
        18           Pt  tau(  18) = (   1.1666667   0.6735753   1.2739001  )
        19           Pt  tau(  19) = (   0.0013716   0.1928853   1.5412279  )
        20           Pt  tau(  20) = (   0.3367070   0.1943870   1.5470301  )
        21           Pt  tau(  21) = (   0.6664777   0.1938597   1.5460779  )
        22           Pt  tau(  22) = (   0.1681195   0.4816272   1.5419465  )
        23           Pt  tau(  23) = (   0.5012406   0.4794950   1.5467858  )
        24           Pt  tau(  24) = (   0.8344647   0.4814460   1.5419021  )
        25           Pt  tau(  25) = (   0.3345792   0.7698850   1.5419981  )
        26           Pt  tau(  26) = (   0.6680655   0.7705091   1.5412566  )
        27           Pt  tau(  27) = (   1.0013163   0.7707494   1.5422875  )
        28           Pt  tau(  28) = (   0.0033816   0.0009927   1.8160215  )
        29           Pt  tau(  29) = (   0.3360871   0.0005506   1.8160213  )
        30           Pt  tau(  30) = (   0.6703624   0.0010315   1.8161057  )
        31           Pt  tau(  31) = (   0.1696681   0.2893421   1.8159462  )
        32           Pt  tau(  32) = (   0.5045704   0.2896967   1.8418640  )
        33           Pt  tau(  33) = (   0.8376224   0.2894712   1.8154756  )
        34           Pt  tau(  34) = (   0.3364353   0.5780243   1.8171194  )
        35           Pt  tau(  35) = (   0.6710572   0.5797956   1.8150543  )
        36           Pt  tau(  36) = (   1.0030794   0.5786997   1.8153024  )
        37           C   tau(  37) = (   0.5090423   0.2893156   2.0927135  )
        38           C   tau(  38) = (   0.4205723   0.4261179   2.1504987  )
        39           C   tau(  39) = (   0.2696893   0.4192618   2.2011835  )
        40           H   tau(  40) = (   0.6342932   0.2932597   2.1207343  )
        41           H   tau(  41) = (   0.4566032   0.1766749   2.1252578  )
        42           H   tau(  42) = (   0.4826048   0.5382425   2.1540205  )
        43           H   tau(  43) = (   0.2087118   0.5230223   2.2435699  )
        44           H   tau(  44) = (   0.2045805   0.3091512   2.2017162  )

     number of k points=    13  Marzari-Vanderbilt smearing, width (Ry)=  0.0200
                       cart. coord. in units 2pi/alat
        k(    1) = (   0.0000000   0.0000000   0.0000000), wk =   0.0800000
        k(    2) = (   0.0000000   0.2309401   0.0000000), wk =   0.1600000
        k(    3) = (   0.0000000   0.4618802   0.0000000), wk =   0.1600000
        k(    4) = (   0.2000000  -0.1154701   0.0000000), wk =   0.1600000
        k(    5) = (   0.2000000   0.1154701   0.0000000), wk =   0.1600000
        k(    6) = (   0.2000000   0.3464102   0.0000000), wk =   0.1600000
        k(    7) = (   0.2000000  -0.5773503   0.0000000), wk =   0.1600000
        k(    8) = (   0.2000000  -0.3464102   0.0000000), wk =   0.1600000
        k(    9) = (   0.4000000  -0.2309401   0.0000000), wk =   0.1600000
        k(   10) = (   0.4000000  -0.0000000   0.0000000), wk =   0.1600000
        k(   11) = (   0.4000000   0.2309401   0.0000000), wk =   0.1600000
        k(   12) = (   0.4000000  -0.6928203   0.0000000), wk =   0.1600000
        k(   13) = (   0.4000000  -0.4618802   0.0000000), wk =   0.1600000

     Dense  grid:   729851 G-vectors     FFT dimensions: (  80,  80, 270)

     Estimated max dynamical RAM per process >       8.89 GB

     Check: negative core charge=   -0.000002

     Initial potential from superposition of free atoms

     starting charge  376.99372, renormalised to  377.00000

     negative rho (up, down):  1.123E-02 0.000E+00


     %%%%%%%%%%%%%%%%%%%%%%%%%%%%%%%%%%%%%%%%%%%%%%%%%%%%%%%%%%%%%%%%%%%%%%%%
     %                                                                      %
     % You are using vdW-DF, which was implemented by the Thonhauser group. %
     % Please cite the following two papers that made this development      %
     % possible and the two reviews that describe the various versions:     %
     %                                                                      %
     %   T. Thonhauser et al., PRL 115, 136402 (2015).                      %
     %   T. Thonhauser et al., PRB 76, 125112 (2007).                       %
     %   K. Berland et al., Rep. Prog. Phys. 78, 066501 (2015).             %
     %   D.C. Langreth et al., J. Phys.: Condens. Matter 21, 084203 (2009). %
     %                                                                      %
     %                                                                      %
     % If you are calculating the stress with vdW-DF, please also cite:     %
     %                                                                      %
     %   R. Sabatini et al., J. Phys.: Condens. Matter 24, 424209 (2012).   %
     %                                                                      %
     %%%%%%%%%%%%%%%%%%%%%%%%%%%%%%%%%%%%%%%%%%%%%%%%%%%%%%%%%%%%%%%%%%%%%%%%


     Starting wfcs are  341 randomized atomic wfcs
     Checking if some PAW data can be deallocated... 

     total cpu time spent up to now is      358.2 secs

     Self-consistent Calculation

     iteration #  1     ecut=    60.00 Ry     beta= 0.70
     Davidson diagonalization with overlap
     ethr =  1.00E-02,  avg # of iterations =  2.7

     negative rho (up, down):  1.302E-02 0.000E+00

     total cpu time spent up to now is     1023.3 secs

     total energy              =  -27816.68105506 Ry
     estimated scf accuracy    <       4.25091963 Ry

     iteration #  2     ecut=    60.00 Ry     beta= 0.70
     Davidson diagonalization with overlap
     ethr =  1.13E-03,  avg # of iterations =  2.2

     negative rho (up, down):  1.050E-02 0.000E+00

     total cpu time spent up to now is     1697.7 secs

     total energy              =  -27817.15537990 Ry
     estimated scf accuracy    <       1.13838764 Ry

     iteration #  3     ecut=    60.00 Ry     beta= 0.70
     Davidson diagonalization with overlap
     ethr =  3.02E-04,  avg # of iterations =  7.8

     negative rho (up, down):  6.627E-03 0.000E+00

     total cpu time spent up to now is     2479.4 secs

     total energy              =  -27817.26603811 Ry
     estimated scf accuracy    <       0.50029923 Ry

     iteration #  4     ecut=    60.00 Ry     beta= 0.70
     Davidson diagonalization with overlap
     ethr =  1.33E-04,  avg # of iterations =  7.2

     negative rho (up, down):  4.631E-03 0.000E+00

     total cpu time spent up to now is     3244.3 secs

     total energy              =  -27817.33085552 Ry
     estimated scf accuracy    <       0.13863115 Ry

     iteration #  5     ecut=    60.00 Ry     beta= 0.70
     Davidson diagonalization with overlap
     ethr =  3.68E-05,  avg # of iterations =  8.2

     negative rho (up, down):  2.979E-03 0.000E+00

     total cpu time spent up to now is     4130.5 secs

     total energy              =  -27817.35164769 Ry
     estimated scf accuracy    <       0.05718696 Ry

     iteration #  6     ecut=    60.00 Ry     beta= 0.70
     Davidson diagonalization with overlap
     c_bands:  2 eigenvalues not converged
     c_bands:  1 eigenvalues not converged
     c_bands:  2 eigenvalues not converged
     ethr =  1.52E-05,  avg # of iterations =  9.4

     negative rho (up, down):  2.572E-03 0.000E+00

     total cpu time spent up to now is     4902.1 secs

     total energy              =  -27817.35787714 Ry
     estimated scf accuracy    <       0.02082512 Ry

     iteration #  7     ecut=    60.00 Ry     beta= 0.70
     Davidson diagonalization with overlap
     c_bands:  2 eigenvalues not converged
     ethr =  5.52E-06,  avg # of iterations = 10.2

     negative rho (up, down):  2.491E-03 0.000E+00

     total cpu time spent up to now is     5676.4 secs

     total energy              =  -27817.35943215 Ry
     estimated scf accuracy    <       0.00878459 Ry

     iteration #  8     ecut=    60.00 Ry     beta= 0.70
     Davidson diagonalization with overlap
     c_bands:  1 eigenvalues not converged
     c_bands:  1 eigenvalues not converged
     ethr =  2.33E-06,  avg # of iterations = 13.4

     negative rho (up, down):  2.721E-03 0.000E+00

     total cpu time spent up to now is     6496.6 secs

     total energy              =  -27817.36060501 Ry
     estimated scf accuracy    <       0.00465456 Ry

     iteration #  9     ecut=    60.00 Ry     beta= 0.70
     Davidson diagonalization with overlap
     ethr =  1.23E-06,  avg # of iterations =  8.8

     negative rho (up, down):  3.751E-03 0.000E+00

     total cpu time spent up to now is     7209.4 secs

     total energy              =  -27817.36097371 Ry
     estimated scf accuracy    <       0.00200999 Ry

     iteration # 10     ecut=    60.00 Ry     beta= 0.70
     Davidson diagonalization with overlap
     ethr =  5.33E-07,  avg # of iterations =  8.9

     negative rho (up, down):  4.496E-03 0.000E+00

     total cpu time spent up to now is     7955.8 secs

     total energy              =  -27817.36118993 Ry
     estimated scf accuracy    <       0.00084579 Ry

     iteration # 11     ecut=    60.00 Ry     beta= 0.70
     Davidson diagonalization with overlap
     ethr =  2.24E-07,  avg # of iterations =  4.0

     negative rho (up, down):  5.571E-03 0.000E+00

     total cpu time spent up to now is     8671.6 secs

     total energy              =  -27817.36131372 Ry
     estimated scf accuracy    <       0.00066445 Ry

     iteration # 12     ecut=    60.00 Ry     beta= 0.70
     Davidson diagonalization with overlap
     ethr =  1.76E-07,  avg # of iterations =  1.5

     negative rho (up, down):  7.279E-03 0.000E+00

     total cpu time spent up to now is     9266.8 secs

     total energy              =  -27817.36134031 Ry
     estimated scf accuracy    <       0.00053125 Ry

     iteration # 13     ecut=    60.00 Ry     beta= 0.70
     Davidson diagonalization with overlap
     ethr =  1.41E-07,  avg # of iterations =  1.5

     negative rho (up, down):  9.885E-03 0.000E+00

     total cpu time spent up to now is     9856.2 secs

     total energy              =  -27817.36132797 Ry
     estimated scf accuracy    <       0.00021679 Ry

     iteration # 14     ecut=    60.00 Ry     beta= 0.70
     Davidson diagonalization with overlap
     ethr =  5.75E-08,  avg # of iterations =  2.2

     negative rho (up, down):  1.080E-02 0.000E+00

     total cpu time spent up to now is    10525.3 secs

     total energy              =  -27817.36133229 Ry
     estimated scf accuracy    <       0.00008849 Ry

     iteration # 15     ecut=    60.00 Ry     beta= 0.70
     Davidson diagonalization with overlap
     ethr =  2.35E-08,  avg # of iterations =  4.0

     negative rho (up, down):  1.226E-02 0.000E+00

     total cpu time spent up to now is    11245.0 secs

     total energy              =  -27817.36133632 Ry
     estimated scf accuracy    <       0.00006047 Ry

     iteration # 16     ecut=    60.00 Ry     beta= 0.70
     Davidson diagonalization with overlap
     ethr =  1.60E-08,  avg # of iterations =  2.0

     negative rho (up, down):  1.232E-02 0.000E+00

     total cpu time spent up to now is    11887.3 secs

     total energy              =  -27817.36134405 Ry
     estimated scf accuracy    <       0.00001916 Ry

     iteration # 17     ecut=    60.00 Ry     beta= 0.70
     Davidson diagonalization with overlap
     ethr =  5.08E-09,  avg # of iterations =  4.0

     negative rho (up, down):  1.219E-02 0.000E+00

     total cpu time spent up to now is    12652.1 secs

     total energy              =  -27817.36135113 Ry
     estimated scf accuracy    <       0.00000721 Ry

     iteration # 18     ecut=    60.00 Ry     beta= 0.70
     Davidson diagonalization with overlap
     ethr =  1.91E-09,  avg # of iterations =  4.0

     negative rho (up, down):  1.233E-02 0.000E+00

     total cpu time spent up to now is    13372.2 secs

     total energy              =  -27817.36135254 Ry
     estimated scf accuracy    <       0.00000257 Ry

     iteration # 19     ecut=    60.00 Ry     beta= 0.70
     Davidson diagonalization with overlap
     ethr =  6.81E-10,  avg # of iterations =  4.2

     negative rho (up, down):  1.232E-02 0.000E+00

     total cpu time spent up to now is    14094.2 secs

     End of self-consistent calculation

          k = 0.0000 0.0000 0.0000 ( 91161 PWs)   bands (ev):

   -13.3740 -10.4773  -7.4018  -6.9233  -5.6411  -5.2891  -4.5661  -4.5250
    -4.5165  -4.5141  -4.5031  -4.4937  -4.4811  -4.4784  -4.2301  -3.9677
    -3.9579  -3.9537  -3.9509  -3.9397  -3.9376  -3.5090  -3.4913  -3.4877
    -3.4770  -3.4760  -3.4678  -3.3417  -3.2804  -3.2678  -3.2627  -3.2598
    -3.2568  -3.1535  -3.0460  -3.0375  -3.0339  -3.0321  -3.0275  -3.0222
    -3.0199  -3.0172  -2.9980  -2.9892  -2.9691  -2.9610  -2.6272  -2.4291
    -2.4185  -2.4116  -2.3866  -2.3710  -2.3568  -2.3328  -2.3314  -2.3008
    -2.2870  -2.2259  -2.1912  -2.1658  -2.1071  -1.9885  -1.6660  -1.6060
    -1.5997  -1.5831  -1.5710  -1.5604  -1.5219  -1.4264  -1.4251  -1.4204
    -1.4182  -1.3966  -1.3853  -1.3805  -1.3745  -1.3684  -1.3553  -1.3469
    -1.3415  -1.3135  -1.3121  -1.2874  -1.2047  -1.1918  -1.1876  -1.1816
    -1.1665  -1.0912  -1.0318  -1.0146  -1.0128  -0.9849  -0.9741  -0.9640
    -0.9288  -0.9256  -0.8740  -0.8657  -0.8198  -0.8144  -0.7566  -0.7551
    -0.7172  -0.7166  -0.6794  -0.6685  -0.6221  -0.5714  -0.5613  -0.5525
    -0.5339  -0.5054  -0.3302  -0.1437  -0.1027  -0.0981  -0.0707  -0.0596
    -0.0540  -0.0517  -0.0071   0.0054   0.0070   0.0441   0.0828   0.0848
     0.1060   0.1549   0.2289   0.2453   0.2544   0.3070   0.3170   0.3721
     0.3928   0.4084   0.4276   0.4310   0.4414   0.5320   0.6578   0.6594
     0.6728   0.6795   0.6799   0.7012   0.7424   0.7527   0.9200   0.9270
     0.9352   0.9448   0.9521   1.0115   1.0944   1.0970   1.1056   1.1151
     1.1171   1.1303   1.1349   1.1431   1.1490   1.1564   1.1752   1.2328
     1.2605   1.2662   1.2697   1.2815   1.2897   1.2986   1.3245   1.3722
     1.3783   1.3832   1.3859   1.4046   1.4134   1.4196   1.4293   1.4933
     1.4977   1.5137   1.5176   1.5215   1.5369   1.5391   1.6097   1.6190
     1.6220   1.6426   1.6462   1.7509   1.8157   1.8356   1.9173   1.9260
     1.9525   1.9583   1.9623   1.9687   2.2424   2.7598   2.8173   2.8243
     2.8290   2.8428   2.9553   3.9331   5.0615   5.1072   5.1259   5.1545
     5.1791   5.6412   5.7836   6.3662   6.5820   6.7130   6.7475   6.7567
     6.7692   6.7722   6.8170

          k = 0.0000 0.2309 0.0000 ( 91168 PWs)   bands (ev):

   -13.3739 -10.4774  -7.4019  -6.7765  -5.4998  -5.2859  -5.0162  -4.6236
    -4.6143  -4.4193  -4.3683  -4.3165  -4.2779  -4.2622  -4.2216  -4.0765
    -4.0369  -3.8965  -3.8872  -3.8753  -3.8679  -3.5854  -3.4640  -3.4541
    -3.4395  -3.4335  -3.3887  -3.3631  -3.3304  -3.3024  -3.2851  -3.2694
    -3.2309  -3.1954  -3.1744  -3.1453  -3.0785  -3.0617  -3.0334  -3.0134
    -3.0007  -2.8431  -2.8291  -2.8240  -2.8001  -2.7813  -2.6456  -2.5450
    -2.5296  -2.5183  -2.4580  -2.4466  -2.4006  -2.3815  -2.2790  -2.2271
    -2.2196  -2.1639  -2.1500  -2.1182  -2.0982  -2.0281  -1.8675  -1.7848
    -1.7712  -1.7267  -1.7088  -1.6683  -1.6221  -1.5913  -1.5841  -1.5601
    -1.5517  -1.5360  -1.4909  -1.4359  -1.4121  -1.4039  -1.3845  -1.3168
    -1.3011  -1.2980  -1.2402  -1.2321  -1.2094  -1.1597  -1.1328  -1.1232
    -1.1112  -1.1092  -1.0503  -1.0240  -1.0135  -1.0113  -0.9854  -0.9531
    -0.9274  -0.8894  -0.8710  -0.8465  -0.8350  -0.8304  -0.7922  -0.7848
    -0.7629  -0.7393  -0.7154  -0.6290  -0.6020  -0.5809  -0.5679  -0.5524
    -0.5351  -0.5266  -0.4950  -0.4828  -0.4626  -0.4459  -0.3900  -0.3486
    -0.1839  -0.1423  -0.0966  -0.0667  -0.0514  -0.0309  -0.0147  -0.0054
     0.0032   0.1301   0.1546   0.1861   0.2243   0.2869   0.3157   0.3323
     0.3662   0.4015   0.4144   0.4433   0.4632   0.5085   0.5292   0.5562
     0.5644   0.5784   0.5866   0.7448   0.7609   0.7877   0.7986   0.8168
     0.8472   0.8618   0.9187   0.9370   0.9665   0.9703   1.0291   1.0429
     1.0568   1.0677   1.0859   1.1643   1.1725   1.1903   1.2685   1.2880
     1.3101   1.3289   1.3515   1.3593   1.3996   1.4155   1.4655   1.4880
     1.4909   1.5408   1.5535   1.5571   1.5912   1.6009   1.6033   1.6097
     1.6134   1.6682   1.6783   1.8084   1.8140   1.8493   1.8640   1.8651
     1.8794   1.9107   1.9359   1.9469   1.9640   2.0494   2.0640   2.0888
     2.1465   2.2451   2.2532   2.2664   2.3122   2.5342   2.7201   3.0763
     3.4118   3.4696   3.5593   3.9951   4.5103   4.8553   5.1558   5.5456
     5.5816   5.6392   5.7560   5.8660   5.9966   6.3784   6.5302   6.6332
     6.6944   6.7800   6.9460

          k = 0.0000 0.4619 0.0000 ( 91252 PWs)   bands (ev):

   -13.3739 -10.4775  -7.4021  -6.3539  -5.7189  -5.3008  -5.0782  -4.6556
    -4.6493  -4.5305  -4.2954  -4.2336  -4.1233  -4.0183  -3.9823  -3.9299
    -3.9218  -3.7776  -3.7604  -3.7193  -3.7018  -3.6930  -3.5932  -3.5433
    -3.5399  -3.5014  -3.4850  -3.4484  -3.4258  -3.3610  -3.3532  -3.3462
    -3.2220  -3.0932  -3.0861  -3.0798  -3.0745  -3.0596  -3.0404  -2.8623
    -2.8382  -2.8032  -2.7997  -2.7930  -2.7569  -2.6393  -2.5931  -2.5049
    -2.4929  -2.4782  -2.4722  -2.4186  -2.3935  -2.3788  -2.3555  -2.3380
    -2.2789  -2.2559  -2.1851  -2.1350  -2.1302  -2.0939  -2.0806  -1.9823
    -1.9390  -1.9191  -1.9083  -1.8732  -1.7602  -1.6945  -1.6819  -1.6695
    -1.6605  -1.6057  -1.5766  -1.5437  -1.4919  -1.4477  -1.4247  -1.4018
    -1.3429  -1.3127  -1.3083  -1.2957  -1.2847  -1.2361  -1.2138  -1.2066
    -1.1890  -1.1818  -1.1703  -1.1515  -1.1436  -1.1128  -1.0552  -1.0346
    -1.0256  -1.0077  -0.9881  -0.9582  -0.9145  -0.8541  -0.8313  -0.7882
    -0.7727  -0.7547  -0.7354  -0.7151  -0.6869  -0.6633  -0.5745  -0.5658
    -0.5505  -0.5044  -0.4645  -0.4402  -0.3166  -0.3086  -0.2737  -0.2221
    -0.1981  -0.1491  -0.1473  -0.1120  -0.0909  -0.0866  -0.0766  -0.0060
    -0.0046   0.0130   0.0150   0.0359   0.0468   0.0745   0.1142   0.1234
     0.1745   0.2401   0.2531   0.2935   0.3404   0.4074   0.4345   0.4510
     0.4715   0.5581   0.5746   0.6497   0.7184   0.7437   0.7588   0.7847
     0.7908   0.8257   0.8365   0.8913   0.9151   0.9396   0.9648   0.9842
     1.0522   1.0715   1.0972   1.1044   1.1256   1.1466   1.2328   1.3126
     1.3239   1.3713   1.3965   1.4083   1.4111   1.4921   1.5164   1.5241
     1.5969   1.5993   1.6133   1.6681   1.6840   1.6989   1.7190   1.7969
     1.8136   1.8411   1.8571   1.8709   1.8858   1.8899   1.8991   2.0667
     2.0690   2.0925   2.1080   2.1208   2.2848   2.3288   2.4705   2.7195
     2.7752   2.9360   3.1448   3.1563   3.3989   3.5450   3.5615   3.8745
     3.9045   4.3579   4.3700   4.3894   4.5318   4.6386   4.6501   4.7578
     4.9990   5.0221   5.1946   5.6130   5.6812   5.8828   6.1817   6.2467
     6.4354   6.6564   6.7267

          k = 0.2000-0.1155 0.0000 ( 91168 PWs)   bands (ev):

   -13.3739 -10.4775  -7.4012  -6.7766  -5.4998  -5.2860  -5.0151  -4.6246
    -4.6147  -4.4189  -4.3677  -4.3095  -4.2787  -4.2704  -4.2181  -4.0786
    -4.0396  -3.8966  -3.8826  -3.8762  -3.8675  -3.5926  -3.4616  -3.4541
    -3.4444  -3.4297  -3.3771  -3.3601  -3.3250  -3.3028  -3.2831  -3.2649
    -3.2298  -3.2106  -3.1747  -3.1446  -3.0779  -3.0590  -3.0517  -3.0175
    -2.9969  -2.8473  -2.8287  -2.8246  -2.8015  -2.7861  -2.6369  -2.5454
    -2.5254  -2.4823  -2.4603  -2.4392  -2.4259  -2.3772  -2.3008  -2.2295
    -2.2094  -2.1629  -2.1480  -2.1209  -2.0976  -2.0307  -1.8704  -1.7842
    -1.7751  -1.7248  -1.7101  -1.6769  -1.6262  -1.5874  -1.5805  -1.5591
    -1.5450  -1.5264  -1.4910  -1.4443  -1.4206  -1.4011  -1.3881  -1.3160
    -1.2956  -1.2888  -1.2388  -1.2326  -1.2281  -1.1593  -1.1340  -1.1292
    -1.1135  -1.1082  -1.0483  -1.0231  -1.0124  -1.0082  -0.9816  -0.9485
    -0.9286  -0.8906  -0.8665  -0.8461  -0.8411  -0.8324  -0.7925  -0.7857
    -0.7663  -0.7377  -0.7132  -0.6412  -0.5922  -0.5740  -0.5694  -0.5463
    -0.5362  -0.5209  -0.4936  -0.4773  -0.4591  -0.4437  -0.3606  -0.3320
    -0.2699  -0.1398  -0.0907  -0.0605  -0.0562  -0.0287  -0.0127  -0.0010
     0.0071   0.0891   0.1580   0.2077   0.2263   0.3022   0.3086   0.3300
     0.3676   0.3911   0.4167   0.4379   0.4704   0.5253   0.5308   0.5525
     0.5630   0.5831   0.6042   0.7500   0.7609   0.7881   0.8134   0.8185
     0.8416   0.8692   0.9131   0.9388   0.9694   0.9727   1.0052   1.0420
     1.0525   1.0664   1.0847   1.1655   1.1725   1.1906   1.2473   1.2999
     1.3125   1.3256   1.3525   1.3634   1.3973   1.4240   1.4663   1.4887
     1.4926   1.5372   1.5539   1.5579   1.5902   1.5997   1.6035   1.6105
     1.6139   1.6666   1.6794   1.8080   1.8099   1.8492   1.8638   1.8653
     1.8775   1.9102   1.9363   1.9438   1.9636   2.0381   2.0663   2.0895
     2.1258   2.2424   2.2549   2.2621   2.3454   2.5676   2.6910   3.0622
     3.4202   3.4406   3.5599   4.0228   4.5509   4.8179   5.1194   5.5655
     5.5814   5.6208   5.7912   5.8719   6.0370   6.3824   6.5327   6.6162
     6.6906   6.7507   6.9415

          k = 0.2000 0.1155 0.0000 ( 91168 PWs)   bands (ev):

   -13.3739 -10.4774  -7.4014  -6.7769  -5.5013  -5.2855  -5.0206  -4.6174
    -4.6142  -4.4187  -4.3682  -4.3209  -4.2750  -4.2621  -4.2199  -4.0805
    -4.0373  -3.8954  -3.8874  -3.8750  -3.8695  -3.5841  -3.4705  -3.4537
    -3.4495  -3.4359  -3.3719  -3.3596  -3.3272  -3.3065  -3.2865  -3.2684
    -3.2381  -3.1860  -3.1712  -3.1462  -3.0750  -3.0645  -3.0380  -3.0142
    -3.0024  -2.8464  -2.8273  -2.8241  -2.8034  -2.7837  -2.6480  -2.5447
    -2.5264  -2.4919  -2.4596  -2.4387  -2.4215  -2.3708  -2.2887  -2.2259
    -2.2126  -2.1603  -2.1563  -2.1223  -2.0985  -2.0272  -1.8576  -1.7884
    -1.7701  -1.7155  -1.6991  -1.6667  -1.6222  -1.5977  -1.5794  -1.5669
    -1.5547  -1.5373  -1.4919  -1.4360  -1.4071  -1.3988  -1.3837  -1.3268
    -1.3158  -1.3121  -1.2405  -1.2320  -1.2083  -1.1574  -1.1254  -1.1205
    -1.1131  -1.0993  -1.0435  -1.0259  -1.0141  -1.0089  -0.9874  -0.9555
    -0.9300  -0.8894  -0.8825  -0.8383  -0.8331  -0.8231  -0.7982  -0.7737
    -0.7637  -0.7438  -0.7153  -0.6228  -0.6039  -0.5814  -0.5695  -0.5621
    -0.5418  -0.5314  -0.4941  -0.4813  -0.4649  -0.4525  -0.3921  -0.3395
    -0.1752  -0.1370  -0.0970  -0.0812  -0.0527  -0.0248  -0.0181  -0.0105
     0.0016   0.1121   0.1519   0.1838   0.2340   0.2796   0.3120   0.3463
     0.3559   0.3923   0.4146   0.4430   0.4622   0.5271   0.5323   0.5580
     0.5618   0.5807   0.5939   0.7461   0.7533   0.7874   0.8043   0.8157
     0.8413   0.8599   0.9161   0.9398   0.9674   0.9734   1.0283   1.0427
     1.0568   1.0685   1.0841   1.1665   1.1769   1.1931   1.2660   1.2819
     1.3106   1.3277   1.3478   1.3592   1.4012   1.4122   1.4664   1.4858
     1.4915   1.5415   1.5508   1.5547   1.5920   1.6005   1.6046   1.6087
     1.6117   1.6649   1.6731   1.8025   1.8142   1.8491   1.8663   1.8679
     1.8856   1.9185   1.9467   1.9503   1.9671   2.0499   2.0626   2.0884
     2.1559   2.2459   2.2548   2.2674   2.2877   2.5516   2.7333   3.0727
     3.4132   3.4663   3.5403   3.9869   4.5494   4.8716   5.1075   5.5384
     5.5792   5.6235   5.7342   5.8867   6.0709   6.3569   6.5307   6.6543
     6.6851   6.7422   6.9513

          k = 0.2000 0.3464 0.0000 ( 91166 PWs)   bands (ev):

   -13.3739 -10.4775  -7.4017  -6.4916  -5.3227  -5.2733  -5.2524  -5.1922
    -4.2628  -4.1966  -4.1868  -4.1811  -4.1622  -4.1327  -4.1250  -4.1098
    -4.0931  -3.9988  -3.9896  -3.6349  -3.6203  -3.6067  -3.6004  -3.5472
    -3.5122  -3.3837  -3.3672  -3.3579  -3.3498  -3.3421  -3.2806  -3.2350
    -3.2088  -3.1901  -3.1854  -3.1515  -3.1183  -3.0870  -3.0750  -3.0371
    -3.0146  -2.9527  -2.6955  -2.6759  -2.5993  -2.5936  -2.5790  -2.5588
    -2.5513  -2.5388  -2.4959  -2.4745  -2.4171  -2.3139  -2.3061  -2.2714
    -2.2429  -2.2032  -2.1767  -2.1289  -2.1172  -2.0919  -2.0381  -1.9837
    -1.8731  -1.8453  -1.8125  -1.7623  -1.7382  -1.7343  -1.7218  -1.6770
    -1.6532  -1.6390  -1.5102  -1.4928  -1.4717  -1.4639  -1.4210  -1.3972
    -1.3727  -1.3453  -1.3326  -1.3110  -1.2173  -1.1947  -1.1706  -1.1574
    -1.1491  -1.1404  -1.1267  -1.0963  -1.0751  -1.0702  -1.0174  -0.9927
    -0.9612  -0.9210  -0.9037  -0.8726  -0.8504  -0.8265  -0.7971  -0.7858
    -0.7731  -0.7521  -0.7390  -0.7275  -0.7071  -0.6964  -0.6720  -0.6437
    -0.6313  -0.5976  -0.5289  -0.4924  -0.4786  -0.4197  -0.4136  -0.3741
    -0.3221  -0.2129  -0.1958  -0.1113  -0.0775  -0.0545  -0.0229  -0.0111
     0.0058   0.0305   0.0598   0.0781   0.0894   0.1227   0.1586   0.2031
     0.2360   0.3007   0.3697   0.4035   0.4287   0.4571   0.4697   0.4999
     0.5169   0.6051   0.6248   0.6325   0.6823   0.6982   0.7482   0.8183
     0.8315   0.8450   0.8591   0.9001   0.9207   0.9264   0.9333   0.9498
     0.9670   0.9894   1.0095   1.0918   1.1433   1.1919   1.2149   1.2954
     1.3133   1.3948   1.4740   1.4911   1.4952   1.5498   1.6086   1.6196
     1.6313   1.6467   1.6624   1.6868   1.6963   1.6992   1.7148   1.7464
     1.7720   1.7924   1.8414   1.8729   1.8870   1.9189   1.9273   1.9666
     2.0556   2.1266   2.1636   2.1768   2.2274   2.2410   2.2623   2.3765
     2.3805   2.6672   2.9047   2.9160   3.1496   3.4491   3.4648   3.4905
     3.7268   4.1155   4.1843   4.3616   4.3801   4.4275   4.7836   5.0786
     5.5569   5.5823   5.6454   5.7920   5.8749   6.1764   6.2730   6.3356
     6.3830   6.3981   6.5590

          k = 0.2000-0.5774 0.0000 ( 91184 PWs)   bands (ev):

   -13.3738 -10.4777  -7.4016  -5.9665  -5.9460  -5.3557  -5.2896  -4.7238
    -4.7135  -4.2520  -4.2052  -4.1761  -4.0449  -4.0148  -3.9136  -3.9015
    -3.8024  -3.7905  -3.6950  -3.6882  -3.6692  -3.6436  -3.6352  -3.6187
    -3.6047  -3.5027  -3.4677  -3.4649  -3.4349  -3.4143  -3.3402  -3.2628
    -3.2447  -3.2056  -3.1407  -3.0653  -3.0605  -3.0481  -3.0350  -3.0014
    -2.9238  -2.9170  -2.8348  -2.8240  -2.6753  -2.6285  -2.6030  -2.5763
    -2.4699  -2.4567  -2.4264  -2.3904  -2.3421  -2.2781  -2.2400  -2.2229
    -2.2032  -2.1817  -2.1477  -2.1300  -2.0871  -2.0149  -2.0100  -1.9871
    -1.9762  -1.9689  -1.9602  -1.9192  -1.9083  -1.8584  -1.7661  -1.7368
    -1.7091  -1.6716  -1.5921  -1.5661  -1.5413  -1.5373  -1.4926  -1.4700
    -1.4526  -1.4242  -1.3542  -1.3508  -1.3325  -1.3021  -1.2891  -1.2494
    -1.2081  -1.1600  -1.1261  -1.1187  -1.0984  -1.0696  -1.0036  -0.9488
    -0.9320  -0.9170  -0.9055  -0.8733  -0.8630  -0.8477  -0.8246  -0.8109
    -0.7876  -0.7722  -0.7485  -0.7370  -0.7124  -0.7041  -0.6936  -0.6773
    -0.6715  -0.6480  -0.6142  -0.5934  -0.5534  -0.3819  -0.3591  -0.2822
    -0.2749  -0.2100  -0.1835  -0.1614  -0.1333  -0.0968  -0.0815  -0.0712
    -0.0382  -0.0238   0.0416   0.0542   0.0860   0.1142   0.1425   0.1870
     0.2083   0.2302   0.3123   0.3922   0.4121   0.4530   0.4863   0.5023
     0.5317   0.5864   0.5897   0.6214   0.6243   0.6434   0.6870   0.7039
     0.7329   0.7850   0.7992   0.8444   0.8623   0.8805   0.8908   0.9145
     0.9409   1.0134   1.0612   1.1412   1.1873   1.2404   1.2834   1.3224
     1.3337   1.4110   1.4513   1.4574   1.4947   1.5621   1.6097   1.6314
     1.6574   1.6756   1.6828   1.7015   1.7440   1.7524   1.8323   1.8381
     1.8470   1.8736   1.8929   1.8960   1.9277   1.9638   2.0725   2.0807
     2.1046   2.1097   2.1240   2.1770   2.2186   2.2991   2.4270   2.9455
     3.2600   3.2635   3.4413   3.5222   3.6373   3.6513   3.6771   3.8368
     4.2492   4.2745   4.3548   4.7096   4.7346   4.8226   4.8592   4.8841
     5.0756   5.1705   5.1916   5.3838   5.6015   5.6655   5.7973   5.9799
     6.2536   6.3533   6.3772

          k = 0.2000-0.3464 0.0000 ( 91166 PWs)   bands (ev):

   -13.3739 -10.4777  -7.4013  -6.4909  -5.3175  -5.2738  -5.2483  -5.1974
    -4.2600  -4.1915  -4.1859  -4.1747  -4.1691  -4.1366  -4.1287  -4.1079
    -4.0969  -4.0016  -3.9893  -3.6298  -3.6180  -3.6089  -3.5985  -3.5318
    -3.5230  -3.3853  -3.3670  -3.3542  -3.3474  -3.3418  -3.2805  -3.2228
    -3.2105  -3.1925  -3.1810  -3.1690  -3.1183  -3.0926  -3.0713  -3.0496
    -3.0233  -2.9426  -2.7125  -2.6553  -2.6020  -2.5957  -2.5827  -2.5586
    -2.5485  -2.5373  -2.4949  -2.4700  -2.4165  -2.3210  -2.3088  -2.2794
    -2.2333  -2.2069  -2.1772  -2.1273  -2.1203  -2.0974  -2.0349  -1.9939
    -1.8871  -1.8458  -1.8176  -1.7762  -1.7512  -1.7364  -1.7235  -1.6728
    -1.6544  -1.6398  -1.5032  -1.4848  -1.4635  -1.4583  -1.4197  -1.3901
    -1.3839  -1.3527  -1.3258  -1.3027  -1.2155  -1.2084  -1.1746  -1.1556
    -1.1499  -1.1417  -1.1298  -1.0905  -1.0793  -1.0596  -1.0036  -0.9838
    -0.9615  -0.9189  -0.9027  -0.8776  -0.8455  -0.8223  -0.7904  -0.7874
    -0.7713  -0.7614  -0.7352  -0.7318  -0.7043  -0.6967  -0.6581  -0.6482
    -0.6217  -0.6047  -0.5296  -0.4933  -0.4695  -0.4269  -0.4087  -0.3755
    -0.3319  -0.2121  -0.1982  -0.0970  -0.0684  -0.0442  -0.0225  -0.0126
     0.0033   0.0326   0.0504   0.0697   0.0892   0.1121   0.1514   0.1849
     0.2961   0.3161   0.3667   0.4051   0.4301   0.4559   0.4632   0.5034
     0.5299   0.5972   0.6257   0.6348   0.6731   0.6903   0.7530   0.8074
     0.8281   0.8442   0.8654   0.9030   0.9188   0.9275   0.9407   0.9489
     0.9603   0.9919   0.9952   1.0920   1.1532   1.1794   1.2328   1.2979
     1.3125   1.3960   1.4716   1.4870   1.5009   1.5273   1.6038   1.6187
     1.6321   1.6442   1.6687   1.6902   1.6979   1.7056   1.7174   1.7485
     1.7754   1.7814   1.8452   1.8803   1.8852   1.9178   1.9264   1.9697
     2.0541   2.1127   2.1547   2.1832   2.2196   2.2354   2.2456   2.3798
     2.3896   2.6865   2.9073   2.9193   3.1615   3.4377   3.4539   3.4782
     3.6977   4.1274   4.1813   4.3750   4.3917   4.4232   4.7676   5.0786
     5.5478   5.5676   5.7265   5.8108   5.8737   6.1938   6.2222   6.3106
     6.3851   6.4065   6.4953

          k = 0.4000-0.2309 0.0000 ( 91252 PWs)   bands (ev):

   -13.3738 -10.4780  -7.4004  -6.3541  -5.7187  -5.2997  -5.0794  -4.6573
    -4.6476  -4.5310  -4.2845  -4.2337  -4.1288  -4.0219  -3.9824  -3.9320
    -3.9230  -3.7743  -3.7606  -3.7211  -3.7037  -3.6904  -3.5959  -3.5450
    -3.5392  -3.4977  -3.4829  -3.4513  -3.4272  -3.3554  -3.3526  -3.3386
    -3.2022  -3.0997  -3.0880  -3.0829  -3.0771  -3.0699  -3.0493  -2.8856
    -2.8384  -2.8119  -2.8020  -2.7925  -2.7654  -2.6153  -2.5620  -2.5032
    -2.4928  -2.4797  -2.4493  -2.4391  -2.4040  -2.3608  -2.3573  -2.3333
    -2.2928  -2.2617  -2.1885  -2.1325  -2.1280  -2.0993  -2.0794  -1.9846
    -1.9414  -1.9171  -1.9095  -1.8653  -1.7617  -1.7021  -1.6830  -1.6716
    -1.6610  -1.5966  -1.5804  -1.5519  -1.5196  -1.4396  -1.4239  -1.4189
    -1.3457  -1.3110  -1.3067  -1.2936  -1.2892  -1.2384  -1.2197  -1.2074
    -1.1897  -1.1805  -1.1728  -1.1469  -1.1417  -1.1161  -1.0496  -1.0325
    -1.0221  -1.0077  -0.9895  -0.9550  -0.9175  -0.8506  -0.8297  -0.7800
    -0.7694  -0.7461  -0.7419  -0.7074  -0.6760  -0.6508  -0.5671  -0.5628
    -0.5518  -0.5025  -0.4528  -0.4397  -0.3129  -0.3053  -0.2757  -0.2191
    -0.1957  -0.1474  -0.1422  -0.1253  -0.0937  -0.0893  -0.0726  -0.0447
    -0.0071  -0.0028   0.0129   0.0442   0.0648   0.0739   0.0963   0.1203
     0.1682   0.2357   0.2457   0.2962   0.3462   0.3973   0.4452   0.4491
     0.5298   0.5603   0.5686   0.6669   0.7225   0.7412   0.7625   0.7713
     0.7917   0.8269   0.8370   0.8855   0.9028   0.9348   0.9626   0.9846
     1.0501   1.0759   1.0962   1.1042   1.1289   1.1562   1.2641   1.3025
     1.3232   1.3614   1.3891   1.3972   1.4131   1.4877   1.5200   1.5301
     1.5881   1.6054   1.6110   1.6600   1.6832   1.6983   1.7214   1.8034
     1.8131   1.8411   1.8551   1.8696   1.8817   1.8851   1.8940   2.0671
     2.0688   2.0915   2.1080   2.1169   2.2853   2.3289   2.5344   2.6974
     2.7797   2.8922   3.1437   3.1574   3.3740   3.5435   3.5704   3.8777
     3.9296   4.3529   4.3704   4.3790   4.5310   4.6264   4.7002   4.7157
     5.0043   5.0217   5.1490   5.6360   5.7069   5.9856   6.1947   6.2347
     6.4355   6.6775   6.7426

          k = 0.4000-0.0000 0.0000 ( 91166 PWs)   bands (ev):

   -13.3739 -10.4777  -7.4006  -6.4918  -5.3226  -5.2704  -5.2541  -5.1931
    -4.2525  -4.1974  -4.1893  -4.1823  -4.1609  -4.1366  -4.1268  -4.1093
    -4.0940  -4.0008  -3.9922  -3.6297  -3.6225  -3.6095  -3.6007  -3.5346
    -3.5161  -3.3881  -3.3730  -3.3570  -3.3507  -3.3360  -3.2753  -3.2280
    -3.2090  -3.1932  -3.1781  -3.1495  -3.1117  -3.0887  -3.0736  -3.0509
    -3.0370  -2.9467  -2.7127  -2.6933  -2.6013  -2.5965  -2.5749  -2.5536
    -2.5427  -2.5135  -2.4832  -2.4657  -2.4045  -2.3300  -2.3117  -2.2956
    -2.2226  -2.2066  -2.1745  -2.1305  -2.1219  -2.0928  -2.0333  -1.9875
    -1.8801  -1.8476  -1.8163  -1.7665  -1.7462  -1.7346  -1.7163  -1.6736
    -1.6560  -1.6396  -1.5040  -1.4926  -1.4718  -1.4642  -1.4241  -1.3985
    -1.3739  -1.3508  -1.3300  -1.3056  -1.2159  -1.1979  -1.1739  -1.1573
    -1.1502  -1.1411  -1.1257  -1.0929  -1.0772  -1.0610  -1.0126  -0.9921
    -0.9640  -0.9196  -0.9033  -0.8790  -0.8462  -0.8282  -0.7930  -0.7853
    -0.7764  -0.7597  -0.7377  -0.7266  -0.7049  -0.6894  -0.6741  -0.6415
    -0.6175  -0.6049  -0.5290  -0.4911  -0.4700  -0.4309  -0.4041  -0.3806
    -0.3364  -0.2106  -0.1982  -0.1103  -0.0736  -0.0477  -0.0294  -0.0112
     0.0047   0.0346   0.0527   0.0691   0.0901   0.1115   0.1507   0.1956
     0.2920   0.3027   0.3692   0.4070   0.4293   0.4580   0.4707   0.5020
     0.5274   0.6023   0.6238   0.6444   0.6733   0.6887   0.7536   0.8089
     0.8303   0.8420   0.8618   0.8995   0.9233   0.9303   0.9445   0.9486
     0.9633   0.9889   0.9930   1.0950   1.1490   1.1775   1.2224   1.2968
     1.3180   1.3932   1.4769   1.4884   1.5014   1.5284   1.6060   1.6151
     1.6329   1.6460   1.6626   1.6902   1.6966   1.7006   1.7144   1.7470
     1.7703   1.7928   1.8425   1.8720   1.8872   1.9186   1.9271   1.9674
     2.0627   2.1221   2.1607   2.1885   2.2227   2.2388   2.2465   2.3800
     2.3862   2.6744   2.9026   2.9154   3.1824   3.4438   3.4581   3.4887
     3.6741   4.1166   4.1843   4.3755   4.3913   4.4065   4.8087   5.1006
     5.5266   5.5731   5.6263   5.8051   5.9703   6.1918   6.2378   6.3304
     6.3780   6.3932   6.5075

          k = 0.4000 0.2309 0.0000 ( 91252 PWs)   bands (ev):

   -13.3739 -10.4776  -7.4010  -6.3551  -5.7217  -5.3041  -5.0764  -4.6518
    -4.6482  -4.5305  -4.2977  -4.2353  -4.1272  -4.0231  -3.9860  -3.9235
    -3.9204  -3.7732  -3.7606  -3.7203  -3.7029  -3.6944  -3.6015  -3.5420
    -3.5363  -3.5014  -3.4861  -3.4542  -3.4359  -3.3677  -3.3502  -3.3487
    -3.1840  -3.0961  -3.0843  -3.0794  -3.0707  -3.0589  -3.0406  -2.8773
    -2.8399  -2.8107  -2.7973  -2.7905  -2.7632  -2.6423  -2.5596  -2.5057
    -2.4868  -2.4834  -2.4533  -2.4341  -2.3985  -2.3580  -2.3476  -2.3426
    -2.2900  -2.2620  -2.1940  -2.1278  -2.1197  -2.0909  -2.0819  -1.9780
    -1.9294  -1.9101  -1.8997  -1.8565  -1.7599  -1.6938  -1.6844  -1.6756
    -1.6678  -1.6078  -1.5722  -1.5416  -1.5000  -1.4633  -1.4325  -1.4236
    -1.3433  -1.3128  -1.3057  -1.2954  -1.2842  -1.2380  -1.2089  -1.2027
    -1.1941  -1.1847  -1.1709  -1.1533  -1.1400  -1.1141  -1.0470  -1.0360
    -1.0188  -1.0072  -0.9824  -0.9461  -0.9174  -0.8615  -0.8309  -0.7988
    -0.7812  -0.7537  -0.7372  -0.7223  -0.7013  -0.6693  -0.5696  -0.5584
    -0.5473  -0.5068  -0.4696  -0.4403  -0.3197  -0.3076  -0.2651  -0.2256
    -0.2163  -0.1508  -0.1424  -0.1161  -0.0934  -0.0793  -0.0626  -0.0063
    -0.0034   0.0076   0.0146   0.0335   0.0387   0.0677   0.0965   0.1361
     0.1797   0.2327   0.2464   0.2847   0.3402   0.4201   0.4335   0.4462
     0.4803   0.5573   0.5825   0.6507   0.7227   0.7429   0.7589   0.7786
     0.7875   0.8239   0.8372   0.8932   0.9143   0.9409   0.9662   0.9861
     1.0577   1.0750   1.0951   1.1094   1.1248   1.1417   1.2221   1.3123
     1.3234   1.3704   1.3974   1.4053   1.4110   1.4943   1.5144   1.5239
     1.5886   1.6017   1.6124   1.6680   1.6781   1.6960   1.7156   1.7929
     1.8183   1.8443   1.8566   1.8757   1.8919   1.8940   1.9032   2.0683
     2.0730   2.0985   2.1197   2.1233   2.2838   2.3284   2.4731   2.7314
     2.7625   2.9352   3.1469   3.1550   3.3808   3.5407   3.5644   3.8897
     3.9098   4.3629   4.3684   4.4005   4.5370   4.6127   4.6765   4.7770
     4.9885   5.0163   5.1314   5.6361   5.7540   5.8294   6.2021   6.2559
     6.4378   6.6857   6.7281

          k = 0.4000-0.6928 0.0000 ( 91184 PWs)   bands (ev):

   -13.3738 -10.4777  -7.4010  -5.9692  -5.9465  -5.3498  -5.2950  -4.7270
    -4.7101  -4.2573  -4.1998  -4.1795  -4.0467  -4.0141  -3.9091  -3.8988
    -3.8034  -3.7905  -3.6990  -3.6960  -3.6664  -3.6419  -3.6388  -3.6233
    -3.6033  -3.5042  -3.4662  -3.4634  -3.4346  -3.4182  -3.3426  -3.2875
    -3.2093  -3.1853  -3.1416  -3.0684  -3.0560  -3.0506  -3.0313  -3.0052
    -2.9407  -2.9201  -2.8352  -2.8212  -2.6765  -2.6219  -2.6115  -2.5299
    -2.4884  -2.4618  -2.4216  -2.4015  -2.3394  -2.2850  -2.2469  -2.2232
    -2.2005  -2.1792  -2.1364  -2.1241  -2.0872  -2.0107  -2.0070  -1.9840
    -1.9786  -1.9637  -1.9505  -1.9182  -1.9089  -1.8526  -1.7651  -1.7442
    -1.7088  -1.6735  -1.5934  -1.5651  -1.5401  -1.5277  -1.5000  -1.4683
    -1.4612  -1.4384  -1.3537  -1.3457  -1.3367  -1.3077  -1.2891  -1.2513
    -1.2033  -1.1701  -1.1206  -1.1131  -1.0988  -1.0678  -1.0097  -0.9513
    -0.9306  -0.9118  -0.8997  -0.8717  -0.8675  -0.8550  -0.8283  -0.8184
    -0.7983  -0.7791  -0.7556  -0.7278  -0.7162  -0.6986  -0.6926  -0.6777
    -0.6736  -0.6440  -0.6131  -0.5991  -0.5347  -0.3952  -0.3627  -0.2837
    -0.2724  -0.2148  -0.1815  -0.1612  -0.1338  -0.0963  -0.0859  -0.0713
    -0.0291  -0.0236   0.0400   0.0576   0.0808   0.1218   0.1453   0.1887
     0.2070   0.2180   0.2946   0.3929   0.4157   0.4510   0.4899   0.5049
     0.5377   0.5842   0.5887   0.6222   0.6287   0.6391   0.6862   0.7015
     0.7420   0.7924   0.8050   0.8397   0.8614   0.8776   0.8962   0.9073
     0.9492   1.0068   1.0636   1.1308   1.1838   1.2349   1.2888   1.3236
     1.3364   1.4106   1.4510   1.4575   1.4985   1.5603   1.6085   1.6293
     1.6501   1.6744   1.6821   1.7037   1.7498   1.7538   1.8343   1.8367
     1.8481   1.8634   1.8907   1.8944   1.9297   1.9632   2.0758   2.0834
     2.1081   2.1180   2.1268   2.1775   2.2273   2.2992   2.4255   2.9426
     3.2601   3.2636   3.4193   3.5358   3.6306   3.6569   3.6643   3.8701
     4.2521   4.2709   4.3282   4.7134   4.7398   4.8216   4.8690   4.8821
     5.0986   5.1711   5.1805   5.4032   5.5812   5.7009   5.7425   6.0051
     6.2654   6.3476   6.3876

          k = 0.4000-0.4619 0.0000 ( 91184 PWs)   bands (ev):

   -13.3738 -10.4779  -7.4006  -5.9666  -5.9461  -5.3569  -5.2877  -4.7231
    -4.7157  -4.2468  -4.2012  -4.1770  -4.0490  -4.0155  -3.9165  -3.9017
    -3.7975  -3.7893  -3.7028  -3.6886  -3.6690  -3.6428  -3.6357  -3.6232
    -3.6097  -3.4975  -3.4665  -3.4626  -3.4266  -3.4172  -3.3452  -3.2501
    -3.2212  -3.2009  -3.1578  -3.0669  -3.0648  -3.0516  -3.0307  -3.0278
    -2.9424  -2.9142  -2.8318  -2.8196  -2.6793  -2.6267  -2.5954  -2.5255
    -2.5020  -2.4590  -2.4232  -2.3963  -2.3313  -2.2848  -2.2399  -2.2270
    -2.2006  -2.1849  -2.1514  -2.1310  -2.0834  -2.0132  -2.0078  -1.9851
    -1.9794  -1.9693  -1.9549  -1.9246  -1.9026  -1.8549  -1.7744  -1.7441
    -1.7077  -1.6897  -1.5905  -1.5638  -1.5420  -1.5256  -1.5012  -1.4755
    -1.4530  -1.4348  -1.3557  -1.3497  -1.3313  -1.2961  -1.2887  -1.2441
    -1.2083  -1.1601  -1.1337  -1.1236  -1.0989  -1.0689  -0.9988  -0.9472
    -0.9324  -0.9129  -0.9043  -0.8767  -0.8637  -0.8488  -0.8235  -0.8054
    -0.7934  -0.7709  -0.7565  -0.7232  -0.7072  -0.6966  -0.6931  -0.6738
    -0.6691  -0.6479  -0.6054  -0.5917  -0.5521  -0.3987  -0.3499  -0.2814
    -0.2735  -0.2045  -0.1827  -0.1517  -0.1314  -0.1083  -0.0817  -0.0673
    -0.0455  -0.0216   0.0375   0.0558   0.0738   0.0977   0.1268   0.1890
     0.2163   0.2534   0.3326   0.3728   0.4103   0.4502   0.4955   0.5033
     0.5348   0.5770   0.5929   0.6106   0.6290   0.6522   0.6784   0.6919
     0.7385   0.7813   0.8034   0.8445   0.8642   0.8792   0.8950   0.9122
     0.9530   1.0322   1.0573   1.1565   1.1705   1.2469   1.2842   1.3208
     1.3321   1.4063   1.4498   1.4550   1.4910   1.5611   1.6121   1.6307
     1.6570   1.6768   1.6782   1.7072   1.7230   1.7495   1.8286   1.8393
     1.8573   1.8745   1.8870   1.8931   1.9321   1.9657   2.0733   2.0810
     2.1054   2.1091   2.1208   2.1767   2.2310   2.2992   2.4319   2.9281
     3.2600   3.2622   3.4715   3.5111   3.6331   3.6512   3.6707   3.8491
     4.2460   4.2697   4.3158   4.7120   4.7380   4.8470   4.8634   4.8893
     5.0325   5.1563   5.2355   5.3740   5.6180   5.6871   5.7668   6.0452
     6.2477   6.3625   6.3722

     the Fermi energy is     1.8811 ev

!    total energy              =  -27817.36135235 Ry

     total all-electron energy =  -1326877.419043 Ry
     estimated scf accuracy    <       0.00000094 Ry
     smearing contrib. (-TS)   =       0.00260596 Ry
     internal energy E=F+TS    =  -27817.36395831 Ry

     The total energy is F=E-TS. E is the sum of the following terms:
     one-electron contribution =  -28253.98490139 Ry
     hartree contribution      =   14431.67453021 Ry
     xc contribution           =    -908.17487239 Ry
     ewald contribution        =   12406.72229414 Ry
     one-center paw contrib.   =  -25493.60100888 Ry

     convergence has been achieved in  19 iterations

     negative rho (up, down):  1.232E-02 0.000E+00

     Forces acting on atoms (cartesian axes, Ry/au):

     atom    1 type  1   force =    -0.00059299    0.00023649   -0.00721732
     atom    2 type  1   force =    -0.00066314   -0.00019048   -0.00331477
     atom    3 type  1   force =     0.00087835    0.00006013   -0.00368174
     atom    4 type  1   force =    -0.00045449   -0.00051631   -0.00337003
     atom    5 type  1   force =    -0.00030049    0.00000693   -0.00334172
     atom    6 type  1   force =     0.00019241   -0.00106577   -0.00421762
     atom    7 type  1   force =     0.00003255    0.00025095   -0.00360256
     atom    8 type  1   force =    -0.00035716    0.00019017   -0.00334502
     atom    9 type  1   force =    -0.00019786   -0.00019160   -0.00319276
     atom   10 type  1   force =     0.00116135    0.00014182   -0.00042809
     atom   11 type  1   force =    -0.00016912    0.00193782    0.00936648
     atom   12 type  1   force =     0.00070876   -0.00042722    0.00008934
     atom   13 type  1   force =     0.00235927   -0.00092627    0.00937739
     atom   14 type  1   force =    -0.00114144   -0.00051636    0.00913295
     atom   15 type  1   force =     0.00014962    0.00032052    0.00127139
     atom   16 type  1   force =     0.00046842   -0.00012622   -0.00042610
     atom   17 type  1   force =     0.00065795    0.00029672    0.00123833
     atom   18 type  1   force =     0.00021263    0.00040711    0.00169243
     atom   19 type  1   force =     0.00007715    0.00002496    0.00030448
     atom   20 type  1   force =     0.00011254   -0.00003169   -0.00011002
     atom   21 type  1   force =     0.00005040    0.00002038    0.00012880
     atom   22 type  1   force =     0.00000042   -0.00006047    0.00038190
     atom   23 type  1   force =     0.00001403   -0.00024827    0.00003039
     atom   24 type  1   force =     0.00016202   -0.00004799    0.00016814
     atom   25 type  1   force =     0.00002067   -0.00005857    0.00035607
     atom   26 type  1   force =     0.00008832   -0.00006348    0.00050113
     atom   27 type  1   force =     0.00006856   -0.00015941    0.00021161
     atom   28 type  1   force =    -0.00005538   -0.00016621    0.00050062
     atom   29 type  1   force =     0.00004817   -0.00035246    0.00053966
     atom   30 type  1   force =    -0.00012934   -0.00053159    0.00042047
     atom   31 type  1   force =    -0.00046051    0.00002400    0.00019849
     atom   32 type  1   force =    -0.00005100    0.00010512    0.00028015
     atom   33 type  1   force =     0.00017522    0.00006370    0.00033894
     atom   34 type  1   force =    -0.00008243    0.00010031    0.00009171
     atom   35 type  1   force =     0.00003215   -0.00015913    0.00043994
     atom   36 type  1   force =    -0.00002577   -0.00012183    0.00057878
     atom   37 type  2   force =    -0.00122683    0.00123820    0.00023455
     atom   38 type  2   force =    -0.00101306   -0.00137670   -0.00070283
     atom   39 type  2   force =    -0.00038411    0.00207412    0.00019778
     atom   40 type  3   force =    -0.00075031   -0.00038589   -0.00013356
     atom   41 type  3   force =     0.00047726    0.00017325   -0.00008184
     atom   42 type  3   force =    -0.00076151   -0.00069224   -0.00031301
     atom   43 type  3   force =     0.00029561    0.00004645    0.00011018
     atom   44 type  3   force =     0.00037310    0.00069699   -0.00070311

     Total force =     0.004185     Total SCF correction =     0.003015
     SCF correction compared to forces is large: reduce conv_thr to get better values

     negative rho (up, down):  1.232E-02 0.000E+00

     negative rho (up, down):  1.232E-02 0.000E+00

     negative rho (up, down):  1.232E-02 0.000E+00

     negative rho (up, down):  1.232E-02 0.000E+00

     negative rho (up, down):  1.232E-02 0.000E+00

     negative rho (up, down):  1.232E-02 0.000E+00

     negative rho (up, down):  1.232E-02 0.000E+00

     negative rho (up, down):  1.232E-02 0.000E+00

     negative rho (up, down):  1.232E-02 0.000E+00

     negative rho (up, down):  1.232E-02 0.000E+00

     negative rho (up, down):  1.232E-02 0.000E+00

     negative rho (up, down):  1.232E-02 0.000E+00

     negative rho (up, down):  1.232E-02 0.000E+00

     negative rho (up, down):  1.232E-02 0.000E+00

     negative rho (up, down):  1.232E-02 0.000E+00

     negative rho (up, down):  1.232E-02 0.000E+00

     negative rho (up, down):  1.232E-02 0.000E+00

     negative rho (up, down):  1.232E-02 0.000E+00

     negative rho (up, down):  1.232E-02 0.000E+00

     negative rho (up, down):  1.232E-02 0.000E+00

     negative rho (up, down):  1.232E-02 0.000E+00

     negative rho (up, down):  1.232E-02 0.000E+00

     negative rho (up, down):  1.232E-02 0.000E+00

     negative rho (up, down):  1.232E-02 0.000E+00

     negative rho (up, down):  1.232E-02 0.000E+00

     negative rho (up, down):  1.232E-02 0.000E+00

     negative rho (up, down):  1.232E-02 0.000E+00

     negative rho (up, down):  1.232E-02 0.000E+00

     negative rho (up, down):  1.232E-02 0.000E+00

     negative rho (up, down):  1.232E-02 0.000E+00

     negative rho (up, down):  1.232E-02 0.000E+00

     negative rho (up, down):  1.232E-02 0.000E+00

     negative rho (up, down):  1.232E-02 0.000E+00

     negative rho (up, down):  1.232E-02 0.000E+00
 BEEFens 2000 ensemble energies
             -0.608246062304065E+02
             -0.361517816262369E+01
             -0.158465422006148E+02
              0.430362234585255E+02
             -0.221646842878617E+02
             -0.205496734411931E+02
             -0.353491904270822E+02
             -0.867034808372032E+02
             -0.465364604996561E+02
             -0.473043191465913E+02
             -0.370156056489258E+02
              0.232150193294356E+01
              0.408065844290053E+01
              0.758125393829351E+01
              0.265911040110231E+01
              0.475945262719789E+02
             -0.208972576928060E+02
             -0.229872699282003E+02
              0.193598932565590E+02
             -0.112614613602489E+03
              0.537549602668274E+02
             -0.290073124234024E+02
             -0.335222771444953E+01
             -0.114212340241706E+02
             -0.879643194576477E+01
             -0.460540092777629E+01
              0.884461604924365E+02
             -0.188179665723836E+02
             -0.899455571645785E+01
             -0.519670848620302E+02
              0.816292624970922E+02
             -0.186817575601052E+02
             -0.375692245934279E+02
              0.249277503207562E+02
             -0.285047120734004E+01
              0.165059480990325E+02
             -0.483550636964696E+01
              0.107839350198249E+02
              0.289725622113806E+02
             -0.103430382687342E+03
              0.559623992734180E+02
              0.142744967500173E+02
             -0.178700021121449E+01
             -0.361825035624438E+02
              0.123486342250658E+02
             -0.147526031159990E+02
              0.399539808714846E+02
              0.365422760411974E+02
             -0.308119580091000E+02
             -0.275676302460781E+02
             -0.329165528486710E+02
             -0.353084853066102E+02
              0.137342373957588E+02
             -0.491779160909500E+02
              0.116069123599361E+02
              0.624461731341717E+02
              0.637279356170057E+02
              0.356535033084425E+02
              0.154180587304317E+02
              0.271537831635160E+02
              0.893544901518742E+02
              0.212451549631741E+02
             -0.549597307800627E+02
             -0.157099038178961E+02
             -0.236638359425797E+02
              0.630900681922582E+02
             -0.774431414341830E+02
             -0.673054938850779E+02
             -0.260673496591510E+02
             -0.658751036825424E+01
             -0.471037417735917E+02
              0.271299225754933E+02
              0.803841466424376E+01
              0.871356584580104E+01
             -0.398256795206973E+02
             -0.347551217176089E+02
             -0.543332296394470E+02
              0.390572183986144E+02
             -0.296892264910704E+02
              0.266370192246095E+02
             -0.720588468254672E+01
             -0.318373733977370E+02
             -0.576724836641988E+02
             -0.176796675111407E+02
             -0.907994530760016E+01
             -0.124640379053167E+02
              0.413142282785525E+02
              0.684998725297579E+02
             -0.386651384614863E+02
             -0.796046480084388E+02
             -0.219965228603830E+02
              0.111699089827573E+03
             -0.593887619966466E+02
              0.356702693520994E+02
             -0.960487524370637E+01
             -0.664050431402556E+02
              0.254834414963917E+02
              0.398277004704717E+02
             -0.199276444991905E+02
              0.400759006980659E+02
             -0.296255861268176E+02
             -0.479861709579624E+02
              0.868266308035739E+02
              0.454683353442241E+02
              0.336610451586155E+02
              0.146602900519898E+02
              0.206507215897145E+02
              0.858027152263251E+02
             -0.257311897266439E+02
              0.789308519175287E+01
             -0.142650729578405E+03
              0.181143637803955E+02
             -0.717406089122084E+02
              0.151316726854408E+02
              0.205106217344363E+02
             -0.333860378352313E+02
             -0.558053930837747E+02
              0.651541572048700E+01
             -0.304987596099491E+02
              0.308953879603235E+02
             -0.530840046789068E+02
              0.167539302800537E+01
             -0.357682080086035E+02
             -0.423584675027359E+01
             -0.995026422806916E+00
              0.182224523745707E+02
              0.142400660594910E+01
             -0.651155283600883E+01
              0.592149709658592E+02
              0.910229403983637E+02
              0.485284919065426E+02
              0.831073104245631E+02
             -0.115308506847645E+02
              0.142972384029149E+02
              0.542038378241397E+02
             -0.110245435298603E+02
             -0.737524732286655E+02
             -0.385434153395034E+02
             -0.522911639850427E+02
             -0.277314860915993E+02
              0.327887115553775E+02
             -0.117027238749141E+03
             -0.187507485616934E+02
              0.415076853529360E+02
             -0.386986945291687E+02
             -0.365803272441220E+02
              0.545865924578140E+02
              0.401573506327813E+02
             -0.354656420431554E+02
              0.139042778639009E+02
             -0.273956386063890E+02
              0.343881379687315E+02
              0.443705683235402E+01
              0.210983109326498E+02
             -0.886351100131840E+02
             -0.481008638723675E+02
             -0.998603529496563E+01
              0.317981102941746E+01
             -0.367721751180934E+02
              0.106268837169987E+03
             -0.230978993371061E+02
             -0.399288652940381E+02
              0.389291006011292E+02
             -0.494866156155034E+02
             -0.364312076024599E+02
              0.325636033461517E+02
              0.124916015921684E+02
              0.165090904245004E+02
              0.117241132275971E+02
             -0.133053485763887E+02
              0.225170236219198E+02
              0.591103366576410E+02
             -0.311877826465326E+02
              0.162880230258806E+02
              0.936323266256705E+02
              0.341514774789497E+02
             -0.728861482298430E+01
             -0.189243969677869E+02
              0.153668389356853E+03
             -0.164838905063793E+02
              0.364270946533309E+02
              0.195304010049122E+02
              0.361695443728431E+02
              0.893630924482189E+02
              0.543726543819354E+02
             -0.238998596111873E+01
              0.228470400573029E+02
              0.486053313076583E+02
              0.364126020075080E+02
             -0.526905999161235E+02
              0.938000142447862E+02
             -0.827472584786858E+02
             -0.197927737593102E+02
              0.583736025713894E+02
              0.685592241549327E+01
              0.790432580954507E+01
              0.341006710816179E+02
              0.299449640774379E+02
              0.354215667549946E+02
             -0.638717328132196E+02
              0.286259175507473E+01
             -0.298081824801892E+02
             -0.868217515749566E+01
             -0.147714395961987E+01
             -0.728275755011538E+01
             -0.416871166127049E+01
              0.861033240949369E+02
             -0.101128430152742E+02
             -0.276790332677719E+02
             -0.496025669177790E+01
              0.140305156075601E+02
             -0.565272946932334E+02
             -0.409017940851201E+02
             -0.382658791008079E+02
             -0.631574267408276E+02
             -0.170027816980224E+02
             -0.448250175393034E+02
              0.163523534487991E+02
             -0.236784996254187E+01
             -0.104761469784345E+02
             -0.935003223033820E+01
              0.807911747749830E+01
             -0.242424228362243E+02
              0.690888986429576E+02
             -0.809282876159059E+02
             -0.141397436392499E+02
             -0.174097699561277E+02
              0.182187412631737E+02
              0.215416488156413E+02
             -0.464777320118831E+02
             -0.201848996021401E+02
              0.441867995163666E+02
             -0.276408120884406E+02
              0.187482658241606E+02
              0.383314899826673E+02
             -0.322773280687227E+01
              0.114343968705334E+03
             -0.229687882457671E+02
             -0.341433003753380E+02
              0.576484244110998E+01
             -0.228973920494686E+02
              0.528711184121790E+02
             -0.338664778850334E+02
              0.106956023520827E+02
              0.641031501090325E+02
             -0.126463246208498E+02
              0.120478855887036E+03
              0.126128951959234E+03
             -0.651279706748057E+02
              0.591848876003735E+02
              0.167310449360137E+02
             -0.519053030390954E+02
              0.216168008059188E+02
              0.355318216251028E+02
              0.363938309644602E+02
              0.133900799346267E+01
              0.160504488910963E+02
              0.697725359292945E+02
             -0.247474431803685E+02
              0.181621424304789E+02
              0.740019503539704E+02
             -0.373123261504128E+02
             -0.130648641684433E+02
              0.510118785259140E+02
              0.298099384781340E+02
              0.781474851746790E+02
              0.223785415031096E+02
              0.631366459569068E+01
              0.280838279179268E+02
              0.384307519519207E+02
             -0.473589124219767E+02
              0.336643116264560E+01
              0.131091240584012E+02
              0.114093457479637E+02
              0.221234547328976E+02
             -0.576422483662168E+02
              0.366456635552223E+02
             -0.444625185849794E+02
             -0.348240142792221E+02
              0.178896268137004E+02
             -0.181363042025645E+02
              0.556577972220707E+02
             -0.255668021225739E+02
              0.267481196777659E+02
              0.368728880465075E+02
              0.830644410530553E+02
              0.575706781831788E+02
              0.462948132075805E+02
             -0.104846079583670E+02
             -0.395765260698704E+01
             -0.332823753753095E+02
              0.752637341881475E+02
              0.798772995557198E+02
              0.362820854739631E+02
             -0.192784549816980E+02
              0.512731248868807E+02
             -0.162376968742660E+02
              0.214703049036095E+02
              0.616112954608477E+02
              0.212677523652397E+01
             -0.104586043378904E+02
             -0.282960234680303E+02
             -0.513561933651985E+02
              0.947409699432143E+02
              0.441415870165416E+02
             -0.560664983809757E+02
             -0.969028213179234E+01
              0.250168933037014E+02
             -0.996925810194494E+01
              0.593565086934979E+02
              0.152262304106741E+02
              0.800820778312014E+02
              0.280666503346213E+02
             -0.263873914485960E+02
              0.248870346527749E+02
             -0.502942189071274E+01
             -0.323703509764021E+02
              0.133361292118663E+02
              0.205585317069175E+02
              0.935189708203602E+02
              0.798917609887727E+02
              0.552414993287598E+02
              0.731679198239249E+02
              0.804063654662795E+01
             -0.274201922190646E+02
              0.163448543225815E+02
             -0.368468710343961E+02
             -0.477847245689593E+02
             -0.564501194014770E+02
             -0.267313196604665E+02
             -0.109919041382118E+03
             -0.292501391376572E+02
             -0.839297709649881E+02
              0.210772887068850E+02
             -0.477940641963115E+02
              0.398215799490648E+02
             -0.943915536890623E+02
             -0.330733711572387E+02
              0.548645482533616E+02
              0.208013553425665E+02
             -0.832834362829822E+02
              0.631675991113477E+02
             -0.257518673745087E+02
              0.513593802273707E+02
             -0.242613288628271E+02
             -0.752991560839299E+02
              0.112151766003311E+02
             -0.612729319306770E+02
             -0.167757839923798E+02
             -0.152137377472521E+01
              0.418798677919702E+02
              0.127279848172005E+03
             -0.462399245621954E+02
             -0.363196925069224E+02
             -0.100554842402266E+01
             -0.130337520333604E+02
             -0.824197925786010E+02
             -0.597795429962632E+02
              0.517957089232070E+02
             -0.289073790663466E+02
              0.170097911346890E+02
             -0.490319835911952E+02
             -0.132443825471110E+02
             -0.437989287776659E+02
              0.566553211205553E+02
              0.150701050712159E+02
             -0.232217522166119E+02
             -0.127691300192670E+02
              0.671975766097333E+01
             -0.619956701322087E+01
              0.442264214651782E+02
             -0.252462259004794E+02
              0.286001427068925E+01
              0.340325622644407E+02
              0.171169560473552E+02
             -0.160734271093251E+02
              0.156575007160965E+03
              0.539764926062113E+02
              0.119501656992757E+01
              0.161522525184427E+02
             -0.616256639987218E+02
              0.315805109463050E+02
             -0.723538715630884E+02
             -0.252899885213079E+02
             -0.524019218178664E+02
             -0.220578560009722E+02
              0.570665280460339E+02
             -0.538293795323290E+02
              0.161833928634672E+02
             -0.411884283226186E+01
              0.386065658741379E+01
             -0.434349690925751E+02
             -0.479105522610234E+02
             -0.407167528019909E+01
             -0.424982731516860E+02
             -0.217305117980922E+02
             -0.439455218186524E+02
             -0.119267716914285E+02
             -0.359669833815103E+02
             -0.517442771268928E+02
              0.212916536831392E+02
             -0.209142595267443E+02
              0.188562156486756E+02
              0.975410879470961E+01
             -0.739770380702132E+02
             -0.548936290127013E+02
             -0.399765971229861E+02
              0.354564557487138E+02
              0.267101198372077E+01
             -0.627678884282208E+02
              0.587178842515422E+02
             -0.402044152945004E+02
              0.546462744288044E+02
             -0.290512392912772E+02
             -0.446893323901976E+02
              0.298522238888266E+02
             -0.659145646137756E+02
             -0.380481104058097E+02
              0.673744261521235E+02
              0.204573208020057E+02
             -0.361701577424112E+02
              0.490914245531089E+02
             -0.174462929159627E+02
             -0.323889259497139E+02
             -0.302343164794287E+02
             -0.501801340252136E+02
              0.250326872745824E+02
             -0.934995178217270E+02
             -0.841620553608536E+02
             -0.737333532190576E+01
             -0.307435653393727E+02
             -0.577139857911546E+02
              0.723483842434171E+02
              0.131838249630447E+03
             -0.361029684271292E+02
             -0.257888470563694E+01
             -0.638231726398087E+02
              0.651998182198707E+02
              0.171304739757962E+02
             -0.182605061471053E+02
             -0.410687370194887E+02
              0.148860555593445E+02
             -0.587194912427875E+02
             -0.198143730611006E+02
             -0.906204667198872E+02
              0.337870909820183E+02
              0.168905237305478E+02
              0.182506781708207E+01
             -0.712631501050919E+01
             -0.331085375311491E+02
             -0.764019207408597E+01
              0.125856207315690E+03
             -0.199233566182166E+02
             -0.438906261151661E+02
             -0.685587126676517E+02
              0.109728275212879E+02
             -0.343285620834506E+02
              0.596012437210838E+01
              0.262295440978032E+02
              0.102381248748249E+02
              0.278845237951558E+02
              0.120507961564894E+02
              0.630836610272943E+02
              0.316937699098150E+02
             -0.327587156181734E+02
              0.357385892528469E+02
              0.380160561607033E+02
              0.121075157046720E+02
              0.487856838519867E+02
             -0.225910340130797E+02
              0.767234640421665E+02
              0.173222270481502E+02
             -0.272985293489559E+02
             -0.725207206516404E+01
             -0.186868026513590E+02
              0.261960755321239E+02
             -0.234556387295320E+02
             -0.193166146371283E+00
             -0.852908156982471E+01
              0.811346681980592E+02
              0.501399837831478E+02
             -0.687887996490712E+02
             -0.481140146002491E+01
             -0.556212920902077E+02
             -0.159477130985845E+02
             -0.268829420681635E+02
              0.379597238401686E+01
              0.608332206505690E+00
             -0.258457256160386E+02
              0.820935116986089E+01
             -0.605059022379130E+01
             -0.128473254281482E+02
              0.860808467376182E+02
              0.181913539849390E+02
             -0.809148620696145E+02
             -0.459059650517273E+02
              0.947415942776436E+02
              0.278442003890402E+02
             -0.107015049493106E+02
              0.104804973570437E+03
             -0.194687176039420E+02
             -0.123117939067787E+02
             -0.543977404433736E+01
              0.107885648395174E+02
              0.273539272533673E+02
              0.781053276354749E+01
              0.305947893677175E+02
             -0.187929810664906E+02
             -0.305160159542615E+02
             -0.418955993616300E+02
             -0.477854259563941E+02
              0.464759796868928E+02
              0.127056597493884E+02
              0.388520672867332E+02
              0.133886264990902E+02
              0.857745990737164E+02
              0.156993744946179E+02
             -0.847858659090289E+02
             -0.335224674346578E+02
              0.133471388978526E+02
             -0.303390539258373E+02
              0.628119193322467E+02
             -0.889610341245407E+01
              0.148981174772117E+02
              0.498588675553494E+02
             -0.709156055275832E+02
              0.150053846710709E+03
              0.209214029581991E+02
              0.271857380088023E+02
              0.348602863680258E+02
              0.103719885774386E+02
             -0.154459611926035E+01
              0.358952787225736E+02
             -0.358201891332288E+02
              0.775498515914643E+02
              0.686823373906407E+02
             -0.407062675533006E+02
              0.149940942729413E+02
              0.671810790787892E+02
             -0.224227176359000E+02
              0.155038795583048E+02
              0.435467321610351E+02
              0.422852646288224E+02
             -0.786479478737437E+02
             -0.152695972942346E+02
             -0.356377350564176E+02
             -0.149692643915012E+01
             -0.769929700991552E+01
             -0.537740649164164E+01
             -0.180504072950563E+02
             -0.294899298442663E+02
              0.641933117556493E+01
              0.111660381021974E+02
              0.536866653519569E+02
             -0.391580642192039E+02
              0.376015855361907E+02
              0.439799417795683E+02
             -0.186282880639608E+02
              0.873612100933116E+02
             -0.699399511983491E+02
             -0.103414262730988E+03
             -0.663822498403151E+01
             -0.271044055696939E+01
              0.383411360998662E+01
              0.791533620297438E+02
             -0.106869473283201E+02
              0.417776664831290E+02
              0.445372750735392E+02
              0.386057773035644E+02
             -0.999062342635648E+01
              0.628432733733416E+02
             -0.133988792386481E+02
             -0.308496994177909E+02
             -0.479808936759785E+02
              0.592826108202559E+01
              0.369899254273701E+02
             -0.601383148875456E+01
              0.393392016664443E+02
             -0.174443276868487E+01
              0.656196727383264E+02
              0.187304502762342E+02
              0.100069031835051E+02
             -0.121573532626567E+02
              0.332699200066860E+02
              0.363417410284827E+02
              0.232741309006409E+02
             -0.516441749727107E+00
             -0.551938362252109E+02
              0.261476306356203E+02
              0.175673907346338E+02
              0.403060765944568E+02
              0.272778180050552E+02
              0.373341877910048E+02
             -0.605776361258052E+01
              0.252293451354641E+02
             -0.299361790954465E+02
             -0.198289237929896E+01
             -0.570263045117831E+02
             -0.308513274556559E+02
              0.379715912776274E+02
             -0.937552555029761E+02
              0.294724314906050E+02
              0.184369693404915E+02
              0.842357909367137E+02
             -0.300112069817158E+02
              0.330451330707126E+02
             -0.137851728538756E+02
             -0.465140047982726E+02
             -0.762578829454741E+02
             -0.533154778738520E+01
             -0.862169055609311E+02
              0.199548992027959E+02
             -0.247914384454711E+02
              0.306667864227823E+02
              0.237863176494990E+02
             -0.242108405940562E+02
             -0.266487854457182E+02
              0.391803390510470E+02
             -0.589999538724211E+02
             -0.117219638924179E+02
             -0.196462644314895E+02
              0.213678576318363E+02
             -0.884032415225812E+01
              0.362076095783462E+01
             -0.200817134092213E+02
              0.559948301348438E+02
             -0.441650533339238E+02
              0.788049603190530E+01
              0.587014458219045E+02
             -0.324462730904961E+02
              0.362985218017931E+01
             -0.877612904194507E+01
             -0.670560524021491E+02
             -0.482802154405156E+02
             -0.858751818342019E+01
              0.241662552012137E+02
              0.303345782279170E+02
              0.861603056580236E+01
             -0.418679372693850E+01
              0.152047619433192E+02
             -0.440501903183616E+02
              0.328652477786619E+01
             -0.532420645508726E+02
             -0.325503487815477E+02
              0.475971058084654E+02
             -0.295837761509362E+02
              0.624381224913324E+02
             -0.215616473435702E+02
              0.354131108031243E+02
              0.242366230543677E+02
             -0.645480873099757E+02
             -0.280681436818505E+02
              0.936178100024048E+01
             -0.373134785941962E+02
             -0.340486071447054E+02
             -0.832226701536531E+02
             -0.540433671187466E+02
             -0.511528675433451E+02
             -0.416627605318047E+02
             -0.995394730486026E+00
              0.100343666594603E+02
              0.111413879958528E+01
              0.154226106488000E+02
             -0.550677965664193E+02
              0.142391149799539E+02
              0.258032473645781E+02
             -0.668319377159622E+02
             -0.703146379705980E+02
             -0.432444985313630E+02
             -0.173208314066479E+02
              0.178579812458539E+02
              0.453275555066057E+01
             -0.426521613346634E+02
              0.366472928688544E+02
             -0.216947043904366E+02
              0.518586700108223E+02
             -0.889327731819712E+02
              0.599606307875837E+02
             -0.220149586189509E+01
             -0.369633999360743E+02
             -0.216743356954084E+02
              0.470942469754586E+01
              0.375880561411523E+02
             -0.757912527716553E+02
             -0.120925551186000E+02
             -0.217139862057020E+02
              0.511802991327723E+02
              0.866792469523470E+02
             -0.967850012050216E+02
              0.945977838619218E+02
              0.468159901855593E+02
             -0.727178744111067E+02
             -0.367068260351251E+02
              0.753970419791545E+02
              0.633197063637838E+02
             -0.181966489764607E+02
             -0.465174849758199E+01
              0.739023699493184E+01
              0.651211242716857E+02
             -0.510005367027443E+02
              0.158442255220620E+02
             -0.475240125303166E+01
              0.347959473275552E+02
             -0.748604021562402E+02
             -0.647076324792570E+01
             -0.351386321458114E+02
              0.461880215097534E+02
              0.469492090419714E+02
             -0.864132317927459E+02
             -0.488061948920016E+02
             -0.256551238322435E+02
             -0.340887912605480E+02
             -0.109450680347901E+02
             -0.242768863490804E+02
              0.428462058950957E+02
              0.401849254297143E+02
             -0.561268655958889E+01
             -0.417555412492498E+02
             -0.852799489813417E+02
              0.444548969443509E+02
             -0.524084701140550E+02
             -0.314342979406955E+02
              0.548033786216747E+01
             -0.323749311064012E+02
             -0.398791635076826E+02
             -0.241170683266287E+02
             -0.387206092269792E+02
             -0.271173878395674E+02
             -0.483678656344912E+02
              0.564885619610564E+02
              0.639162736567814E+02
             -0.176681949993758E+01
             -0.261569189967620E+02
             -0.624313494235867E+01
              0.442434686338102E+02
             -0.869630333178728E+02
[...]
              0.283920970121022E+02
              0.142056256287143E+03
              0.243326046105257E+02
              0.122984303976970E+02
             -0.465065092067651E+02
             -0.638546797805163E+02
             -0.189288856517918E+02
              0.330584828505530E+02
             -0.429013504825230E+01
              0.191024964613982E+02
              0.337027269268856E+02
             -0.587199667378320E+02
              0.223090712698933E+02
              0.581960678741696E+02
              0.553645597483944E+02
             -0.421210025994742E+01
             -0.132507344259443E+01
             -0.995033598884362E+01
             -0.483067935402252E+02
             -0.676462319164223E+02
              0.786723568825806E+02
             -0.525343616154055E+01
             -0.588725534698643E+02
              0.175888875054051E+01
             -0.206062608707150E+02
              0.940165807193502E+02
             -0.217180710887793E+02
             -0.354479543288168E+02
              0.336354580165134E+02
             -0.146278673265703E+02
              0.390597644991424E+02
             -0.230608132229793E+01
              0.101236462735388E+03
              0.491063679177977E+02
             -0.503078307438268E+01
             -0.322878014779043E+02
              0.233064884859451E+02
             -0.529590899630677E+02
             -0.127831068907763E+02
              0.587022917058572E+02
             -0.288273229011472E+02
             -0.439032818076017E+02
             -0.223816815759334E+02
              0.519522804272577E+02
              0.124777433917882E+02
             -0.850281430752010E+02
              0.304654387097290E+02
              0.151895847225500E+02
              0.581737517463910E+01
             -0.514475034050677E+02
             -0.374432233564511E+01
              0.323658748033845E+02
              0.513348270302492E+02
              0.634344424083756E+02
              0.229903646498085E+02
              0.754748814532604E+00
             -0.499467812084235E+02
             -0.510937922080280E+02
             -0.748652220705692E+02
             -0.622728543727953E+01
              0.309792733298124E+02
             -0.378152197190150E+01
              0.547784502451617E+02
             -0.318734344741312E+02
              0.166609485489635E+02
             -0.103603644667341E+02
             -0.290280850011922E+02
              0.587025263383232E+02
              0.792621134820217E+01
              0.605856541817967E+02
              0.510978350548544E+01
              0.265148598607830E+02
             -0.193048821524634E+02
              0.587235293480556E+02
             -0.112316114705020E+02
             -0.976636551026253E-01
             -0.791716558741444E+02
             -0.128330953877694E+02
              0.720317279701630E+02
              0.674045176450405E+02
              0.252657416679745E+02
             -0.130791428103221E+02
              0.348924803372233E+01
             -0.174291231129257E+02
             -0.216114601602635E+01
              0.909886283251320E+02
              0.128686131453662E+01
             -0.191249765872214E+02
             -0.110931772637832E+03
             -0.552837782647692E+02
             -0.375914680394131E+02
             -0.659495245184688E+02
             -0.556879183569799E+02
             -0.683826972514132E+02
             -0.448108248390473E+02
             -0.411098436795671E+02
             -0.452996808120902E+02
              0.484428317991089E+02
             -0.294027479546710E+02
             -0.995946355313692E+02
              0.419718663412468E+02
             -0.260850347841770E+02
             -0.792315267884325E+02
              0.945772741221894E+02
             -0.220383199717155E+02
              0.228087698128376E+02
              0.455598990981740E+02
             -0.125591036743032E+01
              0.255186551153924E+02
              0.471029031381465E+01
              0.417410454729360E+00
             -0.151153803180330E+02
             -0.717539221991923E+02
              0.133477564025237E+02
             -0.129582300365193E+03
              0.626184611078078E+02
             -0.441502510973221E+02
             -0.163530972824365E+02
             -0.158627404040608E+02
              0.722541904411430E+01
             -0.227807247601594E+02
              0.297353826608798E+02
             -0.521803346348022E+02
              0.367679481114054E+02
              0.372187046219486E+02
              0.168016066084139E+02
              0.101002398325995E+02
              0.198298682938926E+02
              0.626601288006020E+01
              0.310575654654758E+02
             -0.798795043237470E+01
             -0.594587260074830E+02
              0.759149938160147E+01
             -0.153460260111374E+02
             -0.195763628859697E+01
              0.507912387008540E+02
             -0.828265761292099E+02
             -0.145942171275664E+01
              0.595298606672259E+00
              0.998230741837529E+01
              0.318894817740552E+02
             -0.123745760750940E+02
              0.837206849771981E+02
              0.487799537490669E+02
             -0.183302299263129E+02
             -0.953374472170071E+01
              0.109369071705672E+01
              0.770864289411592E+02
             -0.586904996976665E+02
             -0.105949473088551E+03
              0.309911717387139E+02
             -0.163579077696810E+02
             -0.140129442185654E+02
              0.130921057600192E+02
              0.769789204063375E+02
              0.464886876430936E+02
             -0.153639912852715E+02
             -0.504236782016075E+02
             -0.553989521170044E+01
              0.306880842145950E+02
             -0.112129277219341E+02
             -0.757338610618017E+02
             -0.276763689380246E+01
             -0.892138728374861E+02
             -0.476778599403553E+02
              0.770616808144740E+02
             -0.484761991204905E+02
             -0.638151593591040E+02
             -0.515336477634225E+02
             -0.350696296165331E+02
              0.341963398205482E+02
              0.823436148354882E+02
             -0.363411743477286E+01
              0.277020169251974E+02
             -0.184472648187393E+02
             -0.695395485381920E+02
              0.466087030427826E+02
             -0.446197581143201E+02
              0.321861674493558E+02
              0.376491093411474E+02
             -0.661096825370851E+01
              0.390671016572219E+02
              0.438848787147178E+02
              0.100967051693886E+03
             -0.155810076734310E+02
             -0.457828631247611E+02
             -0.613992200478874E+02
             -0.124475296773842E+02
             -0.234342676161908E+02
              0.103154710588784E+03
             -0.450013733671770E+02
              0.105404421170053E+02
              0.968822906790012E+01
             -0.264802145352265E+02
             -0.801048973159781E+02
             -0.701011016494618E+01
              0.981927222954510E+02
              0.946734214932118E+01
              0.809128394095751E+01
             -0.528667623557956E+02
             -0.606431518260008E+02
             -0.570259938406151E+01
              0.501158179193745E+02
             -0.222536479583335E+02
              0.108148506958455E+03
             -0.437168044236033E+02
              0.146797886754159E+02
             -0.223816819072366E+02
             -0.719707055845331E+02
              0.169996247280068E+01
             -0.502843434327206E+02
             -0.762037688014675E+02
              0.621693726919068E+01
              0.235636758139091E+01
              0.515182907173605E+02
              0.187934018899405E+02
             -0.324434717194422E+02
              0.230273929287456E+02
             -0.813312812916386E+02
             -0.522347050141863E+02
              0.903502996076563E+02
              0.141961073974297E+02
             -0.187691127798697E+02
             -0.352638018496198E+02
             -0.271346908595410E+01
             -0.591286914576142E+01
              0.832685827106453E+02
              0.418748184824936E+02
             -0.165797410937965E+02
             -0.121358339659816E+02
             -0.428167836484491E+02
             -0.200540145628702E+02
             -0.670885764454579E+02
              0.460866381737423E+02
              0.548605561031852E+01
              0.144799914730503E+02
              0.156812493379924E+02
             -0.613187047791861E+00
             -0.169048212068603E+02
             -0.299227842603364E+01
             -0.100681026989481E+03
             -0.230000609738632E+02
             -0.770262415737960E+01
             -0.948842340109749E+01
              0.546723619965808E+02
              0.625425861999277E+02
              0.165247048582602E+02
             -0.972380670737344E+02
              0.648568718312241E+02
             -0.215322807603650E+02
             -0.377713471864419E+02
             -0.865907028703552E+02
             -0.387005611828795E+02
              0.566322448317854E+02
              0.245335768489344E+02
              0.518031646361635E+01
              0.293137397951746E+02
             -0.566021764226002E+02
             -0.423533287762043E+02
              0.516662535489600E+02
              0.387927776217736E+02
              0.519540375557991E+02
             -0.112847802011169E+01
              0.689391562682897E+01
              0.570459878483811E+02
              0.964575284668462E+02
             -0.300148862029292E+02
              0.323974494334286E+02
             -0.120180542998354E+02
             -0.413038311769830E+02
             -0.315249156049141E+02
             -0.301274121022169E+02
             -0.131668795135653E+02
             -0.524130673806983E+02
             -0.217228074905616E+02
             -0.141406137677183E+03
              0.369575544760037E+02
              0.207361645291408E+02
             -0.396196291899814E+01
             -0.380655584922198E+02
             -0.204287010233766E+02
             -0.528134854054470E+02
              0.151213429391953E+02
              0.821484112287118E+02
             -0.252513989707033E+02
             -0.163438543778874E+02
              0.238574955239342E+02
             -0.490686502961077E+02
              0.881915083335821E+02
              0.154498813424063E+02
              0.226057024835894E+02
              0.490958261133279E+02
              0.314579144068301E+01
              0.543127241809975E+02
              0.143580557408765E+02
             -0.106194846879522E+02
              0.732863099079449E+01
              0.716391090958382E+00
              0.727986117458207E+02
              0.101413766742799E+02
              0.121266340611843E+02
             -0.130400272415214E+02
              0.132644101646935E+02
             -0.912947961103337E+02
             -0.326336181118922E+02
             -0.458461100867588E+02
              0.485786304157531E+02
             -0.291870122834507E+02
             -0.659185936515389E+02
              0.539738877716977E+02
             -0.122105697480579E+02
              0.440673502514579E+02
             -0.900265140774986E+02
              0.231955803840333E+02
              0.855752086332163E+01
              0.586319134031100E+01
             -0.836786825509495E+01
             -0.906140545499932E+01
              0.480474712349971E+02
              0.199612375548105E+01
             -0.476425331950554E+02
             -0.176733333340666E+02
              0.276639971959844E+02
             -0.118146238601052E+03
             -0.931080191174433E+02
              0.394975986649979E+01
              0.118219447862003E+02
             -0.414595072146832E+02
             -0.387305918590738E+01
              0.112268866011871E+03
              0.306572088218892E+02
             -0.572494533001849E+02
              0.926378129705168E+01
             -0.966450141439752E+01
              0.106137694969177E+02
             -0.338658251336844E+02
              0.196191760466868E+02
              0.285008210523000E+02
             -0.299748397420746E+01
              0.108401173523434E+03
             -0.140115440235166E+02
             -0.316465302272391E+02
              0.143858608318084E+02
              0.467358548588663E+02
             -0.356250174247832E+02
             -0.317297024670210E+01
              0.966829375381736E+02
             -0.463256434552511E+01
              0.622725735025384E+02
              0.135776987859116E+02
             -0.899811601758570E+01
             -0.305429126271609E+02
              0.567114962046381E+02
             -0.515410364096173E+02
             -0.219844739378658E+01
             -0.170510757701941E+02
             -0.405825376896604E+02
              0.185294017815102E+02
              0.240108861687711E+02
              0.115857182330226E+02
              0.722576829064678E+00
             -0.385465269640773E+02
              0.215301427862986E+02
             -0.673813398133507E+01
             -0.246645120468157E+02
             -0.210814134822794E+02
              0.203105307765155E+02
             -0.597375362544426E+01
             -0.349972165841481E+02
             -0.106864954502672E+03
              0.103281549666000E+02
              0.248634092415377E+02
             -0.388521057931057E+02
             -0.211561762754474E+02
              0.808777294164299E+02
              0.657656641781585E+01
              0.311995799405128E+02
              0.395380972766509E+01
              0.322791577106847E+02
              0.647616023208468E+01
             -0.373653659274280E+02
             -0.241557978375116E+01
              0.876257556393813E+01
              0.274724971035693E+02
              0.782864011330490E+02
              0.508327989846049E+02
              0.205073203761117E+00
              0.169724001277912E+02
              0.614433158754057E+02
              0.236540406978609E+02
             -0.753787749130438E+02
             -0.274281573740760E+02
              0.151010743270529E+02
              0.564012412016928E+01
              0.255425788607204E+02
             -0.548573176619274E+02
              0.897309847037327E+01
              0.387128092093925E+02
              0.498853455152224E+02
             -0.435612256879391E+02
             -0.685483877496085E+01
             -0.209131829152699E+01
             -0.134206426836379E+02
             -0.365632654479037E+02
             -0.215297051172040E+02
             -0.210987024880956E+01
              0.796752652157318E+01
              0.422247537005614E+02
             -0.308862731604399E+02
              0.827702776551916E+02
              0.328044176136759E+02
              0.220535470763829E+02
              0.334027289180448E+02
              0.323257888897915E+02
              0.347339438015805E+02
              0.538174937661033E+02
             -0.434805717811382E+02
              0.620834943065385E+02
             -0.112516092687095E+03
              0.307881927434901E+02
             -0.106719451249895E+03
              0.856122506751235E+02
              0.692256147589860E+02
             -0.109974988378082E+02
             -0.493956002332308E+02
             -0.430515900419105E+02
             -0.624299031688854E+02
             -0.630121133565794E+02
              0.553063760227407E+02
              0.406227438741629E+02
              0.237205772522727E+02
              0.373839303555460E+02
              0.404434708145477E+02
             -0.382954138877889E+02
             -0.198068557027286E+02
              0.587548955543414E+02
             -0.116430140633275E+02
              0.552896233564201E+02
              0.701099531697172E+02
             -0.557487885408589E+01
             -0.707857508959490E+02
             -0.835245131076590E+00
             -0.248572404619067E+01
             -0.884724967290936E+01
             -0.180908723595019E+01
             -0.654047479183854E+02
             -0.210292128507254E+02
              0.544113857628842E+01
              0.906345024631668E+01
              0.470025240400774E+02
             -0.398733306374097E+02
              0.657743768788281E+02
             -0.425977464983998E+02
              0.211264198781099E+02
              0.351223855382324E+02
 
 BEEF-vdW xc energy contributions
           1 :   -784.030880742638     
           2 :    719.982787990284     
           3 :   -609.186032990925     
           4 :    478.903251300822     
           5 :   -356.746232674001     
           6 :    262.548044027835     
           7 :   -203.902872769889     
           8 :    176.187783656079     
           9 :   -166.629894000319     
          10 :    160.503004027136     
          11 :   -146.932355902494     
          12 :    122.127511334067     
          13 :   -89.2127537999002     
          14 :    55.2898441240500     
          15 :   -27.4219550431455     
          16 :    9.35924507267453     
          17 :  -0.270329195926251     
          18 :   -4.28029360678374     
          19 :    9.82661319244619     
          20 :   -20.2815990240731     
          21 :    36.2508822882555     
          22 :   -55.0447253300716     
          23 :    72.2135453158976     
          24 :   -83.7698220587970     
          25 :    88.0026943148544     
          26 :   -86.0887896879291     
          27 :    81.3199298137754     
          28 :   -77.4128841053796     
          29 :    76.7459150823366     
          30 :   -79.3550310565762     
          31 :   -86.0802461678364     
          32 :   -65.9152897429138     

     Writing output data file ./pwscf.save/
 
     init_run     :    353.47s CPU    358.03s WALL (       1 calls)
     electrons    :  13614.03s CPU  13736.11s WALL (       1 calls)
     forces       :    104.55s CPU    105.78s WALL (       1 calls)

     Called by init_run:
     wfcinit      :    306.09s CPU    309.65s WALL (       1 calls)
     potinit      :     44.34s CPU     44.70s WALL (       1 calls)
     hinit0       :      1.13s CPU      1.17s WALL (       1 calls)

     Called by electrons:
     c_bands      :  11379.43s CPU  11474.45s WALL (      19 calls)
     sum_band     :   1583.25s CPU   1594.78s WALL (      19 calls)
     v_of_rho     :    109.48s CPU    113.72s WALL (      20 calls)
     newd         :     30.59s CPU     42.03s WALL (      20 calls)
     PAW_pot      :    133.50s CPU    133.51s WALL (      20 calls)
     mix_rho      :    422.89s CPU    423.59s WALL (      19 calls)
     vdW_kernel   :     33.47s CPU     33.47s WALL (       1 calls)

     Called by c_bands:
     init_us_2    :     77.80s CPU     78.07s WALL (     520 calls)
     cegterg      :  10603.74s CPU  10698.45s WALL (     247 calls)

     Called by *egterg:
     cdiaghg      :    105.53s CPU    105.57s WALL (    1627 calls)
     h_psi        :   6890.94s CPU   6924.06s WALL (    1640 calls)
     s_psi        :   1117.33s CPU   1117.40s WALL (    1640 calls)
     g_psi        :     16.68s CPU     16.70s WALL (    1380 calls)

     Called by h_psi:
     h_psi:calbec :   1043.30s CPU   1043.49s WALL (    1640 calls)
     vloc_psi     :   4705.16s CPU   4706.88s WALL (    1640 calls)
     add_vuspsi   :   1116.65s CPU   1116.74s WALL (    1640 calls)

     General routines
     calbec       :   1518.57s CPU   1518.81s WALL (    1939 calls)
     fft          :     52.57s CPU     52.60s WALL (    3219 calls)
     ffts         :    135.83s CPU    135.86s WALL (    8869 calls)
     fftw         :   4759.45s CPU   4760.55s WALL (  327059 calls)
 
     Parallel routines
 
     PWSCF        :      3h56m CPU      3h58m WALL

 
   This run was terminated on:   2:35:10   4Jan2023            

=------------------------------------------------------------------------------=
   JOB DONE.
=------------------------------------------------------------------------------=
