
     Program PWSCF v.6.7MaX starts on  3Jan2023 at 22:42:43 

     This program is part of the open-source Quantum ESPRESSO suite
     for quantum simulation of materials; please cite
         "P. Giannozzi et al., J. Phys.:Condens. Matter 21 395502 (2009);
         "P. Giannozzi et al., J. Phys.:Condens. Matter 29 465901 (2017);
          URL http://www.quantum-espresso.org", 
     in publications or presentations arising from this work. More details at
     http://www.quantum-espresso.org/quote

     Parallel version (MPI), running on     1 processors

     MPI processes distributed on     1 nodes
     Reading input from ch2coh-bi-ensemble.in
Warning: card &CELL ignored
Warning: card / ignored

     Current dimensions of program PWSCF are:
     Max number of different atomic species (ntypx) = 10
     Max number of k-points (npk) =  40000
     Max angular momentum in pseudopotentials (lmaxx) =  3
     file Pt.pbe-n-kjpaw_psl.1.0.0.UPF: wavefunction(s)  6S 5D renormalized
     file C.pbe-n-kjpaw_psl.1.0.0.UPF: wavefunction(s)  2S 2P renormalized
     file O.pbe-nl-kjpaw_psl.1.0.0.UPF: wavefunction(s)  2S 2P renormalized
     file H.pbe-kjpaw_psl.1.0.0.UPF: wavefunction(s)  1S renormalized

     **************************************************************************
     Initializing libbeef V0.1.2 with the BEEF-vdW functional.
     Citation: Wellendorff et al., PRB 85, 235149 (2012).
     **************************************************************************


     IMPORTANT: XC functional enforced from input :
     Exchange-correlation= BEEF-VDW
                           (   1   4  43  14   2   0   0)
     Any further DFT definition will be discarded
     Please, verify this is what you really want


     Subspace diagonalization in iterative solution of the eigenvalue problem:
     a serial algorithm will be used

 
     G-vector sticks info
     --------------------
     sticks:   dense  smooth     PW     G-vecs:    dense   smooth      PW
     Sum        4267    4267   1159               709289   709289   99953
 


     bravais-lattice index     =            0
     lattice parameter (alat)  =      16.0349  a.u.
     unit-cell volume          =   11294.0790 (a.u.)^3
     number of atoms/cell      =           42
     number of atomic types    =            4
     number of electrons       =       377.00
     number of Kohn-Sham states=          227
     kinetic-energy cutoff     =      60.0000  Ry
     charge density cutoff     =     240.0000  Ry
     scf convergence threshold =      1.0E-06
     mixing beta               =       0.7000
     number of iterations used =            8  local-TF  mixing
     Exchange-correlation= BEEF-VDW
                           (   1   4  43  14   2   0   0)

     celldm(1)=  16.034858  celldm(2)=   0.000000  celldm(3)=   0.000000
     celldm(4)=   0.000000  celldm(5)=   0.000000  celldm(6)=   0.000000

     crystal axes: (cart. coord. in units of alat)
               a(1) = (   1.000000   0.000000   0.000000 )  
               a(2) = (   0.500000   0.866025   0.000000 )  
               a(3) = (   0.000000   0.000000   3.163187 )  

     reciprocal axes: (cart. coord. in units 2 pi/alat)
               b(1) = (  1.000000 -0.577350  0.000000 )  
               b(2) = (  0.000000  1.154701  0.000000 )  
               b(3) = (  0.000000  0.000000  0.316137 )  


     PseudoPot. # 1 for Pt read from file:
     /users/bkreitz1/quantum-espresso/potentials/Pt.pbe-n-kjpaw_psl.1.0.0.UPF
     MD5 check sum: 04dc8a03c51ece93fc7b5889c2958091
     Pseudo is Projector augmented-wave + core cor, Zval = 10.0
     Generated using 'atomic' code by A. Dal Corso  v.6.7MaX
     Shape of augmentation charge: PSQ
     Using radial grid of 1277 points,  6 beta functions with: 
                l(1) =   0
                l(2) =   0
                l(3) =   1
                l(4) =   1
                l(5) =   2
                l(6) =   2
     Q(r) pseudized with 0 coefficients 


     PseudoPot. # 2 for C  read from file:
     /users/bkreitz1/quantum-espresso/potentials/C.pbe-n-kjpaw_psl.1.0.0.UPF
     MD5 check sum: a169b0ebad56f5ec0d79c4633f80bf22
     Pseudo is Projector augmented-wave + core cor, Zval =  4.0
     Generated using 'atomic' code by A. Dal Corso  v.6.7MaX
     Shape of augmentation charge: PSQ
     Using radial grid of 1073 points,  4 beta functions with: 
                l(1) =   0
                l(2) =   0
                l(3) =   1
                l(4) =   1
     Q(r) pseudized with 0 coefficients 


     PseudoPot. # 3 for O  read from file:
     /users/bkreitz1/quantum-espresso/potentials/O.pbe-nl-kjpaw_psl.1.0.0.UPF
     MD5 check sum: eef08af8b58d9ec80f8fdb78829eb7cf
     Pseudo is Projector augmented-wave + core cor, Zval =  6.0
     Generated using 'atomic' code by A. Dal Corso  v.6.7MaX
     Shape of augmentation charge: PSQ
     Using radial grid of 1095 points,  4 beta functions with: 
                l(1) =   0
                l(2) =   0
                l(3) =   1
                l(4) =   1
     Q(r) pseudized with 0 coefficients 


     PseudoPot. # 4 for H  read from file:
     /users/bkreitz1/quantum-espresso/potentials/H.pbe-kjpaw_psl.1.0.0.UPF
     MD5 check sum: ae98473e6dc62675f0d0baffdab24f65
     Pseudo is Projector augmented-wave, Zval =  1.0
     Generated using 'atomic' code by A. Dal Corso  v.6.7MaX
     Shape of augmentation charge: PSQ
     Using radial grid of  929 points,  2 beta functions with: 
                l(1) =   0
                l(2) =   0
     Q(r) pseudized with 0 coefficients 


     atomic species   valence    mass     pseudopotential
        Pt            10.00   195.08400     Pt( 1.00)
        C              4.00    12.01100     C ( 1.00)
        O              6.00    15.99900     O ( 1.00)
        H              1.00     1.00800     H ( 1.00)

     No symmetry found



   Cartesian axes

     site n.     atom                  positions (alat units)
         1           Pt  tau(   1) = (   0.0000000   0.0000000   1.0017346  )
         2           Pt  tau(   2) = (   0.3333333   0.0000000   1.0017346  )
         3           Pt  tau(   3) = (   0.6666667   0.0000000   1.0017346  )
         4           Pt  tau(   4) = (   0.1666667   0.2886751   1.0017346  )
         5           Pt  tau(   5) = (   0.5000000   0.2886751   1.0017346  )
         6           Pt  tau(   6) = (   0.8333333   0.2886751   1.0017346  )
         7           Pt  tau(   7) = (   0.3333333   0.5773503   1.0017346  )
         8           Pt  tau(   8) = (   0.6666667   0.5773503   1.0017346  )
         9           Pt  tau(   9) = (   1.0000000   0.5773503   1.0017346  )
        10           Pt  tau(  10) = (   0.1666667   0.0962250   1.2739001  )
        11           Pt  tau(  11) = (   0.5000000   0.0962250   1.2739001  )
        12           Pt  tau(  12) = (   0.8333333   0.0962250   1.2739001  )
        13           Pt  tau(  13) = (   0.3333333   0.3849002   1.2739001  )
        14           Pt  tau(  14) = (   0.6666667   0.3849002   1.2739001  )
        15           Pt  tau(  15) = (   1.0000000   0.3849002   1.2739001  )
        16           Pt  tau(  16) = (   0.5000000   0.6735753   1.2739001  )
        17           Pt  tau(  17) = (   0.8333333   0.6735753   1.2739001  )
        18           Pt  tau(  18) = (   1.1666667   0.6735753   1.2739001  )
        19           Pt  tau(  19) = (  -0.0005795   0.1924041   1.5421775  )
        20           Pt  tau(  20) = (   0.3326695   0.1937861   1.5395656  )
        21           Pt  tau(  21) = (   0.6651166   0.1923073   1.5418501  )
        22           Pt  tau(  22) = (   0.1638312   0.4832838   1.5480117  )
        23           Pt  tau(  23) = (   0.5014219   0.4835129   1.5480625  )
        24           Pt  tau(  24) = (   0.8326708   0.4817329   1.5454938  )
        25           Pt  tau(  25) = (   0.3323518   0.7698574   1.5435707  )
        26           Pt  tau(  26) = (   0.6655803   0.7681968   1.5456559  )
        27           Pt  tau(  27) = (   0.9991103   0.7673346   1.5471990  )
        28           Pt  tau(  28) = (  -0.0028652   0.0013191   1.8176617  )
        29           Pt  tau(  29) = (   0.3300730   0.0069356   1.8131450  )
        30           Pt  tau(  30) = (   0.6651028   0.0023404   1.8177454  )
        31           Pt  tau(  31) = (   0.1657508   0.2887983   1.8167165  )
        32           Pt  tau(  32) = (   0.4964092   0.2890970   1.8173108  )
        33           Pt  tau(  33) = (   0.8302058   0.2858046   1.8146071  )
        34           Pt  tau(  34) = (   0.3314731   0.5783005   1.8203151  )
        35           Pt  tau(  35) = (   0.6615832   0.5775473   1.8356943  )
        36           Pt  tau(  36) = (   0.9975968   0.5810780   1.8369119  )
        37           C   tau(  37) = (   0.9137621   0.5411606   2.0443994  )
        38           C   tau(  38) = (   0.7465459   0.5788970   2.0685851  )
        39           O   tau(  39) = (   0.9910847   0.4738560   2.1618529  )
        40           H   tau(  40) = (   0.7311011   0.6993411   2.1117885  )
        41           H   tau(  41) = (   0.6862358   0.4940494   2.1442629  )
        42           H   tau(  42) = (   1.0963453   0.4434986   2.1268158  )

     number of k points=    13  Marzari-Vanderbilt smearing, width (Ry)=  0.0200
                       cart. coord. in units 2pi/alat
        k(    1) = (   0.0000000   0.0000000   0.0000000), wk =   0.0800000
        k(    2) = (   0.0000000   0.2309401   0.0000000), wk =   0.1600000
        k(    3) = (   0.0000000   0.4618802   0.0000000), wk =   0.1600000
        k(    4) = (   0.2000000  -0.1154701   0.0000000), wk =   0.1600000
        k(    5) = (   0.2000000   0.1154701   0.0000000), wk =   0.1600000
        k(    6) = (   0.2000000   0.3464102   0.0000000), wk =   0.1600000
        k(    7) = (   0.2000000  -0.5773503   0.0000000), wk =   0.1600000
        k(    8) = (   0.2000000  -0.3464102   0.0000000), wk =   0.1600000
        k(    9) = (   0.4000000  -0.2309401   0.0000000), wk =   0.1600000
        k(   10) = (   0.4000000  -0.0000000   0.0000000), wk =   0.1600000
        k(   11) = (   0.4000000   0.2309401   0.0000000), wk =   0.1600000
        k(   12) = (   0.4000000  -0.6928203   0.0000000), wk =   0.1600000
        k(   13) = (   0.4000000  -0.4618802   0.0000000), wk =   0.1600000

     Dense  grid:   709289 G-vectors     FFT dimensions: (  80,  80, 256)

     Estimated max dynamical RAM per process >       8.65 GB

     Check: negative core charge=   -0.000002

     Initial potential from superposition of free atoms

     starting charge  376.99378, renormalised to  377.00000

     negative rho (up, down):  1.163E-02 0.000E+00


     %%%%%%%%%%%%%%%%%%%%%%%%%%%%%%%%%%%%%%%%%%%%%%%%%%%%%%%%%%%%%%%%%%%%%%%%
     %                                                                      %
     % You are using vdW-DF, which was implemented by the Thonhauser group. %
     % Please cite the following two papers that made this development      %
     % possible and the two reviews that describe the various versions:     %
     %                                                                      %
     %   T. Thonhauser et al., PRL 115, 136402 (2015).                      %
     %   T. Thonhauser et al., PRB 76, 125112 (2007).                       %
     %   K. Berland et al., Rep. Prog. Phys. 78, 066501 (2015).             %
     %   D.C. Langreth et al., J. Phys.: Condens. Matter 21, 084203 (2009). %
     %                                                                      %
     %                                                                      %
     % If you are calculating the stress with vdW-DF, please also cite:     %
     %                                                                      %
     %   R. Sabatini et al., J. Phys.: Condens. Matter 24, 424209 (2012).   %
     %                                                                      %
     %%%%%%%%%%%%%%%%%%%%%%%%%%%%%%%%%%%%%%%%%%%%%%%%%%%%%%%%%%%%%%%%%%%%%%%%


     Starting wfcs are  339 randomized atomic wfcs
     Checking if some PAW data can be deallocated... 

     total cpu time spent up to now is      351.0 secs

     Self-consistent Calculation

     iteration #  1     ecut=    60.00 Ry     beta= 0.70
     Davidson diagonalization with overlap
     ethr =  1.00E-02,  avg # of iterations =  2.4

     Threshold (ethr) on eigenvalues was too large:
     Diagonalizing with lowered threshold

     Davidson diagonalization with overlap
     ethr =  7.29E-04,  avg # of iterations =  2.8

     negative rho (up, down):  1.261E-02 0.000E+00

     total cpu time spent up to now is     1683.9 secs

     total energy              =  -27838.04814396 Ry
     estimated scf accuracy    <       2.99712053 Ry

     iteration #  2     ecut=    60.00 Ry     beta= 0.70
     Davidson diagonalization with overlap
     ethr =  7.95E-04,  avg # of iterations =  2.0

     negative rho (up, down):  1.085E-02 0.000E+00

     total cpu time spent up to now is     2292.6 secs

     total energy              =  -27838.28158985 Ry
     estimated scf accuracy    <       1.13612361 Ry

     iteration #  3     ecut=    60.00 Ry     beta= 0.70
     Davidson diagonalization with overlap
     ethr =  3.01E-04,  avg # of iterations =  4.8

     negative rho (up, down):  8.598E-03 0.000E+00

     total cpu time spent up to now is     2937.5 secs

     total energy              =  -27838.35045470 Ry
     estimated scf accuracy    <       0.40602195 Ry

     iteration #  4     ecut=    60.00 Ry     beta= 0.70
     Davidson diagonalization with overlap
     c_bands:  1 eigenvalues not converged
     c_bands:  2 eigenvalues not converged
     c_bands:  1 eigenvalues not converged
     ethr =  1.08E-04,  avg # of iterations = 11.2

     negative rho (up, down):  6.507E-03 0.000E+00

     total cpu time spent up to now is     3702.0 secs

     total energy              =  -27838.39225287 Ry
     estimated scf accuracy    <       0.15514769 Ry

     iteration #  5     ecut=    60.00 Ry     beta= 0.70
     Davidson diagonalization with overlap
     ethr =  4.12E-05,  avg # of iterations =  6.2

     negative rho (up, down):  5.057E-03 0.000E+00

     total cpu time spent up to now is     4425.9 secs

     total energy              =  -27838.40809619 Ry
     estimated scf accuracy    <       0.08137033 Ry

     iteration #  6     ecut=    60.00 Ry     beta= 0.70
     Davidson diagonalization with overlap
     ethr =  2.16E-05,  avg # of iterations =  3.9

     negative rho (up, down):  3.878E-03 0.000E+00

     total cpu time spent up to now is     5065.9 secs

     total energy              =  -27838.41223137 Ry
     estimated scf accuracy    <       0.01275681 Ry

     iteration #  7     ecut=    60.00 Ry     beta= 0.70
     Davidson diagonalization with overlap
     c_bands:  3 eigenvalues not converged
     c_bands:  1 eigenvalues not converged
     c_bands:  2 eigenvalues not converged
     c_bands:  1 eigenvalues not converged
     c_bands:  1 eigenvalues not converged
     ethr =  3.38E-06,  avg # of iterations = 16.4

     negative rho (up, down):  3.691E-03 0.000E+00

     total cpu time spent up to now is     6147.1 secs

     total energy              =  -27838.41667362 Ry
     estimated scf accuracy    <       0.00363585 Ry

     iteration #  8     ecut=    60.00 Ry     beta= 0.70
     Davidson diagonalization with overlap
     c_bands:  2 eigenvalues not converged
     ethr =  9.64E-07,  avg # of iterations =  7.1

     negative rho (up, down):  3.721E-03 0.000E+00

     total cpu time spent up to now is     6873.9 secs

     total energy              =  -27838.41715946 Ry
     estimated scf accuracy    <       0.00223990 Ry

     iteration #  9     ecut=    60.00 Ry     beta= 0.70
     Davidson diagonalization with overlap
     ethr =  5.94E-07,  avg # of iterations =  3.6

     negative rho (up, down):  4.099E-03 0.000E+00

     total cpu time spent up to now is     7479.6 secs

     total energy              =  -27838.41724982 Ry
     estimated scf accuracy    <       0.00167527 Ry

     iteration # 10     ecut=    60.00 Ry     beta= 0.70
     Davidson diagonalization with overlap
     ethr =  4.44E-07,  avg # of iterations =  5.0

     negative rho (up, down):  4.988E-03 0.000E+00

     total cpu time spent up to now is     8106.2 secs

     total energy              =  -27838.41726263 Ry
     estimated scf accuracy    <       0.00140986 Ry

     iteration # 11     ecut=    60.00 Ry     beta= 0.70
     Davidson diagonalization with overlap
     ethr =  3.74E-07,  avg # of iterations =  6.5

     negative rho (up, down):  7.532E-03 0.000E+00

     total cpu time spent up to now is     8749.3 secs

     total energy              =  -27838.41723647 Ry
     estimated scf accuracy    <       0.00098048 Ry

     iteration # 12     ecut=    60.00 Ry     beta= 0.70
     Davidson diagonalization with overlap
     ethr =  2.60E-07,  avg # of iterations =  3.1

     negative rho (up, down):  9.333E-03 0.000E+00

     total cpu time spent up to now is     9341.8 secs

     total energy              =  -27838.41726120 Ry
     estimated scf accuracy    <       0.00036825 Ry

     iteration # 13     ecut=    60.00 Ry     beta= 0.70
     Davidson diagonalization with overlap
     ethr =  9.77E-08,  avg # of iterations =  2.0

     negative rho (up, down):  9.968E-03 0.000E+00

     total cpu time spent up to now is     9935.6 secs

     total energy              =  -27838.41730052 Ry
     estimated scf accuracy    <       0.00009749 Ry

     iteration # 14     ecut=    60.00 Ry     beta= 0.70
     Davidson diagonalization with overlap
     ethr =  2.59E-08,  avg # of iterations =  3.8

     negative rho (up, down):  1.022E-02 0.000E+00

     total cpu time spent up to now is    10588.5 secs

     total energy              =  -27838.41731929 Ry
     estimated scf accuracy    <       0.00004591 Ry

     iteration # 15     ecut=    60.00 Ry     beta= 0.70
     Davidson diagonalization with overlap
     ethr =  1.22E-08,  avg # of iterations =  2.2

     negative rho (up, down):  1.091E-02 0.000E+00

     total cpu time spent up to now is    11205.4 secs

     total energy              =  -27838.41732629 Ry
     estimated scf accuracy    <       0.00003864 Ry

     iteration # 16     ecut=    60.00 Ry     beta= 0.70
     Davidson diagonalization with overlap
     ethr =  1.02E-08,  avg # of iterations =  2.0

     negative rho (up, down):  1.194E-02 0.000E+00

     total cpu time spent up to now is    11800.4 secs

     total energy              =  -27838.41732368 Ry
     estimated scf accuracy    <       0.00001351 Ry

     iteration # 17     ecut=    60.00 Ry     beta= 0.70
     Davidson diagonalization with overlap
     ethr =  3.58E-09,  avg # of iterations =  3.7

     negative rho (up, down):  1.234E-02 0.000E+00

     total cpu time spent up to now is    12474.0 secs

     total energy              =  -27838.41732418 Ry
     estimated scf accuracy    <       0.00001597 Ry

     iteration # 18     ecut=    60.00 Ry     beta= 0.70
     Davidson diagonalization with overlap
     ethr =  3.58E-09,  avg # of iterations =  1.0

     negative rho (up, down):  1.248E-02 0.000E+00

     total cpu time spent up to now is    13023.6 secs

     total energy              =  -27838.41732431 Ry
     estimated scf accuracy    <       0.00000622 Ry

     iteration # 19     ecut=    60.00 Ry     beta= 0.70
     Davidson diagonalization with overlap
     ethr =  1.65E-09,  avg # of iterations =  2.0

     negative rho (up, down):  1.279E-02 0.000E+00

     total cpu time spent up to now is    13623.4 secs

     total energy              =  -27838.41732398 Ry
     estimated scf accuracy    <       0.00000358 Ry

     iteration # 20     ecut=    60.00 Ry     beta= 0.70
     Davidson diagonalization with overlap
     ethr =  9.50E-10,  avg # of iterations =  2.0

     negative rho (up, down):  1.287E-02 0.000E+00

     total cpu time spent up to now is    14211.6 secs

     End of self-consistent calculation

          k = 0.0000 0.0000 0.0000 ( 88721 PWs)   bands (ev):

   -21.6117 -12.9173  -9.1976  -7.3616  -6.6308  -5.3800  -5.2825  -5.0924
    -4.3446  -4.2745  -4.2542  -4.2528  -4.2443  -4.2369  -4.2176  -4.1982
    -3.7434  -3.7205  -3.7068  -3.6974  -3.6861  -3.6767  -3.4742  -3.2947
    -3.2701  -3.2441  -3.2357  -3.2307  -3.2125  -3.0836  -3.0518  -3.0266
    -3.0069  -2.9999  -2.9963  -2.8979  -2.8394  -2.8222  -2.8092  -2.7960
    -2.7912  -2.7684  -2.7496  -2.7458  -2.7406  -2.7301  -2.6991  -2.5843
    -2.3649  -2.2022  -2.1712  -2.1613  -2.1464  -2.1322  -2.1170  -2.0985
    -2.0938  -2.0216  -2.0048  -1.9138  -1.9066  -1.8180  -1.5919  -1.4861
    -1.4105  -1.3758  -1.3600  -1.3518  -1.3020  -1.2778  -1.2371  -1.2075
    -1.1854  -1.1670  -1.1583  -1.1545  -1.1514  -1.1426  -1.1112  -1.1039
    -1.0965  -1.0802  -1.0567  -1.0441  -1.0222  -1.0009  -0.9632  -0.9480
    -0.9430  -0.8708  -0.8441  -0.7999  -0.7603  -0.7543  -0.7449  -0.7262
    -0.7128  -0.6985  -0.6942  -0.6911  -0.6224  -0.6152  -0.6077  -0.5595
    -0.5170  -0.5106  -0.5000  -0.4708  -0.4703  -0.4122  -0.3578  -0.3241
    -0.3192  -0.3181  -0.2117  -0.0852   0.0572   0.0843   0.1137   0.1492
     0.1689   0.1830   0.1871   0.2115   0.2166   0.2543   0.2928   0.3212
     0.3411   0.3468   0.4204   0.4351   0.4592   0.4802   0.5136   0.5405
     0.5666   0.6426   0.6662   0.6718   0.6780   0.6964   0.8374   0.8504
     0.9085   0.9147   0.9241   0.9356   0.9748   0.9887   1.1390   1.1611
     1.1647   1.1841   1.2023   1.2311   1.2509   1.2681   1.3329   1.3362
     1.3562   1.3613   1.3621   1.3769   1.3814   1.3924   1.3971   1.4100
     1.4300   1.4545   1.4798   1.4853   1.5053   1.5202   1.5685   1.5781
     1.5912   1.5956   1.6039   1.6205   1.6339   1.6639   1.6735   1.7292
     1.7331   1.7394   1.7587   1.7683   1.7729   1.7834   1.8215   1.8526
     1.8578   1.8868   1.8909   2.0271   2.0501   2.1303   2.1481   2.1703
     2.1844   2.1930   2.1987   2.4055   2.4445   2.9148   2.9670   3.0257
     3.0365   3.0775   3.7517   4.3011   4.4352   5.2507   5.3187   5.3614
     5.3989   5.8826   6.0825   6.4864   6.7845   6.9497   6.9761   6.9880
     7.0033   7.0385   7.0623

          k = 0.0000 0.2309 0.0000 ( 88630 PWs)   bands (ev):

   -21.6117 -12.9172  -9.1974  -7.3547  -6.4903  -5.2889  -5.2448  -5.0820
    -4.7509  -4.3645  -4.3505  -4.1960  -4.1192  -4.0424  -4.0116  -3.9977
    -3.8351  -3.7777  -3.6793  -3.6420  -3.6296  -3.6089  -3.4674  -3.3294
    -3.2404  -3.2117  -3.1974  -3.1820  -3.1301  -3.1203  -3.0978  -3.0720
    -3.0214  -3.0120  -2.9961  -2.9337  -2.9121  -2.8603  -2.8337  -2.8122
    -2.7983  -2.7889  -2.7189  -2.6183  -2.5905  -2.5757  -2.5429  -2.5019
    -2.4032  -2.2948  -2.2605  -2.2416  -2.2234  -2.2059  -2.1265  -2.0868
    -2.0144  -1.9656  -1.9378  -1.9079  -1.8803  -1.8339  -1.6883  -1.6206
    -1.5610  -1.5099  -1.4792  -1.4718  -1.4567  -1.4014  -1.3587  -1.3438
    -1.3258  -1.2950  -1.2894  -1.2608  -1.2327  -1.1841  -1.1664  -1.1298
    -1.0775  -1.0552  -1.0462  -0.9974  -0.9809  -0.9694  -0.9253  -0.9077
    -0.8797  -0.8692  -0.8452  -0.8249  -0.7934  -0.7855  -0.7706  -0.7535
    -0.7401  -0.6998  -0.6654  -0.6493  -0.6156  -0.5961  -0.5823  -0.5792
    -0.5414  -0.5226  -0.5142  -0.4940  -0.4681  -0.4213  -0.3936  -0.3602
    -0.3226  -0.3064  -0.2892  -0.2498  -0.2381  -0.2189  -0.2172  -0.1967
    -0.0841   0.0488   0.0805   0.1239   0.1409   0.1938   0.2054   0.2139
     0.2453   0.2625   0.3296   0.3995   0.4333   0.4958   0.5248   0.5699
     0.5946   0.6059   0.6253   0.6342   0.6813   0.7057   0.7287   0.7667
     0.7873   0.8108   0.8248   0.9171   0.9489   0.9788   0.9999   1.0356
     1.0595   1.0965   1.1136   1.1588   1.1827   1.2019   1.2414   1.2586
     1.2846   1.3164   1.3344   1.3898   1.4069   1.4210   1.4429   1.4854
     1.5148   1.5479   1.5633   1.5928   1.6340   1.6644   1.7039   1.7087
     1.7353   1.7575   1.7792   1.8014   1.8264   1.8304   1.8435   1.8575
     1.9028   1.9098   2.0191   2.0290   2.0418   2.0742   2.0989   2.1097
     2.1328   2.1392   2.1559   2.1716   2.1815   2.2682   2.2898   2.3163
     2.4285   2.4580   2.4702   2.4966   2.5626   2.8005   3.2156   3.2937
     3.5620   3.6776   3.9283   4.2555   4.4450   4.8757   5.3490   5.4396
     5.8125   5.8417   5.9764   6.1396   6.2596   6.5392   6.7172   6.8184
     6.8895   7.0142   7.1820

          k = 0.0000 0.4619 0.0000 ( 88606 PWs)   bands (ev):

   -21.6117 -12.9172  -9.1970  -7.3452  -6.0795  -5.4535  -5.2805  -5.1159
    -4.8160  -4.3980  -4.3861  -4.2772  -4.0175  -3.8684  -3.8067  -3.7371
    -3.6741  -3.6632  -3.5781  -3.5329  -3.4965  -3.4575  -3.4283  -3.4084
    -3.3311  -3.2881  -3.2762  -3.2483  -3.2281  -3.2129  -3.1802  -3.1218
    -3.0921  -3.0853  -2.9424  -2.8601  -2.8409  -2.8335  -2.8176  -2.8053
    -2.7457  -2.6409  -2.5942  -2.5817  -2.5661  -2.5378  -2.5301  -2.3606
    -2.3341  -2.2727  -2.2591  -2.2377  -2.2259  -2.1900  -2.1224  -2.1016
    -2.0824  -2.0721  -2.0270  -1.9379  -1.9002  -1.8769  -1.8579  -1.7797
    -1.7324  -1.7025  -1.6722  -1.6282  -1.6057  -1.5430  -1.5016  -1.4703
    -1.4334  -1.4215  -1.3742  -1.3427  -1.3258  -1.2647  -1.2339  -1.1988
    -1.1678  -1.1330  -1.1085  -1.0819  -1.0536  -1.0407  -0.9998  -0.9825
    -0.9755  -0.9639  -0.9508  -0.9248  -0.9085  -0.8943  -0.8675  -0.8284
    -0.8033  -0.7746  -0.7684  -0.7498  -0.7285  -0.6558  -0.6158  -0.5754
    -0.5625  -0.5400  -0.5213  -0.5030  -0.4768  -0.4151  -0.3740  -0.3528
    -0.3126  -0.2866  -0.2760  -0.2294  -0.2156  -0.1652  -0.1031  -0.0683
    -0.0154   0.0111   0.0549   0.0638   0.1058   0.1256   0.1495   0.1739
     0.1933   0.2061   0.2264   0.2498   0.2626   0.2894   0.3037   0.3333
     0.3646   0.4368   0.4572   0.4868   0.4993   0.5718   0.6295   0.6761
     0.6973   0.7300   0.7773   0.8907   0.9035   0.9481   0.9593   1.0241
     1.0281   1.0442   1.0689   1.1215   1.1407   1.1500   1.2074   1.2111
     1.2884   1.3094   1.3277   1.3406   1.3605   1.3703   1.4761   1.4868
     1.5762   1.5906   1.6165   1.6365   1.6607   1.7292   1.7400   1.7491
     1.8000   1.8277   1.8716   1.8988   1.9302   1.9345   2.0108   2.0141
     2.0579   2.0716   2.0843   2.0877   2.1307   2.1440   2.2995   2.3019
     2.3191   2.3292   2.3399   2.4591   2.5657   2.5853   2.6702   2.9578
     3.0087   3.3106   3.3747   3.4957   3.5578   3.6831   3.7865   3.9557
     4.1843   4.2772   4.5961   4.6197   4.6718   4.7631   4.8766   4.9696
     5.1863   5.2594   5.4397   5.5551   5.8556   6.0350   6.3763   6.5257
     6.7073   6.8938   7.0539

          k = 0.2000-0.1155 0.0000 ( 88630 PWs)   bands (ev):

   -21.6117 -12.9172  -9.1971  -7.3547  -6.4901  -5.2827  -5.2466  -5.0874
    -4.7559  -4.3624  -4.3458  -4.1976  -4.1188  -4.0554  -4.0061  -3.9904
    -3.8453  -3.7806  -3.6581  -3.6438  -3.6274  -3.6119  -3.4772  -3.3151
    -3.2408  -3.2257  -3.1971  -3.1859  -3.1343  -3.1088  -3.0920  -3.0796
    -3.0290  -3.0110  -2.9989  -2.9258  -2.9101  -2.8606  -2.8365  -2.8234
    -2.7940  -2.7890  -2.7175  -2.6075  -2.5771  -2.5673  -2.5527  -2.5024
    -2.3832  -2.3007  -2.2778  -2.2560  -2.2167  -2.1961  -2.1362  -2.0934
    -2.0055  -1.9806  -1.9306  -1.9039  -1.8848  -1.8408  -1.6846  -1.6003
    -1.5538  -1.5267  -1.5004  -1.4555  -1.4313  -1.4008  -1.3645  -1.3548
    -1.3255  -1.3136  -1.3019  -1.2417  -1.2149  -1.1672  -1.1549  -1.1242
    -1.1068  -1.0576  -1.0537  -1.0051  -0.9837  -0.9631  -0.9360  -0.9041
    -0.8787  -0.8720  -0.8493  -0.8292  -0.8086  -0.7730  -0.7611  -0.7365
    -0.7255  -0.6964  -0.6713  -0.6403  -0.6204  -0.6078  -0.5888  -0.5806
    -0.5486  -0.5284  -0.5180  -0.4653  -0.4555  -0.4150  -0.3915  -0.3680
    -0.3357  -0.3145  -0.2900  -0.2594  -0.2347  -0.2227  -0.2146  -0.1996
    -0.0558   0.0205   0.0749   0.1140   0.1583   0.1677   0.2091   0.2217
     0.2508   0.2755   0.3490   0.3878   0.4186   0.4858   0.5240   0.5655
     0.5861   0.6061   0.6250   0.6293   0.6709   0.6943   0.7392   0.7801
     0.7943   0.8138   0.8280   0.9333   0.9468   0.9839   1.0191   1.0360
     1.0544   1.0783   1.1308   1.1551   1.1714   1.1895   1.2203   1.2546
     1.2816   1.3125   1.3406   1.3904   1.4071   1.4448   1.4546   1.4936
     1.5254   1.5382   1.5715   1.5905   1.5975   1.6671   1.6991   1.7182
     1.7353   1.7673   1.7802   1.8025   1.8249   1.8336   1.8450   1.8630
     1.8965   1.9014   1.9951   2.0341   2.0481   2.0695   2.0725   2.1062
     2.1163   2.1458   2.1597   2.1917   2.2007   2.2762   2.2899   2.3128
     2.3488   2.4659   2.4751   2.4946   2.7194   2.7834   3.1063   3.3686
     3.5737   3.6897   3.8776   4.1534   4.6390   4.8553   5.1869   5.5069
     5.8153   5.8430   6.0053   6.0439   6.2508   6.6568   6.7507   6.8164
     6.8901   6.9906   7.1764

          k = 0.2000 0.1155 0.0000 ( 88630 PWs)   bands (ev):

   -21.6117 -12.9172  -9.1972  -7.3543  -6.4903  -5.2866  -5.2431  -5.0849
    -4.7493  -4.3632  -4.3531  -4.1986  -4.1189  -4.0447  -4.0119  -3.9957
    -3.8450  -3.7866  -3.6594  -3.6376  -3.6256  -3.6175  -3.4748  -3.3210
    -3.2375  -3.2244  -3.1973  -3.1869  -3.1323  -3.1134  -3.0925  -3.0731
    -3.0329  -3.0058  -2.9892  -2.9293  -2.9169  -2.8634  -2.8298  -2.8106
    -2.8050  -2.7927  -2.6963  -2.6106  -2.5884  -2.5702  -2.5485  -2.5111
    -2.4097  -2.3022  -2.2877  -2.2339  -2.2139  -2.1973  -2.1433  -2.0635
    -2.0122  -1.9852  -1.9224  -1.9032  -1.8889  -1.8295  -1.6985  -1.6171
    -1.5565  -1.5283  -1.4980  -1.4634  -1.4389  -1.3986  -1.3809  -1.3486
    -1.3363  -1.3040  -1.2770  -1.2400  -1.2065  -1.1860  -1.1608  -1.1256
    -1.0896  -1.0592  -1.0424  -0.9933  -0.9808  -0.9667  -0.9358  -0.9110
    -0.8954  -0.8802  -0.8457  -0.8243  -0.8165  -0.7772  -0.7677  -0.7570
    -0.7258  -0.6837  -0.6575  -0.6474  -0.6272  -0.5971  -0.5839  -0.5727
    -0.5626  -0.5265  -0.5141  -0.4805  -0.4411  -0.4252  -0.3861  -0.3604
    -0.3437  -0.3094  -0.2909  -0.2553  -0.2342  -0.2240  -0.2154  -0.1917
    -0.0301   0.0454   0.0624   0.1174   0.1443   0.1903   0.2107   0.2232
     0.2433   0.3108   0.3482   0.3850   0.4189   0.4780   0.5297   0.5557
     0.6001   0.6104   0.6180   0.6291   0.6724   0.6864   0.7375   0.7696
     0.8002   0.8129   0.8195   0.9199   0.9603   0.9800   1.0101   1.0394
     1.0547   1.0910   1.1268   1.1463   1.1745   1.1949   1.2398   1.2507
     1.2878   1.3096   1.3393   1.3852   1.4101   1.4296   1.4605   1.4816
     1.5157   1.5499   1.5765   1.5910   1.6042   1.6584   1.6952   1.7227
     1.7344   1.7583   1.7806   1.8022   1.8229   1.8265   1.8464   1.8611
     1.8921   1.9047   1.9963   2.0344   2.0619   2.0651   2.0740   2.1045
     2.1159   2.1418   2.1575   2.1824   2.1956   2.2888   2.2905   2.3087
     2.3350   2.4512   2.4764   2.4934   2.7404   2.7906   3.0358   3.4415
     3.5679   3.6427   3.8661   4.2761   4.6180   4.7742   5.1836   5.5692
     5.8104   5.8282   5.9845   6.1038   6.2518   6.6093   6.7363   6.8374
     6.8905   6.9521   7.1796

          k = 0.2000 0.3464 0.0000 ( 88650 PWs)   bands (ev):

   -21.6117 -12.9171  -9.1970  -7.3463  -6.2133  -5.2852  -5.1294  -5.0044
    -4.9867  -4.9319  -3.9674  -3.9577  -3.9239  -3.9217  -3.9014  -3.8644
    -3.8546  -3.8413  -3.7441  -3.7313  -3.4973  -3.3915  -3.3582  -3.3485
    -3.3279  -3.2647  -3.2579  -3.1616  -3.1299  -3.1179  -3.1083  -3.0872
    -3.0377  -2.9786  -2.9669  -2.9521  -2.9465  -2.8870  -2.8606  -2.8398
    -2.8329  -2.7987  -2.7240  -2.6420  -2.4819  -2.4559  -2.3951  -2.3764
    -2.3372  -2.3186  -2.3038  -2.2595  -2.2354  -2.1957  -2.0972  -2.0778
    -2.0656  -2.0035  -1.9522  -1.8995  -1.8808  -1.8692  -1.8416  -1.7778
    -1.7270  -1.6533  -1.6229  -1.5915  -1.5549  -1.5011  -1.4715  -1.4507
    -1.4420  -1.4121  -1.3941  -1.2968  -1.2721  -1.2304  -1.2119  -1.1833
    -1.1721  -1.1526  -1.1181  -1.0818  -1.0630  -1.0093  -0.9858  -0.9609
    -0.9353  -0.9083  -0.8865  -0.8683  -0.8600  -0.8235  -0.8140  -0.7880
    -0.7733  -0.7339  -0.6974  -0.6689  -0.6442  -0.6279  -0.5972  -0.5845
    -0.5791  -0.5476  -0.5386  -0.5052  -0.4867  -0.4780  -0.4656  -0.4309
    -0.4199  -0.4089  -0.3302  -0.3095  -0.2827  -0.2380  -0.1865  -0.1598
    -0.1082  -0.0587   0.0082   0.0527   0.1030   0.1387   0.1586   0.1867
     0.2163   0.2495   0.2615   0.2895   0.3109   0.3513   0.3747   0.3943
     0.4375   0.5221   0.5671   0.5899   0.6152   0.6347   0.6731   0.7102
     0.7428   0.7839   0.8313   0.8532   0.8759   0.9002   0.9566   0.9687
     1.0461   1.0645   1.0899   1.1189   1.1294   1.1515   1.1648   1.1887
     1.1948   1.2160   1.2530   1.3168   1.3863   1.3910   1.4665   1.5073
     1.6001   1.6221   1.6931   1.7160   1.7303   1.7847   1.8274   1.8463
     1.8663   1.8850   1.9020   1.9283   1.9355   1.9529   1.9679   1.9838
     2.0042   2.0509   2.0998   2.1129   2.1252   2.1554   2.2034   2.2494
     2.2774   2.3460   2.3824   2.3939   2.4436   2.4729   2.5705   2.5950
     2.7169   2.9876   3.1172   3.2009   3.4016   3.5349   3.6861   3.8141
     3.9103   4.1808   4.3381   4.5187   4.6010   4.7080   4.8933   5.1947
     5.4101   5.7996   5.9339   6.0428   6.1074   6.2608   6.4441   6.5117
     6.5726   6.5937   6.7467

          k = 0.2000-0.5774 0.0000 ( 88608 PWs)   bands (ev):

   -21.6117 -12.9171  -9.1967  -7.3424  -5.7170  -5.6576  -5.2811  -5.1171
    -5.0742  -4.4851  -4.4449  -3.9783  -3.9161  -3.7847  -3.7594  -3.6633
    -3.6350  -3.5945  -3.5360  -3.5172  -3.4574  -3.4307  -3.3985  -3.3807
    -3.3775  -3.3562  -3.3247  -3.2675  -3.2076  -3.1987  -3.1743  -3.1571
    -3.1198  -3.0336  -2.9686  -2.9307  -2.9235  -2.8342  -2.8296  -2.7991
    -2.7779  -2.7481  -2.7114  -2.6843  -2.5785  -2.5558  -2.4072  -2.3672
    -2.3415  -2.2965  -2.2444  -2.1865  -2.1760  -2.1104  -2.0480  -2.0192
    -1.9962  -1.9745  -1.9093  -1.8889  -1.8666  -1.8457  -1.8034  -1.7691
    -1.7623  -1.7428  -1.7013  -1.6802  -1.6563  -1.6326  -1.5985  -1.5876
    -1.5206  -1.4786  -1.4405  -1.3899  -1.3392  -1.3086  -1.2740  -1.2464
    -1.2433  -1.2257  -1.1953  -1.1635  -1.1248  -1.1078  -1.0782  -1.0502
    -1.0329  -0.9869  -0.9452  -0.8968  -0.8889  -0.8819  -0.8301  -0.7663
    -0.7516  -0.7135  -0.7087  -0.6675  -0.6457  -0.6227  -0.6026  -0.5900
    -0.5706  -0.5620  -0.5377  -0.5104  -0.4926  -0.4735  -0.4522  -0.4446
    -0.4200  -0.4137  -0.3930  -0.3649  -0.3473  -0.2577  -0.1784  -0.1165
    -0.0724  -0.0562  -0.0040   0.0444   0.0596   0.0797   0.1194   0.1397
     0.1733   0.1856   0.2254   0.2546   0.2750   0.2818   0.3202   0.3854
     0.4341   0.4408   0.5013   0.5596   0.6134   0.6433   0.6676   0.6967
     0.7406   0.7673   0.7940   0.8318   0.8544   0.8734   0.8898   0.9079
     0.9374   0.9950   1.0265   1.0638   1.0827   1.0913   1.1166   1.1507
     1.2292   1.2465   1.2693   1.3633   1.4167   1.4611   1.5418   1.5663
     1.5937   1.6240   1.6740   1.6777   1.7540   1.7834   1.8477   1.8667
     1.8888   1.9054   1.9167   1.9464   1.9808   2.0339   2.0540   2.0706
     2.0871   2.1040   2.1118   2.1204   2.2014   2.2757   2.2941   2.3199
     2.3324   2.3455   2.3816   2.4081   2.5216   2.6053   2.9693   3.1720
     3.4549   3.4974   3.5912   3.6118   3.7676   3.8738   3.9161   4.0994
     4.4293   4.4992   4.5434   4.6248   4.9477   5.0140   5.0915   5.1412
     5.2207   5.3482   5.4033   5.4838   5.6950   5.8694   5.9567   6.1890
     6.4062   6.5910   6.6094

          k = 0.2000-0.3464 0.0000 ( 88650 PWs)   bands (ev):

   -21.6117 -12.9172  -9.1968  -7.3470  -6.2130  -5.2848  -5.1310  -5.0081
    -4.9906  -4.9301  -3.9738  -3.9528  -3.9298  -3.9204  -3.8944  -3.8616
    -3.8518  -3.8359  -3.7391  -3.7281  -3.4999  -3.3944  -3.3699  -3.3436
    -3.3327  -3.2673  -3.2517  -3.1609  -3.1344  -3.1214  -3.1033  -3.0866
    -3.0235  -2.9852  -2.9641  -2.9519  -2.9477  -2.8801  -2.8576  -2.8445
    -2.8317  -2.7960  -2.7430  -2.6771  -2.4802  -2.4168  -2.3774  -2.3568
    -2.3454  -2.3121  -2.2929  -2.2692  -2.2325  -2.1901  -2.1405  -2.0876
    -2.0793  -1.9797  -1.9479  -1.9154  -1.8787  -1.8696  -1.8229  -1.7782
    -1.7308  -1.6539  -1.6028  -1.5677  -1.5576  -1.5016  -1.4782  -1.4518
    -1.4289  -1.4153  -1.3928  -1.3095  -1.2754  -1.2437  -1.2103  -1.2001
    -1.1618  -1.1419  -1.1170  -1.0878  -1.0645  -0.9932  -0.9690  -0.9492
    -0.9228  -0.9188  -0.8942  -0.8857  -0.8395  -0.8273  -0.8144  -0.7971
    -0.7665  -0.7601  -0.6938  -0.6677  -0.6510  -0.6255  -0.6128  -0.5906
    -0.5758  -0.5510  -0.5365  -0.5115  -0.4888  -0.4727  -0.4665  -0.4341
    -0.4153  -0.4045  -0.3252  -0.3050  -0.2783  -0.2377  -0.2115  -0.1781
    -0.1120  -0.0719   0.0163   0.0592   0.0793   0.1223   0.1632   0.1920
     0.2141   0.2352   0.2573   0.2924   0.3160   0.3508   0.3701   0.3998
     0.4435   0.5182   0.5635   0.5853   0.6086   0.6382   0.6876   0.7341
     0.7391   0.7938   0.8284   0.8505   0.8718   0.9135   0.9493   0.9936
     1.0365   1.0571   1.0830   1.1035   1.1321   1.1562   1.1646   1.1894
     1.1992   1.2211   1.2518   1.3261   1.3669   1.3926   1.4636   1.5099
     1.6059   1.6223   1.6990   1.7123   1.7322   1.7839   1.8296   1.8377
     1.8700   1.8803   1.9073   1.9280   1.9342   1.9494   1.9687   1.9836
     2.0025   2.0529   2.0950   2.1125   2.1250   2.1535   2.2024   2.2319
     2.2953   2.3579   2.3875   2.4070   2.4276   2.4707   2.5639   2.5989
     2.7339   3.0202   3.1262   3.1402   3.4617   3.5715   3.6868   3.8665
     3.9469   4.0563   4.3060   4.4662   4.6133   4.6835   4.8905   5.2847
     5.4277   5.7990   5.9127   5.9671   6.0781   6.2682   6.4779   6.5074
     6.5732   6.6181   6.8278

          k = 0.4000-0.2309 0.0000 ( 88606 PWs)   bands (ev):

   -21.6117 -12.9172  -9.1964  -7.3450  -6.0785  -5.4541  -5.2816  -5.1101
    -4.8275  -4.3967  -4.3798  -4.2873  -4.0292  -3.8674  -3.8125  -3.7390
    -3.6683  -3.6555  -3.5625  -3.5149  -3.5013  -3.4489  -3.4396  -3.4170
    -3.3382  -3.2840  -3.2645  -3.2548  -3.2300  -3.2222  -3.1827  -3.1331
    -3.1020  -3.0832  -2.9194  -2.9001  -2.8295  -2.8259  -2.8122  -2.8023
    -2.7455  -2.6317  -2.5818  -2.5746  -2.5691  -2.5605  -2.4699  -2.3690
    -2.3478  -2.2821  -2.2566  -2.2374  -2.2217  -2.1757  -2.1330  -2.0951
    -2.0870  -2.0823  -2.0136  -1.9532  -1.8911  -1.8861  -1.8617  -1.8000
    -1.7284  -1.7033  -1.6781  -1.6487  -1.6079  -1.5102  -1.4978  -1.4467
    -1.4392  -1.4231  -1.3712  -1.3522  -1.3037  -1.2910  -1.2204  -1.2091
    -1.1822  -1.1291  -1.1144  -1.0768  -1.0498  -1.0293  -1.0209  -0.9946
    -0.9641  -0.9434  -0.9336  -0.9225  -0.9076  -0.8861  -0.8486  -0.8394
    -0.7857  -0.7744  -0.7527  -0.7404  -0.7222  -0.6537  -0.6120  -0.6017
    -0.5824  -0.5502  -0.5262  -0.5101  -0.4899  -0.4421  -0.4059  -0.3554
    -0.3065  -0.2792  -0.2615  -0.2310  -0.1964  -0.1516  -0.1127  -0.0983
    -0.0107   0.0231   0.0430   0.0593   0.0993   0.1157   0.1362   0.1669
     0.1867   0.2062   0.2247   0.2434   0.2626   0.2916   0.3097   0.3373
     0.3689   0.4511   0.4617   0.4837   0.5114   0.5484   0.6444   0.6824
     0.7060   0.7691   0.7894   0.8753   0.9038   0.9336   0.9607   0.9935
     1.0194   1.0620   1.0633   1.1180   1.1348   1.1607   1.2062   1.2216
     1.2745   1.3155   1.3307   1.3420   1.3655   1.3861   1.4714   1.5074
     1.5462   1.5867   1.6009   1.6219   1.6524   1.7261   1.7460   1.7546
     1.8185   1.8331   1.8779   1.8928   1.9273   1.9326   1.9765   2.0390
     2.0476   2.0725   2.0868   2.0958   2.1215   2.1476   2.2849   2.3015
     2.3166   2.3336   2.3622   2.4509   2.5634   2.5724   2.7177   2.9639
     3.0121   3.2856   3.3825   3.3980   3.6174   3.6651   3.8516   4.0507
     4.1236   4.3403   4.5928   4.6100   4.6598   4.7215   4.8833   4.9344
     5.0992   5.2667   5.3901   5.5669   5.9202   6.0645   6.4320   6.5200
     6.6157   6.9211   7.0240

          k = 0.4000-0.0000 0.0000 ( 88650 PWs)   bands (ev):

   -21.6117 -12.9171  -9.1966  -7.3462  -6.2128  -5.2844  -5.1225  -5.0128
    -4.9887  -4.9342  -3.9753  -3.9458  -3.9358  -3.9165  -3.9084  -3.8820
    -3.8522  -3.8168  -3.7471  -3.7271  -3.4957  -3.3934  -3.3622  -3.3398
    -3.3221  -3.2778  -3.2481  -3.1606  -3.1428  -3.1195  -3.1066  -3.0860
    -3.0341  -2.9786  -2.9669  -2.9602  -2.9315  -2.8991  -2.8641  -2.8540
    -2.8214  -2.7870  -2.7097  -2.6674  -2.4762  -2.4417  -2.3831  -2.3607
    -2.3466  -2.3150  -2.3047  -2.2850  -2.2454  -2.1877  -2.1030  -2.0763
    -2.0239  -2.0015  -1.9744  -1.9295  -1.8769  -1.8582  -1.8348  -1.7832
    -1.7478  -1.6370  -1.6153  -1.5861  -1.5205  -1.5084  -1.4814  -1.4756
    -1.4444  -1.4028  -1.3861  -1.2866  -1.2405  -1.2322  -1.2263  -1.1983
    -1.1669  -1.1482  -1.1368  -1.1007  -1.0586  -1.0271  -0.9700  -0.9395
    -0.9240  -0.9129  -0.8869  -0.8770  -0.8702  -0.8310  -0.8143  -0.7838
    -0.7671  -0.7427  -0.6916  -0.6631  -0.6401  -0.6177  -0.6095  -0.5988
    -0.5746  -0.5512  -0.5246  -0.5156  -0.4955  -0.4797  -0.4537  -0.4329
    -0.4041  -0.3771  -0.3525  -0.3099  -0.2843  -0.2621  -0.1977  -0.1816
    -0.1420  -0.0264   0.0258   0.0658   0.0844   0.1223   0.1632   0.1770
     0.2343   0.2453   0.2635   0.2954   0.3034   0.3403   0.3584   0.4060
     0.4501   0.5510   0.5698   0.5801   0.5978   0.6257   0.6715   0.7079
     0.7466   0.7910   0.8159   0.8539   0.8919   0.9303   0.9607   0.9944
     1.0251   1.0493   1.0968   1.1086   1.1354   1.1472   1.1598   1.1797
     1.1908   1.2403   1.2560   1.3166   1.3630   1.3860   1.4951   1.5056
     1.5510   1.6554   1.7097   1.7197   1.7485   1.7728   1.8261   1.8418
     1.8631   1.8798   1.9015   1.9243   1.9293   1.9406   1.9713   1.9836
     2.0016   2.0541   2.0886   2.1112   2.1364   2.1567   2.1798   2.2406
     2.2962   2.3629   2.3906   2.4133   2.4413   2.4746   2.5292   2.5810
     2.6484   3.0535   3.1228   3.3205   3.3821   3.5848   3.6507   3.7081
     3.9886   4.1764   4.3387   4.4162   4.6080   4.6793   4.9848   5.1675
     5.4257   5.7746   5.8051   6.0519   6.0763   6.3829   6.4654   6.4987
     6.5935   6.6616   6.7603

          k = 0.4000 0.2309 0.0000 ( 88606 PWs)   bands (ev):

   -21.6117 -12.9171  -9.1966  -7.3440  -6.0790  -5.4572  -5.2757  -5.1043
    -4.8252  -4.3948  -4.3878  -4.2854  -4.0178  -3.8725  -3.8265  -3.7383
    -3.6767  -3.6618  -3.5652  -3.5343  -3.4941  -3.4528  -3.4354  -3.4021
    -3.3296  -3.2830  -3.2770  -3.2476  -3.2291  -3.2151  -3.1819  -3.1156
    -3.1033  -3.0849  -2.9260  -2.8871  -2.8370  -2.8222  -2.8142  -2.8070
    -2.7364  -2.6409  -2.5958  -2.5838  -2.5651  -2.5466  -2.4968  -2.4170
    -2.3275  -2.2889  -2.2536  -2.2317  -2.2016  -2.1682  -2.1339  -2.1010
    -2.0879  -2.0681  -2.0154  -1.9545  -1.9012  -1.8704  -1.8564  -1.8151
    -1.7274  -1.7215  -1.6911  -1.6568  -1.5876  -1.5128  -1.4927  -1.4533
    -1.4347  -1.4218  -1.3670  -1.3414  -1.3067  -1.2884  -1.2391  -1.1847
    -1.1532  -1.1356  -1.1057  -1.0817  -1.0627  -1.0358  -1.0139  -1.0039
    -0.9856  -0.9539  -0.9379  -0.9228  -0.9080  -0.8976  -0.8727  -0.8408
    -0.8114  -0.7724  -0.7582  -0.7443  -0.6944  -0.6409  -0.6224  -0.5962
    -0.5861  -0.5428  -0.5189  -0.5068  -0.4810  -0.4324  -0.3824  -0.3642
    -0.3091  -0.2755  -0.2558  -0.2366  -0.2065  -0.1384  -0.1109  -0.0430
    -0.0170   0.0051   0.0460   0.0683   0.0869   0.1351   0.1508   0.1761
     0.2007   0.2161   0.2262   0.2464   0.2707   0.2990   0.3213   0.3312
     0.3719   0.4566   0.4704   0.4838   0.4998   0.5514   0.6249   0.6726
     0.7087   0.7591   0.7784   0.8682   0.9045   0.9437   0.9612   1.0092
     1.0204   1.0581   1.0673   1.1143   1.1370   1.1720   1.2021   1.2166
     1.2893   1.3121   1.3240   1.3317   1.3591   1.3882   1.4797   1.4944
     1.5480   1.5870   1.6110   1.6310   1.6500   1.7279   1.7479   1.7549
     1.8166   1.8334   1.8737   1.8990   1.9236   1.9387   1.9755   2.0315
     2.0470   2.0674   2.0829   2.0940   2.1197   2.1426   2.2768   2.3000
     2.3135   2.3284   2.3601   2.4527   2.5399   2.5696   2.6970   2.8752
     3.0261   3.3318   3.3576   3.3927   3.5980   3.7092   3.8956   4.0180
     4.2042   4.3044   4.5909   4.6134   4.6493   4.7299   4.8528   4.9249
     5.1487   5.2595   5.3729   5.6221   5.8958   6.0577   6.3482   6.5334
     6.6295   6.8372   7.0834

          k = 0.4000-0.6928 0.0000 ( 88608 PWs)   bands (ev):

   -21.6117 -12.9171  -9.1965  -7.3417  -5.7019  -5.6747  -5.2786  -5.1182
    -5.0657  -4.4906  -4.4524  -3.9686  -3.9188  -3.7916  -3.7577  -3.6698
    -3.6431  -3.5998  -3.5340  -3.5154  -3.4594  -3.4197  -3.3976  -3.3926
    -3.3703  -3.3506  -3.3125  -3.2699  -3.2101  -3.2001  -3.1827  -3.1521
    -3.1305  -3.0290  -2.9665  -2.9347  -2.9013  -2.8562  -2.8321  -2.7953
    -2.7746  -2.7435  -2.7068  -2.6587  -2.6019  -2.5552  -2.4155  -2.3748
    -2.3605  -2.2820  -2.2288  -2.2176  -2.1584  -2.0809  -2.0550  -2.0159
    -1.9825  -1.9623  -1.9468  -1.8894  -1.8769  -1.8407  -1.7943  -1.7817
    -1.7695  -1.7371  -1.7134  -1.7071  -1.6622  -1.6437  -1.6111  -1.5357
    -1.4950  -1.4581  -1.4318  -1.4072  -1.3341  -1.3050  -1.2939  -1.2650
    -1.2448  -1.2132  -1.1987  -1.1750  -1.1399  -1.1098  -1.0840  -1.0487
    -1.0365  -0.9716  -0.9306  -0.8966  -0.8884  -0.8696  -0.8091  -0.7691
    -0.7448  -0.7195  -0.6687  -0.6587  -0.6558  -0.6354  -0.6074  -0.5917
    -0.5743  -0.5560  -0.5389  -0.5206  -0.5007  -0.4848  -0.4531  -0.4440
    -0.4220  -0.4108  -0.4061  -0.3947  -0.3575  -0.2456  -0.1744  -0.1093
    -0.0765  -0.0519   0.0096   0.0319   0.0571   0.0851   0.1106   0.1402
     0.1769   0.1943   0.2268   0.2565   0.2734   0.3210   0.3253   0.3850
     0.4311   0.4577   0.5055   0.5754   0.5882   0.6149   0.6819   0.7064
     0.7389   0.7629   0.8071   0.8342   0.8568   0.8749   0.9017   0.9209
     0.9466   0.9979   1.0177   1.0497   1.0686   1.0955   1.1188   1.1499
     1.1956   1.2401   1.2715   1.3782   1.4015   1.4916   1.5269   1.5606
     1.5779   1.6126   1.6849   1.7075   1.7426   1.8168   1.8451   1.8550
     1.8832   1.9032   1.9186   1.9411   1.9597   2.0349   2.0461   2.0585
     2.0803   2.1034   2.1199   2.1234   2.2018   2.2632   2.2902   2.3283
     2.3468   2.3616   2.3854   2.4078   2.5192   2.6281   2.9117   3.0770
     3.4482   3.4964   3.5914   3.7246   3.7912   3.8498   3.9904   4.0971
     4.3083   4.4939   4.5610   4.6961   4.9530   5.0370   5.0807   5.1449
     5.1997   5.2788   5.4015   5.4939   5.6757   5.8946   5.9194   6.1584
     6.4924   6.5741   6.6322

          k = 0.4000-0.4619 0.0000 ( 88608 PWs)   bands (ev):

   -21.6117 -12.9171  -9.1963  -7.3423  -5.6962  -5.6789  -5.2847  -5.1261
    -5.0559  -4.4979  -4.4489  -3.9653  -3.9275  -3.7856  -3.7605  -3.6517
    -3.6439  -3.5793  -3.5440  -3.5199  -3.4585  -3.4184  -3.4022  -3.3824
    -3.3675  -3.3506  -3.3306  -3.2718  -3.2168  -3.1981  -3.1867  -3.1563
    -3.1283  -3.0440  -2.9665  -2.9264  -2.8936  -2.8516  -2.8289  -2.7943
    -2.7801  -2.7429  -2.7078  -2.6754  -2.5820  -2.5321  -2.4032  -2.3715
    -2.3595  -2.2967  -2.2299  -2.2138  -2.1819  -2.0961  -2.0530  -2.0105
    -1.9919  -1.9578  -1.9176  -1.9048  -1.8636  -1.8482  -1.8050  -1.7684
    -1.7544  -1.7359  -1.7242  -1.6982  -1.6567  -1.6466  -1.6135  -1.5393
    -1.4901  -1.4610  -1.4396  -1.3980  -1.3430  -1.3052  -1.2879  -1.2695
    -1.2316  -1.2211  -1.2089  -1.1814  -1.1382  -1.0961  -1.0745  -1.0465
    -1.0132  -0.9646  -0.9364  -0.9081  -0.8874  -0.8797  -0.8336  -0.7739
    -0.7415  -0.6975  -0.6831  -0.6696  -0.6517  -0.6293  -0.6201  -0.5847
    -0.5735  -0.5665  -0.5502  -0.5177  -0.5114  -0.4648  -0.4486  -0.4391
    -0.4197  -0.4138  -0.4055  -0.3783  -0.3502  -0.2717  -0.1945  -0.1040
    -0.0746  -0.0456   0.0007   0.0378   0.0582   0.0713   0.1108   0.1391
     0.1768   0.1888   0.2347   0.2504   0.2698   0.3030   0.3187   0.3945
     0.4310   0.4412   0.4849   0.5623   0.5918   0.6437   0.6746   0.7229
     0.7402   0.7738   0.8023   0.8315   0.8473   0.8758   0.8934   0.9220
     0.9557   0.9856   1.0189   1.0548   1.0737   1.0902   1.1208   1.1413
     1.1972   1.2465   1.2914   1.3704   1.3969   1.4850   1.5323   1.5647
     1.5767   1.6311   1.6783   1.7115   1.7433   1.8213   1.8452   1.8544
     1.8746   1.8984   1.9170   1.9457   1.9679   2.0251   2.0432   2.0607
     2.0817   2.1012   2.1196   2.1233   2.2010   2.2607   2.2965   2.3283
     2.3521   2.3629   2.3912   2.4139   2.5094   2.6051   2.9447   3.0952
     3.4787   3.4983   3.6106   3.7476   3.8100   3.8604   3.9334   4.0741
     4.2628   4.5073   4.5427   4.6479   4.9448   5.0564   5.0962   5.1474
     5.2243   5.3291   5.4094   5.4390   5.6568   5.8608   6.0331   6.2003
     6.3711   6.5854   6.6164

     the Fermi energy is     2.1241 ev

!    total energy              =  -27838.41732347 Ry

     total all-electron energy =  -1326949.557821 Ry
     estimated scf accuracy    <       0.00000089 Ry
     smearing contrib. (-TS)   =       0.00140308 Ry
     internal energy E=F+TS    =  -27838.41872655 Ry

     The total energy is F=E-TS. E is the sum of the following terms:
     one-electron contribution =  -26806.12913472 Ry
     hartree contribution      =   13710.83473684 Ry
     xc contribution           =    -909.58267175 Ry
     ewald contribution        =   11663.67004254 Ry
     one-center paw contrib.   =  -25497.21169945 Ry

     convergence has been achieved in  20 iterations

     negative rho (up, down):  1.287E-02 0.000E+00

     Forces acting on atoms (cartesian axes, Ry/au):

     atom    1 type  1   force =     0.00045021    0.00056563   -0.00375286
     atom    2 type  1   force =     0.00009857    0.00038811   -0.00288097
     atom    3 type  1   force =    -0.00020966    0.00050082   -0.00313781
     atom    4 type  1   force =    -0.00126623   -0.00001600   -0.00646568
     atom    5 type  1   force =     0.00126540    0.00120216   -0.00731372
     atom    6 type  1   force =     0.00033399   -0.00010784   -0.00419676
     atom    7 type  1   force =     0.00026249   -0.00107186   -0.00296395
     atom    8 type  1   force =    -0.00041871   -0.00057708   -0.00397211
     atom    9 type  1   force =     0.00057190   -0.00070581   -0.00387157
     atom   10 type  1   force =    -0.00029388    0.00013082   -0.00117526
     atom   11 type  1   force =     0.00015366    0.00000576   -0.00257121
     atom   12 type  1   force =    -0.00047789   -0.00058431    0.00151129
     atom   13 type  1   force =     0.00008069    0.00131696   -0.00088001
     atom   14 type  1   force =    -0.00394401    0.00086254    0.00379525
     atom   15 type  1   force =     0.00273479    0.00127344    0.00434092
     atom   16 type  1   force =     0.00035873   -0.00191828    0.00990134
     atom   17 type  1   force =     0.00038259    0.00023514    0.01110017
     atom   18 type  1   force =    -0.00156806   -0.00151743    0.01023207
     atom   19 type  1   force =     0.00003134    0.00011604   -0.00016144
     atom   20 type  1   force =     0.00006981   -0.00015278    0.00017151
     atom   21 type  1   force =     0.00008703   -0.00011634    0.00013202
     atom   22 type  1   force =     0.00001740    0.00006363    0.00002179
     atom   23 type  1   force =    -0.00018755    0.00016749    0.00031805
     atom   24 type  1   force =     0.00003675    0.00003974    0.00044274
     atom   25 type  1   force =     0.00021437    0.00000111    0.00019748
     atom   26 type  1   force =     0.00008790    0.00014894    0.00007852
     atom   27 type  1   force =     0.00000071    0.00013214    0.00003346
     atom   28 type  1   force =     0.00009708    0.00028764   -0.00003411
     atom   29 type  1   force =     0.00021651    0.00031059   -0.00017088
     atom   30 type  1   force =    -0.00004309   -0.00027417    0.00028606
     atom   31 type  1   force =     0.00045917   -0.00023690    0.00012761
     atom   32 type  1   force =     0.00025897    0.00037048    0.00003498
     atom   33 type  1   force =     0.00005052    0.00040406   -0.00000624
     atom   34 type  1   force =    -0.00003725   -0.00006720    0.00019435
     atom   35 type  1   force =     0.00025163    0.00008103   -0.00042350
     atom   36 type  1   force =     0.00015325    0.00012145   -0.00035805
     atom   37 type  2   force =     0.00151192   -0.00291874   -0.00094075
     atom   38 type  2   force =    -0.00011319    0.00054399    0.00140413
     atom   39 type  3   force =    -0.00524928    0.00156587    0.00326099
     atom   40 type  4   force =     0.00002358   -0.00036727   -0.00008531
     atom   41 type  4   force =     0.00002354    0.00003845    0.00025889
     atom   42 type  4   force =     0.00352427   -0.00024200   -0.00248138

     Total force =     0.008697     Total SCF correction =     0.001409
     SCF correction compared to forces is large: reduce conv_thr to get better values

     negative rho (up, down):  1.287E-02 0.000E+00

     negative rho (up, down):  1.287E-02 0.000E+00

     negative rho (up, down):  1.287E-02 0.000E+00

     negative rho (up, down):  1.287E-02 0.000E+00

     negative rho (up, down):  1.287E-02 0.000E+00

     negative rho (up, down):  1.287E-02 0.000E+00

     negative rho (up, down):  1.287E-02 0.000E+00

     negative rho (up, down):  1.287E-02 0.000E+00

     negative rho (up, down):  1.287E-02 0.000E+00

     negative rho (up, down):  1.287E-02 0.000E+00

     negative rho (up, down):  1.287E-02 0.000E+00

     negative rho (up, down):  1.287E-02 0.000E+00

     negative rho (up, down):  1.287E-02 0.000E+00

     negative rho (up, down):  1.287E-02 0.000E+00

     negative rho (up, down):  1.287E-02 0.000E+00

     negative rho (up, down):  1.287E-02 0.000E+00

     negative rho (up, down):  1.287E-02 0.000E+00

     negative rho (up, down):  1.287E-02 0.000E+00

     negative rho (up, down):  1.287E-02 0.000E+00

     negative rho (up, down):  1.287E-02 0.000E+00

     negative rho (up, down):  1.287E-02 0.000E+00

     negative rho (up, down):  1.287E-02 0.000E+00

     negative rho (up, down):  1.287E-02 0.000E+00

     negative rho (up, down):  1.287E-02 0.000E+00

     negative rho (up, down):  1.287E-02 0.000E+00

     negative rho (up, down):  1.287E-02 0.000E+00

     negative rho (up, down):  1.287E-02 0.000E+00

     negative rho (up, down):  1.287E-02 0.000E+00

     negative rho (up, down):  1.287E-02 0.000E+00

     negative rho (up, down):  1.287E-02 0.000E+00

     negative rho (up, down):  1.287E-02 0.000E+00

     negative rho (up, down):  1.287E-02 0.000E+00

     negative rho (up, down):  1.287E-02 0.000E+00

     negative rho (up, down):  1.287E-02 0.000E+00
 BEEFens 2000 ensemble energies
             -0.608969895144119E+02
             -0.362691290841926E+01
             -0.158919839040635E+02
              0.430904601599382E+02
             -0.221849214076164E+02
             -0.205981015255123E+02
             -0.353738979081919E+02
             -0.868290416950142E+02
             -0.466648371362666E+02
             -0.474199320242296E+02
             -0.370533605158317E+02
              0.228350356402260E+01
              0.409015035460800E+01
              0.762752047523955E+01
              0.267272806404421E+01
              0.476528144902048E+02
             -0.209602377663883E+02
             -0.230919146305091E+02
              0.193667718214775E+02
             -0.112775944371093E+03
              0.538294469913601E+02
             -0.290540270024252E+02
             -0.336160151306168E+01
             -0.114411963011593E+02
             -0.885091306140657E+01
             -0.467210977453993E+01
              0.885867031098814E+02
             -0.187553131665400E+02
             -0.904883031341183E+01
             -0.520341490067952E+02
              0.818239165304669E+02
             -0.187830410489001E+02
             -0.376410247547273E+02
              0.250112826310384E+02
             -0.284800080692207E+01
              0.164829150785246E+02
             -0.485390964651327E+01
              0.108239763505026E+02
              0.289334128359072E+02
             -0.103640556656428E+03
              0.560268885980324E+02
              0.142796356034913E+02
             -0.173025734546155E+01
             -0.362810631808271E+02
              0.123542669162883E+02
             -0.147193229246628E+02
              0.400025586806448E+02
              0.366079760072257E+02
             -0.308953670439624E+02
             -0.276211120630919E+02
             -0.329405005350834E+02
             -0.353329928358613E+02
              0.136797956103661E+02
             -0.492769808988094E+02
              0.116055699154180E+02
              0.625271510718156E+02
              0.637733163770933E+02
              0.356963179020061E+02
              0.154786030665691E+02
              0.271510221400944E+02
              0.894445290382546E+02
              0.213451267504345E+02
             -0.550474738596282E+02
             -0.157538225088188E+02
             -0.236847318418692E+02
              0.632126725721870E+02
             -0.776209848443556E+02
             -0.673850773630346E+02
             -0.260336196624436E+02
             -0.650278244890308E+01
             -0.472530754667634E+02
              0.271598166204622E+02
              0.804784583312721E+01
              0.872237913541619E+01
             -0.398468416974608E+02
             -0.348125663447448E+02
             -0.543791291323560E+02
              0.391632233879797E+02
             -0.297016033229008E+02
              0.266078305106785E+02
             -0.716787137963645E+01
             -0.319125697567251E+02
             -0.578297767905993E+02
             -0.177247022394048E+02
             -0.910794740675783E+01
             -0.125349722849151E+02
              0.413536357135118E+02
              0.685191231314197E+02
             -0.387106579808311E+02
             -0.797561840839921E+02
             -0.220322290798609E+02
              0.111897785926483E+03
             -0.594266338080615E+02
              0.357241550260419E+02
             -0.961742952977363E+01
             -0.665490329273321E+02
              0.255417802678323E+02
              0.399286284998874E+02
             -0.199334211702504E+02
              0.401384034686281E+02
             -0.296970807918797E+02
             -0.480089376119982E+02
              0.869058243599967E+02
              0.455596792990691E+02
              0.337450917116817E+02
              0.146966102630120E+02
              0.206307483825875E+02
              0.859472197007675E+02
             -0.257560413788345E+02
              0.788903293607490E+01
             -0.142899088291475E+03
              0.181859351205683E+02
             -0.718641430157622E+02
              0.151398032501742E+02
              0.205346514910146E+02
             -0.334113110949440E+02
             -0.559042662827107E+02
              0.655916705409993E+01
             -0.305183013758284E+02
              0.309258843083897E+02
             -0.531499253992714E+02
              0.170670804724944E+01
             -0.358279748602550E+02
             -0.426065947108566E+01
             -0.102898337566452E+01
              0.181794962611886E+02
              0.142056873722618E+01
             -0.654260469638382E+01
              0.592503343142841E+02
              0.911422022441302E+02
              0.485797678971410E+02
              0.832981754272194E+02
             -0.115574120393338E+02
              0.143520589310742E+02
              0.542943558018442E+02
             -0.110965051398445E+02
             -0.738310215881762E+02
             -0.385461485786698E+02
             -0.523419756592372E+02
             -0.277692480905085E+02
              0.328177524633282E+02
             -0.117200974737875E+03
             -0.187582156985217E+02
              0.415640298751386E+02
             -0.387669644433195E+02
             -0.366423619751699E+02
              0.546004208224592E+02
              0.402290677888556E+02
             -0.354953093290475E+02
              0.138376765902084E+02
             -0.274037096483703E+02
              0.344457095418395E+02
              0.449261749102050E+01
              0.211748125238929E+02
             -0.887643882005042E+02
             -0.481892937924856E+02
             -0.998503741052468E+01
              0.323896870047002E+01
             -0.368155625128530E+02
              0.106390146894337E+03
             -0.231502612841748E+02
             -0.399725291661380E+02
              0.390297796639338E+02
             -0.495905308751356E+02
             -0.364587823536652E+02
              0.325963827714244E+02
              0.124889877440812E+02
              0.165024654533802E+02
              0.116953971427821E+02
             -0.133248689213329E+02
              0.225666440989858E+02
              0.592204675328146E+02
             -0.312707425813211E+02
              0.163170895217914E+02
              0.937495566906862E+02
              0.341790262969186E+02
             -0.730907600919807E+01
             -0.189247497599918E+02
              0.153877664035331E+03
             -0.164793842177575E+02
              0.364519616776462E+02
              0.195302376416299E+02
              0.362763646372799E+02
              0.895250574505540E+02
              0.544679003985320E+02
             -0.242752115393016E+01
              0.228545176168350E+02
              0.486572089275514E+02
              0.364881381594389E+02
             -0.527501880509152E+02
              0.939189864004952E+02
             -0.828462763676755E+02
             -0.198651592705458E+02
              0.584852319606464E+02
              0.679371291594499E+01
              0.791944345167929E+01
              0.341979411559325E+02
              0.299830474757334E+02
              0.354792239893296E+02
             -0.639803332510871E+02
              0.288139706626998E+01
             -0.298423719386267E+02
             -0.873612416883736E+01
             -0.146101888393810E+01
             -0.725861530801042E+01
             -0.416779641264748E+01
              0.862198414986704E+02
             -0.101337838661709E+02
             -0.277397327018995E+02
             -0.497333216879139E+01
              0.140468703302664E+02
             -0.566118608215738E+02
             -0.408805836553450E+02
             -0.383320093161877E+02
             -0.632392306220136E+02
             -0.170380526571439E+02
             -0.448936593395470E+02
              0.164018373034731E+02
             -0.239388628969866E+01
             -0.104833367377997E+02
             -0.937226257195525E+01
              0.809688788246410E+01
             -0.243492401941136E+02
              0.691526551215424E+02
             -0.810001227765093E+02
             -0.141535847526915E+02
             -0.174641670495744E+02
              0.182518840035761E+02
              0.215107804027463E+02
             -0.465526225162077E+02
             -0.202451494703761E+02
              0.442412300842505E+02
             -0.276969868061551E+02
              0.187487976338418E+02
              0.384090950222475E+02
             -0.322459697663317E+01
              0.114541845609572E+03
             -0.230724526974835E+02
             -0.342171661163529E+02
              0.579849920032746E+01
             -0.229065935867167E+02
              0.529563338423063E+02
             -0.338610182796413E+02
              0.106898793693726E+02
              0.642587277748919E+02
             -0.126748149870290E+02
              0.120636914049089E+03
              0.126305366460460E+03
             -0.652126591938384E+02
              0.592480767952369E+02
              0.167178377331105E+02
             -0.519582183752497E+02
              0.216897657034119E+02
              0.355137203651066E+02
              0.364158992985689E+02
              0.136431740441162E+01
              0.160153576578924E+02
              0.698158919653946E+02
             -0.247760114471242E+02
              0.181674840309357E+02
              0.741455706011459E+02
             -0.373854905149040E+02
             -0.130321996366687E+02
              0.510406184055346E+02
              0.298465641969126E+02
              0.783044311688465E+02
              0.223625159745223E+02
              0.628429539376407E+01
              0.281373882539356E+02
              0.384639341848421E+02
             -0.473340291684413E+02
              0.333640207932854E+01
              0.130327699020015E+02
              0.114119136394397E+02
              0.221297535219772E+02
             -0.576834114188179E+02
              0.367270241620436E+02
             -0.445411402643515E+02
             -0.348462096767281E+02
              0.178521142887664E+02
             -0.181859741786042E+02
              0.556998003603496E+02
             -0.256791361674826E+02
              0.267699618033563E+02
              0.369364966019142E+02
              0.831937682257809E+02
              0.576481184395630E+02
              0.463402700590818E+02
             -0.105882427925978E+02
             -0.393598705209365E+01
             -0.333091261291363E+02
              0.753284707130467E+02
              0.800010994179506E+02
              0.363188628649922E+02
             -0.192813971365485E+02
              0.513579350156737E+02
             -0.163079711224099E+02
              0.215479178889381E+02
              0.616731786757726E+02
              0.213818502400775E+01
             -0.104778950457721E+02
             -0.283821197051677E+02
             -0.513469152863586E+02
              0.948585745505519E+02
              0.441317094157624E+02
             -0.561153599620308E+02
             -0.969109745265379E+01
              0.250776621262518E+02
             -0.999953148776120E+01
              0.594321847383055E+02
              0.152744569252905E+02
              0.802029710951547E+02
              0.280375271399163E+02
             -0.264936015904599E+02
              0.249737353512784E+02
             -0.504296741166036E+01
             -0.324710856486672E+02
              0.133712699039741E+02
              0.206354513099429E+02
              0.935823365212529E+02
              0.800035570112903E+02
              0.552911546433444E+02
              0.733169552828404E+02
              0.801853305422989E+01
             -0.274553476763829E+02
              0.163658451677287E+02
             -0.369252024562421E+02
             -0.478065376873634E+02
             -0.565636749823557E+02
             -0.267600268508097E+02
             -0.110072502671588E+03
             -0.292525678012000E+02
             -0.840249840116438E+02
              0.210723298285884E+02
             -0.478625754156390E+02
              0.398403935024702E+02
             -0.944665261576777E+02
             -0.331093998526808E+02
              0.550200876866722E+02
              0.208444408233834E+02
             -0.833612297409121E+02
              0.633058919336381E+02
             -0.257755622856278E+02
              0.514339836337636E+02
             -0.243667433548049E+02
             -0.754048076663421E+02
              0.112572699976752E+02
             -0.613639118600079E+02
             -0.168550945241557E+02
             -0.148619109870991E+01
              0.419782722140610E+02
              0.127446738872151E+03
             -0.463281688075218E+02
             -0.363996974882333E+02
             -0.986642585565562E+00
             -0.130636313909300E+02
             -0.825417052215844E+02
             -0.598822228914300E+02
              0.519004502732525E+02
             -0.289839717046241E+02
              0.169940012000498E+02
             -0.491178393172555E+02
             -0.132404033047296E+02
             -0.438761270416156E+02
              0.567357515863121E+02
              0.151658532432401E+02
             -0.232469297931883E+02
             -0.127479253041738E+02
              0.670376556724315E+01
             -0.622375937048076E+01
              0.443105031241354E+02
             -0.252930769681947E+02
              0.278621812666256E+01
              0.340364668970162E+02
              0.171846901854756E+02
             -0.160434565335192E+02
              0.156813233561711E+03
              0.539883144772998E+02
              0.119634805068499E+01
              0.162026556507481E+02
             -0.616839839024561E+02
              0.316114246160164E+02
             -0.724396011944087E+02
             -0.253176394120564E+02
             -0.524593812531472E+02
             -0.220711095572602E+02
              0.571139682349683E+02
             -0.538926447637578E+02
              0.161627050941622E+02
             -0.409209812767722E+01
              0.388946552985266E+01
             -0.435172464781331E+02
             -0.479813866140795E+02
             -0.401474396052231E+01
             -0.426328473319030E+02
             -0.218076897923828E+02
             -0.439957446064496E+02
             -0.119558711613917E+02
             -0.360152149121676E+02
             -0.518295258498413E+02
              0.213570690300415E+02
             -0.209932337285148E+02
              0.188492066097613E+02
              0.977865950661207E+01
             -0.740577442405475E+02
             -0.549938380593589E+02
             -0.399714643217445E+02
              0.355485546937750E+02
              0.269800318271078E+01
             -0.628924559976749E+02
              0.587617545756643E+02
             -0.402608852696163E+02
              0.546803664724379E+02
             -0.290580504708418E+02
             -0.447625338329091E+02
              0.299569259767787E+02
             -0.660223056979228E+02
             -0.381102697774598E+02
              0.674848925624707E+02
              0.204662774900441E+02
             -0.361398826257044E+02
              0.491186972670270E+02
             -0.174579871890368E+02
             -0.323969028563961E+02
             -0.302882561543323E+02
             -0.502446047140478E+02
              0.250198129666568E+02
             -0.936083277180205E+02
             -0.843034746769993E+02
             -0.736291695371995E+01
             -0.307804074706681E+02
             -0.577665241812809E+02
              0.724520096044716E+02
              0.132000925570740E+03
             -0.361936746024926E+02
             -0.256383435850699E+01
             -0.639258659673415E+02
              0.652846452778224E+02
              0.171452712071066E+02
             -0.182267268721986E+02
             -0.411374029847408E+02
              0.149200766200720E+02
             -0.588294526525586E+02
             -0.198200318146787E+02
             -0.907890980627603E+02
              0.338175354026421E+02
              0.169493530909540E+02
              0.182478875048309E+01
             -0.708467282080335E+01
             -0.330938204892802E+02
             -0.761342283395800E+01
              0.125979298108812E+03
             -0.199617226822038E+02
             -0.438933052497899E+02
             -0.686327749562205E+02
              0.109610961286489E+02
             -0.343389226495230E+02
              0.593033856947930E+01
              0.262576869904105E+02
              0.102316789887923E+02
              0.279029959583515E+02
              0.120419477602080E+02
              0.631742266140998E+02
              0.317794681131270E+02
             -0.327737824021906E+02
              0.357173266587926E+02
              0.380792036548225E+02
              0.121349194267131E+02
              0.488404533355572E+02
             -0.225702861836178E+02
              0.768377420695806E+02
              0.173127931525588E+02
             -0.273301034594834E+02
             -0.724963208148596E+01
             -0.186914940182628E+02
              0.262545316798204E+02
             -0.235452633241221E+02
             -0.146120075144523E+00
             -0.853118101883319E+01
              0.812601399504912E+02
              0.501981633072869E+02
             -0.689558884113735E+02
             -0.478156198093743E+01
             -0.557316391884804E+02
             -0.160048891453147E+02
             -0.269073790917594E+02
              0.378720338348774E+01
              0.575369369840443E+00
             -0.258476689289012E+02
              0.818010370579213E+01
             -0.605719862638068E+01
             -0.128909191841577E+02
              0.862102336703024E+02
              0.182468375958403E+02
             -0.809749037924811E+02
             -0.459777016995363E+02
              0.948219558759098E+02
              0.278682746767288E+02
             -0.107158408732231E+02
              0.104938260915829E+03
             -0.195614239748017E+02
             -0.123351469000276E+02
             -0.541845267387771E+01
              0.107867811814336E+02
              0.273437726366910E+02
              0.782423358166446E+01
              0.306419796958528E+02
             -0.188495300010757E+02
             -0.304988480690422E+02
             -0.419178863425850E+02
             -0.478598929635218E+02
              0.465494154714546E+02
              0.127383408592142E+02
              0.388938676451442E+02
              0.133983561318587E+02
              0.858696055118132E+02
              0.157155238830461E+02
             -0.848817882247309E+02
             -0.335557953424115E+02
              0.134120991414742E+02
             -0.303868679048297E+02
              0.628800900969277E+02
             -0.891668626789874E+01
              0.149423625709287E+02
              0.499130976797836E+02
             -0.710088809265047E+02
              0.150267123591441E+03
              0.209337309888498E+02
              0.272271682026814E+02
              0.348895603853607E+02
              0.103983981211077E+02
             -0.158201230563128E+01
              0.359679474530433E+02
             -0.358289133969000E+02
              0.776148852494094E+02
              0.687320679101853E+02
             -0.407336329384228E+02
              0.150085481083228E+02
              0.672750880461085E+02
             -0.224775331012621E+02
              0.154976761650472E+02
              0.436482265796210E+02
              0.423785941479010E+02
             -0.787486248432105E+02
             -0.153035648874538E+02
             -0.357314005915657E+02
             -0.150406965344371E+01
             -0.767596924739799E+01
             -0.544681718922311E+01
             -0.181292691511462E+02
             -0.294799350658329E+02
              0.637405156666033E+01
              0.112062070515963E+02
              0.537539450073192E+02
             -0.391790634882512E+02
              0.375833362497248E+02
              0.440158005600468E+02
             -0.187245467707948E+02
              0.875180340554496E+02
             -0.700339691250874E+02
             -0.103551063751189E+03
             -0.661602288510725E+01
             -0.270302022750320E+01
              0.386553315050071E+01
              0.792181522212878E+02
             -0.107299413394985E+02
              0.418136691071244E+02
              0.445543348228627E+02
              0.386708187702903E+02
             -0.996729778969438E+01
              0.629833245469159E+02
             -0.134144265062914E+02
             -0.308727095396670E+02
             -0.480881029967497E+02
              0.590884653873741E+01
              0.370954399405441E+02
             -0.604860787651413E+01
              0.394412522682683E+02
             -0.176177208028940E+01
              0.657422315717568E+02
              0.188094648778888E+02
              0.100117460399779E+02
             -0.121846543370979E+02
              0.333285167221117E+02
              0.364077769378048E+02
              0.233433305288960E+02
             -0.523642255581933E+00
             -0.552512146508061E+02
              0.261757953796133E+02
              0.175917091155427E+02
              0.404009239459648E+02
              0.273344232751951E+02
              0.373822695234009E+02
             -0.607946097940362E+01
              0.252068121712175E+02
             -0.299589626907682E+02
             -0.198412701665541E+01
             -0.571204392102447E+02
             -0.309246491532593E+02
              0.380315882282587E+02
             -0.938860960904757E+02
              0.295399096513523E+02
              0.184565690050363E+02
              0.843213951204325E+02
             -0.301331563455598E+02
              0.330538049765831E+02
             -0.138171774525218E+02
             -0.465685536568946E+02
             -0.764297525651466E+02
             -0.529271531577595E+01
             -0.863117066402928E+02
              0.200246396310393E+02
             -0.248341144799814E+02
              0.306961100227647E+02
              0.237661978514934E+02
             -0.242025656406901E+02
             -0.266334807204931E+02
              0.392462727552568E+02
             -0.590221448460202E+02
             -0.117088089336478E+02
             -0.196710178033357E+02
              0.213523686195880E+02
             -0.892036901211566E+01
              0.363809022827894E+01
             -0.201247098468070E+02
              0.560735118399884E+02
             -0.441227606140676E+02
              0.790442269524965E+01
              0.587483044595781E+02
             -0.324594759805240E+02
              0.361577975570947E+01
             -0.882727279305720E+01
             -0.671864979957209E+02
             -0.484211314483505E+02
             -0.863063609784971E+01
              0.241746462262919E+02
              0.303478721484079E+02
              0.861426107035754E+01
             -0.417969884212243E+01
              0.152522337894830E+02
             -0.441465076641133E+02
              0.332387892713223E+01
             -0.533030775234153E+02
             -0.325804415292719E+02
              0.476494816939673E+02
             -0.296272666996589E+02
              0.624786511063941E+02
             -0.215387571924383E+02
              0.355036564927373E+02
              0.242605596813364E+02
             -0.646265636433766E+02
             -0.281486265796800E+02
              0.935907243184192E+01
             -0.373085092880854E+02
             -0.341044100701480E+02
             -0.833004780798058E+02
             -0.541345653973180E+02
             -0.512262412222704E+02
             -0.417245760782710E+02
             -0.983367351601800E+00
              0.100230501994962E+02
              0.105360931875418E+01
              0.153994698187282E+02
             -0.551397198996777E+02
              0.142256268192193E+02
              0.257567640248154E+02
             -0.669309764664342E+02
             -0.704265243383533E+02
             -0.432675610002955E+02
             -0.172905983925696E+02
              0.179100744031123E+02
              0.455054303050872E+01
             -0.427696532438933E+02
              0.367484965472271E+02
             -0.216954743552747E+02
              0.519359767313042E+02
             -0.890423106991971E+02
              0.599853879934757E+02
             -0.214445967106802E+01
             -0.369906873179262E+02
             -0.217411561798972E+02
              0.472286419410128E+01
              0.376361820082090E+02
             -0.758899380879046E+02
             -0.121291853498645E+02
             -0.217271405896577E+02
              0.512740472130124E+02
              0.867759108504868E+02
             -0.968721321246193E+02
              0.947430342144706E+02
              0.469389410602840E+02
             -0.728209531171896E+02
             -0.367886460889034E+02
              0.754709091388374E+02
              0.634120977085374E+02
             -0.181743488337835E+02
             -0.466570239216048E+01
              0.737739874640626E+01
              0.651704359272717E+02
             -0.510491780052733E+02
              0.158960507391634E+02
             -0.474545205227317E+01
              0.348939645855166E+02
             -0.749577709563507E+02
             -0.649900925452788E+01
             -0.352205611767959E+02
[...]
              0.284394975771311E+02
              0.142285191544875E+03
              0.243297527029224E+02
              0.123138655511275E+02
             -0.466127099082564E+02
             -0.639870921208797E+02
             -0.189477420868388E+02
              0.330570805638471E+02
             -0.429212616513382E+01
              0.190587797404957E+02
              0.337261298524007E+02
             -0.588814746569836E+02
              0.223300582151691E+02
              0.583640527848089E+02
              0.554990156685227E+02
             -0.422811900672150E+01
             -0.136715148453868E+01
             -0.996123329083909E+01
             -0.483872745165073E+02
             -0.677455327851405E+02
              0.788194841493752E+02
             -0.526704685457912E+01
             -0.589837457670550E+02
              0.172908658365162E+01
             -0.206201995324969E+02
              0.941454194999058E+02
             -0.217210639239772E+02
             -0.354843017275713E+02
              0.336353547315730E+02
             -0.146246249453953E+02
              0.391124815961522E+02
             -0.238824712629196E+01
              0.101420385191887E+03
              0.491375061738747E+02
             -0.509151192451907E+01
             -0.323202421635047E+02
              0.233224833691563E+02
             -0.530364946555960E+02
             -0.128147448633950E+02
              0.587822621848287E+02
             -0.288558214629293E+02
             -0.439847924412001E+02
             -0.223931884157144E+02
              0.520484934469374E+02
              0.125285391310725E+02
             -0.851753696803238E+02
              0.305003883340250E+02
              0.152457793611909E+02
              0.579833036440536E+01
             -0.515077429944681E+02
             -0.375769992570264E+01
              0.324266563338738E+02
              0.514519137963119E+02
              0.634677637470623E+02
              0.230005809324050E+02
              0.793262147822986E+00
             -0.499750675618494E+02
             -0.511496512621575E+02
             -0.750300700163884E+02
             -0.617616241281360E+01
              0.310064570704955E+02
             -0.379095561174387E+01
              0.548653438476849E+02
             -0.319063153056312E+02
              0.167101065027846E+02
             -0.103162791957748E+02
             -0.290414633213847E+02
              0.587559023120919E+02
              0.794226663198043E+01
              0.606277588023003E+02
              0.511482547922139E+01
              0.265784219730527E+02
             -0.193240533991882E+02
              0.588213528764095E+02
             -0.111790073842257E+02
             -0.136571156817897E+00
             -0.792786154009619E+02
             -0.128659683785799E+02
              0.721470804409353E+02
              0.675515367566764E+02
              0.252611761387207E+02
             -0.130915627711938E+02
              0.344108891053622E+01
             -0.174177706231146E+02
             -0.209431925381023E+01
              0.910752576087636E+02
              0.125554709336620E+01
             -0.191263735096315E+02
             -0.111124127463613E+03
             -0.554358541561622E+02
             -0.376247624046612E+02
             -0.660847894324402E+02
             -0.557446269678866E+02
             -0.685027617458362E+02
             -0.448563645699514E+02
             -0.411984347037760E+02
             -0.453454560101328E+02
              0.485015734557653E+02
             -0.294976866100631E+02
             -0.998764292728521E+02
              0.420363953192363E+02
             -0.260986022349678E+02
             -0.793510209238860E+02
              0.947227801405378E+02
             -0.220411097334716E+02
              0.228723880479737E+02
              0.456541866170226E+02
             -0.133191709763685E+01
              0.255135388298427E+02
              0.471250632067594E+01
              0.419842187580961E+00
             -0.150944150592141E+02
             -0.718048804203778E+02
              0.133594868032588E+02
             -0.129803080951177E+03
              0.626274503958005E+02
             -0.441961775513879E+02
             -0.163513388243741E+02
             -0.158796496097152E+02
              0.719314682032529E+01
             -0.228338700386159E+02
              0.298219361900596E+02
             -0.522473297090519E+02
              0.368452839464532E+02
              0.372103095849704E+02
              0.168920688390459E+02
              0.100715712202020E+02
              0.198542170638217E+02
              0.624647113902421E+01
              0.311464454201439E+02
             -0.801035873724021E+01
             -0.594393162636831E+02
              0.760271333029760E+01
             -0.153556748309216E+02
             -0.193824728095518E+01
              0.507878318970971E+02
             -0.829556705571067E+02
             -0.150293101570099E+01
              0.581670551040474E+00
              0.998573532570015E+01
              0.319520031215121E+02
             -0.123974419448975E+02
              0.838544460673171E+02
              0.489157477300303E+02
             -0.183889695954833E+02
             -0.960537856615912E+01
              0.107773256985584E+01
              0.772221397851710E+02
             -0.588012474996716E+02
             -0.106112435189004E+03
              0.310105442813539E+02
             -0.163398045671810E+02
             -0.139860727496054E+02
              0.131121092316278E+02
              0.771134290776905E+02
              0.465640682388433E+02
             -0.154001893457312E+02
             -0.504698993824131E+02
             -0.552479158298851E+01
              0.307374743694531E+02
             -0.112078561380097E+02
             -0.758249208207224E+02
             -0.272925386471016E+01
             -0.892983678165880E+02
             -0.477253737989683E+02
              0.771176537923916E+02
             -0.485132869188832E+02
             -0.638799323347583E+02
             -0.516058386700468E+02
             -0.351000084987552E+02
              0.341932695189795E+02
              0.824372586712500E+02
             -0.358243546553149E+01
              0.277482803092875E+02
             -0.184375385178800E+02
             -0.696185633911062E+02
              0.466673937460015E+02
             -0.446535760669399E+02
              0.322734452102791E+02
              0.377390526712113E+02
             -0.660248039948164E+01
              0.391880169722526E+02
              0.439735992766995E+02
              0.101023352672024E+03
             -0.156455062322261E+02
             -0.457674168926369E+02
             -0.614937776065337E+02
             -0.124436262834290E+02
             -0.234047395946655E+02
              0.103340463881059E+03
             -0.450428762995083E+02
              0.105539685150334E+02
              0.973773312752849E+01
             -0.265353033474553E+02
             -0.801474287441960E+02
             -0.701297671080272E+01
              0.983127450065763E+02
              0.943443834153906E+01
              0.811722987046574E+01
             -0.528705725057641E+02
             -0.607300151439476E+02
             -0.567043488518118E+01
              0.501919334650032E+02
             -0.222694168957439E+02
              0.108311687996663E+03
             -0.436879584584851E+02
              0.146936590782232E+02
             -0.224844638273960E+02
             -0.720574336846627E+02
              0.169781946731024E+01
             -0.503426914779013E+02
             -0.763092090077068E+02
              0.618343053209651E+01
              0.237155340568216E+01
              0.515721244811333E+02
              0.188073528851018E+02
             -0.324618816233679E+02
              0.230818250006926E+02
             -0.813627592448491E+02
             -0.523401151498211E+02
              0.904805507427813E+02
              0.142706105020107E+02
             -0.188322488698744E+02
             -0.353396241450868E+02
             -0.269648257109566E+01
             -0.589866525982256E+01
              0.832941972280712E+02
              0.418973905997417E+02
             -0.166474175722518E+02
             -0.122086097590028E+02
             -0.429000349496227E+02
             -0.201290129283369E+02
             -0.672166859555313E+02
              0.461218217954844E+02
              0.547972562058220E+01
              0.145219396555082E+02
              0.156612419479193E+02
             -0.592826084808209E+00
             -0.169074938812872E+02
             -0.308185906374914E+01
             -0.100776072918558E+03
             -0.230317306376149E+02
             -0.766658664851678E+01
             -0.950468591370290E+01
              0.548231154288087E+02
              0.625782029441392E+02
              0.165352301444036E+02
             -0.973638563531708E+02
              0.649652043125426E+02
             -0.215789187759091E+02
             -0.378246425972509E+02
             -0.867072244909612E+02
             -0.388027747671848E+02
              0.566341227217652E+02
              0.245135165400827E+02
              0.518158431934012E+01
              0.293340277298514E+02
             -0.566671676614272E+02
             -0.423825619997040E+02
              0.517166223313693E+02
              0.388582505274836E+02
              0.520521613539782E+02
             -0.122160511954397E+01
              0.687947032586573E+01
              0.571224417602000E+02
              0.965979322009298E+02
             -0.301009370762303E+02
              0.324005583958851E+02
             -0.119104996672210E+02
             -0.413542741547681E+02
             -0.315303058855696E+02
             -0.301114063581873E+02
             -0.131771762713696E+02
             -0.525093841150498E+02
             -0.217916416397434E+02
             -0.141596264653536E+03
              0.369900512098837E+02
              0.207679515499186E+02
             -0.394731586604936E+01
             -0.381252818464536E+02
             -0.204939201778895E+02
             -0.528544961079456E+02
              0.151484608783732E+02
              0.822628709411008E+02
             -0.252847127472987E+02
             -0.163567636994910E+02
              0.238746134715904E+02
             -0.490870513136429E+02
              0.883374022255708E+02
              0.154955630378771E+02
              0.226701845153955E+02
              0.491963013419370E+02
              0.320552170839017E+01
              0.543958659243942E+02
              0.143544859572776E+02
             -0.106723316487544E+02
              0.736014352544217E+01
              0.777303923617069E+00
              0.729523742266890E+02
              0.101351027292918E+02
              0.121063662977738E+02
             -0.130348849341585E+02
              0.132681399917748E+02
             -0.914215117063721E+02
             -0.327007607185894E+02
             -0.458894806863632E+02
              0.486996606898349E+02
             -0.292163170638034E+02
             -0.660428398829931E+02
              0.540325373452654E+02
             -0.122504663552649E+02
              0.441431230920991E+02
             -0.901691902883288E+02
              0.232713130652183E+02
              0.859994759912581E+01
              0.583980555985022E+01
             -0.835598981320982E+01
             -0.906161243163456E+01
              0.481021445694539E+02
              0.201465272958205E+01
             -0.476681232948276E+02
             -0.176731981448227E+02
              0.277455106592293E+02
             -0.118303924465389E+03
             -0.932713825981559E+02
              0.397104305701799E+01
              0.118075645804996E+02
             -0.414629202469067E+02
             -0.389326168991084E+01
              0.112455113481310E+03
              0.307668043600867E+02
             -0.573329465386091E+02
              0.928213202446418E+01
             -0.968390266612985E+01
              0.105972298798916E+02
             -0.338685288839278E+02
              0.196029270802945E+02
              0.285394230195375E+02
             -0.302261023979037E+01
              0.108531229742102E+03
             -0.140518877945239E+02
             -0.317050381950551E+02
              0.143859429218494E+02
              0.468030640157729E+02
             -0.356964924025779E+02
             -0.318354989210587E+01
              0.967873360149688E+02
             -0.466141518365941E+01
              0.623378448236208E+02
              0.135957257863590E+02
             -0.905171755639387E+01
             -0.305979559153451E+02
              0.568294785580900E+02
             -0.516153859023864E+02
             -0.221930233906033E+01
             -0.170665687611772E+02
             -0.406561355709451E+02
              0.185296168363504E+02
              0.239893985330297E+02
              0.116200911221886E+02
              0.718577339210810E+00
             -0.385800758620186E+02
              0.216065324496270E+02
             -0.675500252005509E+01
             -0.247314700399293E+02
             -0.211331699546386E+02
              0.204040787854080E+02
             -0.597412989497957E+01
             -0.350379565898214E+02
             -0.106971921142810E+03
              0.103084891818399E+02
              0.249372497020872E+02
             -0.388648360410408E+02
             -0.211626777605417E+02
              0.809626855585952E+02
              0.654107432517671E+01
              0.312059073336444E+02
              0.393301080007086E+01
              0.323055738035913E+02
              0.647066112267350E+01
             -0.374243780918401E+02
             -0.233449740910936E+01
              0.878488485836681E+01
              0.274792789228328E+02
              0.784514504044130E+02
              0.509061842828690E+02
              0.187371132821795E+00
              0.169414503004970E+02
              0.615104768374912E+02
              0.236776908163547E+02
             -0.755265979206125E+02
             -0.274674234106488E+02
              0.151504964860395E+02
              0.564849525296580E+01
              0.255867643920413E+02
             -0.549550728059215E+02
              0.901682535603413E+01
              0.387147532298430E+02
              0.499655394198604E+02
             -0.436333103084150E+02
             -0.691001876926197E+01
             -0.209086797252877E+01
             -0.134484262175676E+02
             -0.366611505654777E+02
             -0.215766474265669E+02
             -0.204091719238555E+01
              0.796159956856798E+01
              0.422718393955582E+02
             -0.309418110006720E+02
              0.828767879296578E+02
              0.328663587577167E+02
              0.220507804245593E+02
              0.334118997156843E+02
              0.324137410508062E+02
              0.347118794464090E+02
              0.538974245968951E+02
             -0.435395341006520E+02
              0.621598049327690E+02
             -0.112626998531007E+03
              0.308425776577243E+02
             -0.106872095065129E+03
              0.857368853049990E+02
              0.693120593864331E+02
             -0.110179158232726E+02
             -0.494843932606256E+02
             -0.430843152948206E+02
             -0.625441168994759E+02
             -0.630788078664372E+02
              0.553539751040340E+02
              0.406848782551933E+02
              0.237648189169358E+02
              0.374899827438571E+02
              0.404467258188589E+02
             -0.383414298636410E+02
             -0.198382843757059E+02
              0.588223677183349E+02
             -0.116340078300580E+02
              0.553332452481384E+02
              0.701788750809777E+02
             -0.554740115423023E+01
             -0.708644550045246E+02
             -0.902236075571068E+00
             -0.245986371840237E+01
             -0.886047334868931E+01
             -0.178529757790517E+01
             -0.655058725319760E+02
             -0.211298590010773E+02
              0.542599422561444E+01
              0.901887826098022E+01
              0.470456702928422E+02
             -0.399069186544519E+02
              0.659401803605160E+02
             -0.426609298161528E+02
              0.211118872026465E+02
              0.351688927976467E+02
 
 BEEF-vdW xc energy contributions
           1 :   -785.416381558548     
           2 :    721.530505881732     
           3 :   -610.898725039273     
           4 :    480.608077997058     
           5 :   -358.191773888207     
           6 :    263.530330757159     
           7 :   -204.347383486595     
           8 :    176.166061602827     
           9 :   -166.313143374287     
          10 :    160.081602882764     
          11 :   -146.545060209696     
          12 :    121.833030699565     
          13 :   -88.9999610823086     
          14 :    55.1101006048137     
          15 :   -27.2301541484136     
          16 :    9.14190616740905     
          17 :  -4.442124715819773E-002
          18 :   -4.48868078856060     
          19 :    10.0004934951079     
          20 :   -20.4172928933747     
          21 :    36.3506210826247     
          22 :   -55.1067476367896     
          23 :    72.2263945110739     
          24 :   -83.7149115994341     
          25 :    87.8675685308048     
          26 :   -85.8807501124990     
          27 :    81.0642088262687     
          28 :   -77.1389563928848     
          29 :    76.4760190801943     
          30 :   -79.1027990011823     
          31 :   -86.1258411711726     
          32 :   -66.0016894956185     

     Writing output data file ./pwscf.save/
 
     init_run     :    346.20s CPU    350.77s WALL (       1 calls)
     electrons    :  13730.29s CPU  13860.65s WALL (       1 calls)
     forces       :    102.21s CPU    103.46s WALL (       1 calls)

     Called by init_run:
     wfcinit      :    297.41s CPU    301.01s WALL (       1 calls)
     potinit      :     45.33s CPU     45.62s WALL (       1 calls)
     hinit0       :      1.44s CPU      1.48s WALL (       1 calls)

     Called by electrons:
     c_bands      :  11365.87s CPU  11465.59s WALL (      21 calls)
     sum_band     :   1645.02s CPU   1658.85s WALL (      21 calls)
     v_of_rho     :    131.60s CPU    135.79s WALL (      21 calls)
     newd         :     33.77s CPU     46.51s WALL (      21 calls)
     PAW_pot      :    139.95s CPU    139.96s WALL (      21 calls)
     mix_rho      :    460.20s CPU    460.91s WALL (      21 calls)
     vdW_kernel   :     33.47s CPU     33.47s WALL (       1 calls)

     Called by c_bands:
     init_us_2    :     81.52s CPU     81.79s WALL (     572 calls)
     cegterg      :  10533.10s CPU  10632.28s WALL (     273 calls)

     Called by *egterg:
     cdiaghg      :     98.12s CPU     98.16s WALL (    1479 calls)
     h_psi        :   6781.48s CPU   6816.72s WALL (    1505 calls)
     s_psi        :   1109.94s CPU   1110.00s WALL (    1505 calls)
     g_psi        :     16.56s CPU     16.57s WALL (    1219 calls)

     Called by h_psi:
     h_psi:calbec :   1042.62s CPU   1042.94s WALL (    1505 calls)
     vloc_psi     :   4602.28s CPU   4603.97s WALL (    1505 calls)
     add_vuspsi   :   1110.42s CPU   1110.54s WALL (    1505 calls)

     General routines
     calbec       :   1541.00s CPU   1541.37s WALL (    1830 calls)
     fft          :     50.12s CPU     50.15s WALL (    3281 calls)
     ffts         :    147.25s CPU    147.29s WALL (   10266 calls)
     fftw         :   4721.54s CPU   4722.66s WALL (  348107 calls)
 
     Parallel routines
 
     PWSCF        :      3h58m CPU      4h 1m WALL

 
   This run was terminated on:   2:43:50   4Jan2023            

=------------------------------------------------------------------------------=
   JOB DONE.
=------------------------------------------------------------------------------=
