
     Program PWSCF v.6.7MaX starts on  3Jan2023 at 22:41:56 

     This program is part of the open-source Quantum ESPRESSO suite
     for quantum simulation of materials; please cite
         "P. Giannozzi et al., J. Phys.:Condens. Matter 21 395502 (2009);
         "P. Giannozzi et al., J. Phys.:Condens. Matter 29 465901 (2017);
          URL http://www.quantum-espresso.org", 
     in publications or presentations arising from this work. More details at
     http://www.quantum-espresso.org/quote

     Parallel version (MPI), running on     1 processors

     MPI processes distributed on     1 nodes
     Reading input from ch2coh-mono-ensemble.in
Warning: card &CELL ignored
Warning: card / ignored

     Current dimensions of program PWSCF are:
     Max number of different atomic species (ntypx) = 10
     Max number of k-points (npk) =  40000
     Max angular momentum in pseudopotentials (lmaxx) =  3
     file Pt.pbe-n-kjpaw_psl.1.0.0.UPF: wavefunction(s)  6S 5D renormalized
     file C.pbe-n-kjpaw_psl.1.0.0.UPF: wavefunction(s)  2S 2P renormalized
     file O.pbe-nl-kjpaw_psl.1.0.0.UPF: wavefunction(s)  2S 2P renormalized
     file H.pbe-kjpaw_psl.1.0.0.UPF: wavefunction(s)  1S renormalized

     **************************************************************************
     Initializing libbeef V0.1.2 with the BEEF-vdW functional.
     Citation: Wellendorff et al., PRB 85, 235149 (2012).
     **************************************************************************


     IMPORTANT: XC functional enforced from input :
     Exchange-correlation= BEEF-VDW
                           (   1   4  43  14   2   0   0)
     Any further DFT definition will be discarded
     Please, verify this is what you really want


     Subspace diagonalization in iterative solution of the eigenvalue problem:
     a serial algorithm will be used

 
     G-vector sticks info
     --------------------
     sticks:   dense  smooth     PW     G-vecs:    dense   smooth      PW
     Sum        4267    4267   1159               737295   737295  103953
 


     bravais-lattice index     =            0
     lattice parameter (alat)  =      16.0349  a.u.
     unit-cell volume          =   11744.7943 (a.u.)^3
     number of atoms/cell      =           42
     number of atomic types    =            4
     number of electrons       =       377.00
     number of Kohn-Sham states=          227
     kinetic-energy cutoff     =      60.0000  Ry
     charge density cutoff     =     240.0000  Ry
     scf convergence threshold =      1.0E-06
     mixing beta               =       0.7000
     number of iterations used =            8  local-TF  mixing
     Exchange-correlation= BEEF-VDW
                           (   1   4  43  14   2   0   0)

     celldm(1)=  16.034858  celldm(2)=   0.000000  celldm(3)=   0.000000
     celldm(4)=   0.000000  celldm(5)=   0.000000  celldm(6)=   0.000000

     crystal axes: (cart. coord. in units of alat)
               a(1) = (   1.000000   0.000000   0.000000 )  
               a(2) = (   0.500000   0.866025   0.000000 )  
               a(3) = (   0.000000   0.000000   3.289421 )  

     reciprocal axes: (cart. coord. in units 2 pi/alat)
               b(1) = (  1.000000 -0.577350  0.000000 )  
               b(2) = (  0.000000  1.154701  0.000000 )  
               b(3) = (  0.000000  0.000000  0.304005 )  


     PseudoPot. # 1 for Pt read from file:
     /users/bkreitz1/quantum-espresso/potentials/Pt.pbe-n-kjpaw_psl.1.0.0.UPF
     MD5 check sum: 04dc8a03c51ece93fc7b5889c2958091
     Pseudo is Projector augmented-wave + core cor, Zval = 10.0
     Generated using 'atomic' code by A. Dal Corso  v.6.7MaX
     Shape of augmentation charge: PSQ
     Using radial grid of 1277 points,  6 beta functions with: 
                l(1) =   0
                l(2) =   0
                l(3) =   1
                l(4) =   1
                l(5) =   2
                l(6) =   2
     Q(r) pseudized with 0 coefficients 


     PseudoPot. # 2 for C  read from file:
     /users/bkreitz1/quantum-espresso/potentials/C.pbe-n-kjpaw_psl.1.0.0.UPF
     MD5 check sum: a169b0ebad56f5ec0d79c4633f80bf22
     Pseudo is Projector augmented-wave + core cor, Zval =  4.0
     Generated using 'atomic' code by A. Dal Corso  v.6.7MaX
     Shape of augmentation charge: PSQ
     Using radial grid of 1073 points,  4 beta functions with: 
                l(1) =   0
                l(2) =   0
                l(3) =   1
                l(4) =   1
     Q(r) pseudized with 0 coefficients 


     PseudoPot. # 3 for O  read from file:
     /users/bkreitz1/quantum-espresso/potentials/O.pbe-nl-kjpaw_psl.1.0.0.UPF
     MD5 check sum: eef08af8b58d9ec80f8fdb78829eb7cf
     Pseudo is Projector augmented-wave + core cor, Zval =  6.0
     Generated using 'atomic' code by A. Dal Corso  v.6.7MaX
     Shape of augmentation charge: PSQ
     Using radial grid of 1095 points,  4 beta functions with: 
                l(1) =   0
                l(2) =   0
                l(3) =   1
                l(4) =   1
     Q(r) pseudized with 0 coefficients 


     PseudoPot. # 4 for H  read from file:
     /users/bkreitz1/quantum-espresso/potentials/H.pbe-kjpaw_psl.1.0.0.UPF
     MD5 check sum: ae98473e6dc62675f0d0baffdab24f65
     Pseudo is Projector augmented-wave, Zval =  1.0
     Generated using 'atomic' code by A. Dal Corso  v.6.7MaX
     Shape of augmentation charge: PSQ
     Using radial grid of  929 points,  2 beta functions with: 
                l(1) =   0
                l(2) =   0
     Q(r) pseudized with 0 coefficients 


     atomic species   valence    mass     pseudopotential
        Pt            10.00   195.08400     Pt( 1.00)
        C              4.00    12.01100     C ( 1.00)
        O              6.00    15.99900     O ( 1.00)
        H              1.00     1.00800     H ( 1.00)

     No symmetry found



   Cartesian axes

     site n.     atom                  positions (alat units)
         1           Pt  tau(   1) = (   0.0000000   0.0000000   1.0017346  )
         2           Pt  tau(   2) = (   0.3333333   0.0000000   1.0017346  )
         3           Pt  tau(   3) = (   0.6666667   0.0000000   1.0017346  )
         4           Pt  tau(   4) = (   0.1666667   0.2886751   1.0017346  )
         5           Pt  tau(   5) = (   0.5000000   0.2886751   1.0017346  )
         6           Pt  tau(   6) = (   0.8333333   0.2886751   1.0017346  )
         7           Pt  tau(   7) = (   0.3333333   0.5773503   1.0017346  )
         8           Pt  tau(   8) = (   0.6666667   0.5773503   1.0017346  )
         9           Pt  tau(   9) = (   1.0000000   0.5773503   1.0017346  )
        10           Pt  tau(  10) = (   0.1666667   0.0962250   1.2739001  )
        11           Pt  tau(  11) = (   0.5000000   0.0962250   1.2739001  )
        12           Pt  tau(  12) = (   0.8333333   0.0962250   1.2739001  )
        13           Pt  tau(  13) = (   0.3333333   0.3849002   1.2739001  )
        14           Pt  tau(  14) = (   0.6666667   0.3849002   1.2739001  )
        15           Pt  tau(  15) = (   1.0000000   0.3849002   1.2739001  )
        16           Pt  tau(  16) = (   0.5000000   0.6735753   1.2739001  )
        17           Pt  tau(  17) = (   0.8333333   0.6735753   1.2739001  )
        18           Pt  tau(  18) = (   1.1666667   0.6735753   1.2739001  )
        19           Pt  tau(  19) = (  -0.0001269   0.1920820   1.5411073  )
        20           Pt  tau(  20) = (   0.3353786   0.1928990   1.5471515  )
        21           Pt  tau(  21) = (   0.6643589   0.1934280   1.5473434  )
        22           Pt  tau(  22) = (   0.1670867   0.4807490   1.5426483  )
        23           Pt  tau(  23) = (   0.5003873   0.4786826   1.5462807  )
        24           Pt  tau(  24) = (   0.8331859   0.4806404   1.5426312  )
        25           Pt  tau(  25) = (   0.3333362   0.7696314   1.5415777  )
        26           Pt  tau(  26) = (   0.6669695   0.7694551   1.5423257  )
        27           Pt  tau(  27) = (   1.0000143   0.7696318   1.5427085  )
        28           Pt  tau(  28) = (   0.0001473  -0.0004961   1.8168279  )
        29           Pt  tau(  29) = (   0.3331274  -0.0014940   1.8176485  )
        30           Pt  tau(  30) = (   0.6671649  -0.0013641   1.8162686  )
        31           Pt  tau(  31) = (   0.1645875   0.2864578   1.8151611  )
        32           Pt  tau(  32) = (   0.4976854   0.2886746   1.8428897  )
        33           Pt  tau(  33) = (   0.8344598   0.2876410   1.8162705  )
        34           Pt  tau(  34) = (   0.3342315   0.5786204   1.8154038  )
        35           Pt  tau(  35) = (   0.6678261   0.5778487   1.8168996  )
        36           Pt  tau(  36) = (   1.0000899   0.5766804   1.8165206  )
        37           C   tau(  37) = (   0.4919085   0.3076039   2.0790737  )
        38           C   tau(  38) = (   0.3830220   0.3911187   2.1606478  )
        39           O   tau(  39) = (   0.6071392   0.2318274   2.1608609  )
        40           H   tau(  40) = (   0.2791168   0.4398302   2.1059046  )
        41           H   tau(  41) = (   0.3994720   0.4076777   2.2864591  )
        42           H   tau(  42) = (   0.6931213   0.2030342   2.0916909  )

     number of k points=    13  Marzari-Vanderbilt smearing, width (Ry)=  0.0200
                       cart. coord. in units 2pi/alat
        k(    1) = (   0.0000000   0.0000000   0.0000000), wk =   0.0800000
        k(    2) = (   0.0000000   0.2309401   0.0000000), wk =   0.1600000
        k(    3) = (   0.0000000   0.4618802   0.0000000), wk =   0.1600000
        k(    4) = (   0.2000000  -0.1154701   0.0000000), wk =   0.1600000
        k(    5) = (   0.2000000   0.1154701   0.0000000), wk =   0.1600000
        k(    6) = (   0.2000000   0.3464102   0.0000000), wk =   0.1600000
        k(    7) = (   0.2000000  -0.5773503   0.0000000), wk =   0.1600000
        k(    8) = (   0.2000000  -0.3464102   0.0000000), wk =   0.1600000
        k(    9) = (   0.4000000  -0.2309401   0.0000000), wk =   0.1600000
        k(   10) = (   0.4000000  -0.0000000   0.0000000), wk =   0.1600000
        k(   11) = (   0.4000000   0.2309401   0.0000000), wk =   0.1600000
        k(   12) = (   0.4000000  -0.6928203   0.0000000), wk =   0.1600000
        k(   13) = (   0.4000000  -0.4618802   0.0000000), wk =   0.1600000

     Dense  grid:   737295 G-vectors     FFT dimensions: (  80,  80, 270)

     Estimated max dynamical RAM per process >       9.00 GB

     Check: negative core charge=   -0.000002

     Initial potential from superposition of free atoms

     starting charge  376.99378, renormalised to  377.00000

     negative rho (up, down):  1.248E-02 0.000E+00


     %%%%%%%%%%%%%%%%%%%%%%%%%%%%%%%%%%%%%%%%%%%%%%%%%%%%%%%%%%%%%%%%%%%%%%%%
     %                                                                      %
     % You are using vdW-DF, which was implemented by the Thonhauser group. %
     % Please cite the following two papers that made this development      %
     % possible and the two reviews that describe the various versions:     %
     %                                                                      %
     %   T. Thonhauser et al., PRL 115, 136402 (2015).                      %
     %   T. Thonhauser et al., PRB 76, 125112 (2007).                       %
     %   K. Berland et al., Rep. Prog. Phys. 78, 066501 (2015).             %
     %   D.C. Langreth et al., J. Phys.: Condens. Matter 21, 084203 (2009). %
     %                                                                      %
     %                                                                      %
     % If you are calculating the stress with vdW-DF, please also cite:     %
     %                                                                      %
     %   R. Sabatini et al., J. Phys.: Condens. Matter 24, 424209 (2012).   %
     %                                                                      %
     %%%%%%%%%%%%%%%%%%%%%%%%%%%%%%%%%%%%%%%%%%%%%%%%%%%%%%%%%%%%%%%%%%%%%%%%


     Starting wfcs are  339 randomized atomic wfcs
     Checking if some PAW data can be deallocated... 

     total cpu time spent up to now is      379.7 secs

     Self-consistent Calculation

     iteration #  1     ecut=    60.00 Ry     beta= 0.70
     Davidson diagonalization with overlap
     ethr =  1.00E-02,  avg # of iterations =  2.3

     Threshold (ethr) on eigenvalues was too large:
     Diagonalizing with lowered threshold

     Davidson diagonalization with overlap
     ethr =  7.97E-04,  avg # of iterations =  2.7

     negative rho (up, down):  1.295E-02 0.000E+00

     total cpu time spent up to now is     1825.6 secs

     total energy              =  -27838.09249222 Ry
     estimated scf accuracy    <       3.21908791 Ry

     iteration #  2     ecut=    60.00 Ry     beta= 0.70
     Davidson diagonalization with overlap
     ethr =  8.54E-04,  avg # of iterations =  2.9

     negative rho (up, down):  1.119E-02 0.000E+00

     total cpu time spent up to now is     2512.8 secs

     total energy              =  -27838.24752277 Ry
     estimated scf accuracy    <       1.20151933 Ry

     iteration #  3     ecut=    60.00 Ry     beta= 0.70
     Davidson diagonalization with overlap
     ethr =  3.19E-04,  avg # of iterations =  7.1

     negative rho (up, down):  8.243E-03 0.000E+00

     total cpu time spent up to now is     3254.2 secs

     total energy              =  -27838.29491029 Ry
     estimated scf accuracy    <       0.48076144 Ry

     iteration #  4     ecut=    60.00 Ry     beta= 0.70
     Davidson diagonalization with overlap
     ethr =  1.28E-04,  avg # of iterations =  6.8

     negative rho (up, down):  7.127E-03 0.000E+00

     total cpu time spent up to now is     4072.0 secs

     total energy              =  -27838.35375126 Ry
     estimated scf accuracy    <       0.30301931 Ry

     iteration #  5     ecut=    60.00 Ry     beta= 0.70
     Davidson diagonalization with overlap
     ethr =  8.04E-05,  avg # of iterations =  2.0

     negative rho (up, down):  6.375E-03 0.000E+00

     total cpu time spent up to now is     4715.1 secs

     total energy              =  -27838.36030847 Ry
     estimated scf accuracy    <       0.04240897 Ry

     iteration #  6     ecut=    60.00 Ry     beta= 0.70
     Davidson diagonalization with overlap
     c_bands:  1 eigenvalues not converged
     c_bands:  1 eigenvalues not converged
     ethr =  1.12E-05,  avg # of iterations = 14.5

     negative rho (up, down):  7.837E-03 0.000E+00

     total cpu time spent up to now is     5707.9 secs

     total energy              =  -27838.37181112 Ry
     estimated scf accuracy    <       0.03805059 Ry

     iteration #  7     ecut=    60.00 Ry     beta= 0.70
     Davidson diagonalization with overlap
     c_bands:  1 eigenvalues not converged
     c_bands:  1 eigenvalues not converged
     ethr =  1.01E-05,  avg # of iterations =  6.8

     negative rho (up, down):  1.018E-02 0.000E+00

     total cpu time spent up to now is     6312.6 secs

     total energy              =  -27838.37240332 Ry
     estimated scf accuracy    <       0.02020618 Ry

     iteration #  8     ecut=    60.00 Ry     beta= 0.70
     Davidson diagonalization with overlap
     c_bands:  1 eigenvalues not converged
     ethr =  5.36E-06,  avg # of iterations =  6.2

     negative rho (up, down):  1.167E-02 0.000E+00

     total cpu time spent up to now is     6925.6 secs

     total energy              =  -27838.37299042 Ry
     estimated scf accuracy    <       0.00777825 Ry

     iteration #  9     ecut=    60.00 Ry     beta= 0.70
     Davidson diagonalization with overlap
     c_bands:  1 eigenvalues not converged
     ethr =  2.06E-06,  avg # of iterations = 10.6

     negative rho (up, down):  1.247E-02 0.000E+00

     total cpu time spent up to now is     7608.3 secs

     total energy              =  -27838.37328646 Ry
     estimated scf accuracy    <       0.00111954 Ry

     iteration # 10     ecut=    60.00 Ry     beta= 0.70
     Davidson diagonalization with overlap
     ethr =  2.97E-07,  avg # of iterations =  4.1

     negative rho (up, down):  1.322E-02 0.000E+00

     total cpu time spent up to now is     8275.7 secs

     total energy              =  -27838.37344821 Ry
     estimated scf accuracy    <       0.00115201 Ry

     iteration # 11     ecut=    60.00 Ry     beta= 0.70
     Davidson diagonalization with overlap
     ethr =  2.97E-07,  avg # of iterations =  1.1

     negative rho (up, down):  1.328E-02 0.000E+00

     total cpu time spent up to now is     8804.4 secs

     total energy              =  -27838.37350104 Ry
     estimated scf accuracy    <       0.00029066 Ry

     iteration # 12     ecut=    60.00 Ry     beta= 0.70
     Davidson diagonalization with overlap
     ethr =  7.71E-08,  avg # of iterations =  3.5

     negative rho (up, down):  1.320E-02 0.000E+00

     total cpu time spent up to now is     9427.1 secs

     total energy              =  -27838.37353250 Ry
     estimated scf accuracy    <       0.00011779 Ry

     iteration # 13     ecut=    60.00 Ry     beta= 0.70
     Davidson diagonalization with overlap
     ethr =  3.12E-08,  avg # of iterations =  3.7

     negative rho (up, down):  1.314E-02 0.000E+00

     total cpu time spent up to now is    10074.7 secs

     total energy              =  -27838.37354765 Ry
     estimated scf accuracy    <       0.00003588 Ry

     iteration # 14     ecut=    60.00 Ry     beta= 0.70
     Davidson diagonalization with overlap
     ethr =  9.52E-09,  avg # of iterations =  4.4

     negative rho (up, down):  1.303E-02 0.000E+00

     total cpu time spent up to now is    10865.5 secs

     total energy              =  -27838.37355892 Ry
     estimated scf accuracy    <       0.00002017 Ry

     iteration # 15     ecut=    60.00 Ry     beta= 0.70
     Davidson diagonalization with overlap
     ethr =  5.35E-09,  avg # of iterations =  1.6

     negative rho (up, down):  1.309E-02 0.000E+00

     total cpu time spent up to now is    11415.9 secs

     total energy              =  -27838.37356027 Ry
     estimated scf accuracy    <       0.00000465 Ry

     iteration # 16     ecut=    60.00 Ry     beta= 0.70
     Davidson diagonalization with overlap
     ethr =  1.23E-09,  avg # of iterations =  3.9

     negative rho (up, down):  1.313E-02 0.000E+00

     total cpu time spent up to now is    12160.3 secs

     total energy              =  -27838.37356102 Ry
     estimated scf accuracy    <       0.00000245 Ry

     iteration # 17     ecut=    60.00 Ry     beta= 0.70
     Davidson diagonalization with overlap
     ethr =  6.51E-10,  avg # of iterations =  1.6

     negative rho (up, down):  1.323E-02 0.000E+00

     total cpu time spent up to now is    12727.1 secs

     total energy              =  -27838.37356087 Ry
     estimated scf accuracy    <       0.00000123 Ry

     iteration # 18     ecut=    60.00 Ry     beta= 0.70
     Davidson diagonalization with overlap
     ethr =  3.25E-10,  avg # of iterations =  2.1

     negative rho (up, down):  1.337E-02 0.000E+00

     total cpu time spent up to now is    13313.4 secs

     total energy              =  -27838.37356054 Ry
     estimated scf accuracy    <       0.00000103 Ry

     iteration # 19     ecut=    60.00 Ry     beta= 0.70
     Davidson diagonalization with overlap
     ethr =  2.74E-10,  avg # of iterations =  1.5

     negative rho (up, down):  1.375E-02 0.000E+00

     total cpu time spent up to now is    13831.5 secs

     End of self-consistent calculation

          k = 0.0000 0.0000 0.0000 ( 92231 PWs)   bands (ev):

   -20.3467 -12.3259  -8.2284  -7.3010  -6.4678  -5.9192  -4.9234  -4.8825
    -4.8790  -4.8758  -4.8657  -4.8451  -4.8430  -4.8292  -4.5676  -4.3218
    -4.3204  -4.3154  -4.3018  -4.3013  -4.2796  -3.9504  -3.8578  -3.8471
    -3.8411  -3.8363  -3.8286  -3.8122  -3.6414  -3.6332  -3.6264  -3.6237
    -3.6013  -3.5839  -3.4257  -3.4077  -3.4060  -3.4003  -3.3926  -3.3911
    -3.3830  -3.3792  -3.3634  -3.3474  -3.3442  -3.3255  -3.1383  -2.8086
    -2.7835  -2.7803  -2.7523  -2.7515  -2.7046  -2.6977  -2.6947  -2.6859
    -2.6534  -2.5557  -2.5527  -2.5003  -2.4721  -2.1691  -1.9843  -1.9788
    -1.9550  -1.9513  -1.9432  -1.9068  -1.8550  -1.8069  -1.7932  -1.7836
    -1.7818  -1.7595  -1.7577  -1.7381  -1.7345  -1.7269  -1.7134  -1.7090
    -1.7009  -1.6780  -1.6744  -1.6382  -1.5703  -1.5590  -1.5451  -1.5421
    -1.5348  -1.3853  -1.3789  -1.3761  -1.3516  -1.3409  -1.3377  -1.3111
    -1.3076  -1.2736  -1.2531  -1.2148  -1.1852  -1.1754  -1.1212  -1.1202
    -1.0891  -1.0813  -1.0707  -1.0466  -0.9570  -0.9453  -0.9234  -0.9164
    -0.9105  -0.9055  -0.5583  -0.4958  -0.4876  -0.4359  -0.4293  -0.4257
    -0.4189  -0.4156  -0.3693  -0.3648  -0.3600  -0.3482  -0.3043  -0.2629
    -0.2615  -0.1566  -0.1457  -0.1241  -0.1202  -0.0716  -0.0416  -0.0230
    -0.0038   0.0572   0.0606   0.0674   0.0681   0.2340   0.2672   0.3067
     0.3121   0.3150   0.3384   0.3767   0.3808   0.5147   0.5582   0.5682
     0.5778   0.5859   0.6369   0.6950   0.7180   0.7220   0.7408   0.7487
     0.7526   0.7665   0.7778   0.7821   0.7847   0.7948   0.8631   0.8691
     0.8757   0.8828   0.9017   0.9042   0.9351   0.9601   0.9914   0.9998
     1.0082   1.0154   1.0370   1.0448   1.0511   1.0625   1.1192   1.1287
     1.1334   1.1434   1.1514   1.1563   1.1706   1.1828   1.2449   1.2494
     1.2539   1.2759   1.2795   1.3069   1.4525   1.4573   1.5498   1.5511
     1.5856   1.5884   1.5906   1.6027   1.8969   2.3882   2.4513   2.4655
     2.4744   2.5038   2.5610   3.7641   4.7169   4.7596   4.8007   4.8104
     4.8222   5.7100   5.9783   6.1883   6.3516   6.3726   6.3936   6.3967
     6.4112   6.4766   6.4850

          k = 0.0000 0.2309 0.0000 ( 92160 PWs)   bands (ev):

   -20.3467 -12.3260  -8.2280  -7.1571  -6.4495  -5.7945  -5.3702  -4.9784
    -4.9726  -4.7800  -4.7313  -4.6703  -4.6383  -4.6228  -4.5636  -4.4170
    -4.3974  -4.2530  -4.2500  -4.2321  -4.2110  -3.9450  -3.9271  -3.8173
    -3.8138  -3.8001  -3.7882  -3.7209  -3.7146  -3.6629  -3.6580  -3.6383
    -3.6210  -3.5893  -3.5317  -3.5247  -3.4392  -3.4194  -3.4087  -3.3895
    -3.3710  -3.2359  -3.2015  -3.1883  -3.1735  -3.1594  -3.1106  -2.9076
    -2.9050  -2.8504  -2.8293  -2.8112  -2.7864  -2.7744  -2.6461  -2.5915
    -2.5577  -2.5251  -2.4982  -2.4701  -2.4639  -2.2799  -2.2093  -2.1485
    -2.1075  -2.0803  -2.0688  -2.0139  -1.9761  -1.9618  -1.9392  -1.9236
    -1.9180  -1.8710  -1.8526  -1.7889  -1.7687  -1.7576  -1.7276  -1.6826
    -1.6727  -1.6566  -1.6016  -1.5941  -1.5691  -1.5086  -1.4933  -1.4867
    -1.4754  -1.4207  -1.4002  -1.3946  -1.3735  -1.3648  -1.3425  -1.3279
    -1.2944  -1.2406  -1.2357  -1.2107  -1.2036  -1.1718  -1.1655  -1.1427
    -1.1070  -1.0938  -1.0835  -0.9895  -0.9640  -0.9469  -0.9352  -0.9238
    -0.9024  -0.8828  -0.8644  -0.8408  -0.8290  -0.8121  -0.7763  -0.7262
    -0.5316  -0.5158  -0.4770  -0.4454  -0.4235  -0.3923  -0.3824  -0.3665
    -0.3355  -0.2210  -0.2121  -0.1845  -0.0971  -0.0704  -0.0312  -0.0097
     0.0150   0.0304   0.0423   0.0758   0.0953   0.1570   0.1678   0.1899
     0.2108   0.2147   0.3168   0.3749   0.4116   0.4168   0.4432   0.4555
     0.4867   0.5329   0.5662   0.5747   0.6011   0.6196   0.6653   0.6856
     0.6977   0.7137   0.7763   0.8005   0.8171   0.8356   0.9054   0.9244
     0.9369   0.9763   0.9952   1.0129   1.0311   1.0745   1.0894   1.1250
     1.1363   1.1749   1.1874   1.2104   1.2265   1.2337   1.2362   1.2471
     1.2983   1.3045   1.3215   1.4376   1.4426   1.4810   1.4963   1.4979
     1.5140   1.5444   1.5716   1.5766   1.5975   1.6710   1.6987   1.7211
     1.7308   1.8752   1.8839   1.8966   1.9563   2.1994   2.3492   2.7478
     3.0448   3.0831   3.1953   3.7593   4.2041   4.4960   4.8955   5.2049
     5.2148   5.3268   5.5305   5.8379   5.9920   6.1594   6.2386   6.3453
     6.5165   6.5898   6.6334

          k = 0.0000 0.4619 0.0000 ( 92128 PWs)   bands (ev):

   -20.3467 -12.3260  -8.2273  -6.7570  -6.4271  -6.0496  -5.4160  -5.0116
    -5.0058  -4.8793  -4.6444  -4.5759  -4.4898  -4.3760  -4.3443  -4.2871
    -4.2793  -4.1481  -4.1027  -4.0722  -4.0606  -4.0514  -3.9548  -3.9270
    -3.8964  -3.8747  -3.8515  -3.8303  -3.8115  -3.7818  -3.7155  -3.7099
    -3.7024  -3.4599  -3.4496  -3.4412  -3.4399  -3.4229  -3.4135  -3.2452
    -3.1988  -3.1932  -3.1713  -3.1569  -3.1290  -3.1227  -2.9108  -2.8770
    -2.8659  -2.8468  -2.8377  -2.8009  -2.7889  -2.7222  -2.7129  -2.6997
    -2.6548  -2.6493  -2.5099  -2.4959  -2.4917  -2.4518  -2.3672  -2.3354
    -2.2836  -2.2758  -2.2589  -2.1765  -2.1182  -2.0658  -2.0488  -2.0392
    -2.0049  -1.9666  -1.9424  -1.9026  -1.8258  -1.8157  -1.7925  -1.7441
    -1.6978  -1.6699  -1.6659  -1.6613  -1.6367  -1.5869  -1.5728  -1.5610
    -1.5501  -1.5460  -1.5275  -1.5206  -1.5079  -1.4433  -1.4164  -1.3951
    -1.3727  -1.3688  -1.3618  -1.3408  -1.2345  -1.2180  -1.1914  -1.1698
    -1.1366  -1.1124  -1.0968  -1.0800  -1.0728  -0.9686  -0.9373  -0.9137
    -0.8923  -0.8749  -0.8154  -0.7947  -0.6908  -0.6795  -0.6489  -0.5951
    -0.5518  -0.5246  -0.5055  -0.4891  -0.4604  -0.4533  -0.4395  -0.3818
    -0.3732  -0.3639  -0.3405  -0.3381  -0.3108  -0.2923  -0.2647  -0.2446
    -0.1451  -0.1301  -0.1043  -0.0907  -0.0373   0.0355   0.0742   0.0831
     0.1751   0.1845   0.2540   0.3263   0.3351   0.3835   0.3946   0.4202
     0.4461   0.4701   0.5203   0.5260   0.5675   0.5966   0.6070   0.6780
     0.6988   0.7142   0.7252   0.7430   0.7651   0.8089   0.9216   0.9430
     0.9845   1.0124   1.0283   1.0407   1.0911   1.1240   1.1511   1.1598
     1.2254   1.2397   1.2788   1.2988   1.3199   1.3262   1.3543   1.4365
     1.4420   1.4754   1.4889   1.5081   1.5238   1.5264   1.5309   1.7008
     1.7028   1.7254   1.7502   1.7521   1.9072   1.9612   2.1369   2.3518
     2.4334   2.5400   2.7760   2.7906   3.0760   3.1704   3.2027   3.5114
     3.6145   3.9897   4.0030   4.0192   4.1643   4.2676   4.3316   4.3966
     4.6422   4.6450   4.9544   5.2964   5.4542   5.8008   5.9036   6.1193
     6.2954   6.5037   6.6527

          k = 0.2000-0.1155 0.0000 ( 92160 PWs)   bands (ev):

   -20.3467 -12.3260  -8.2277  -7.1569  -6.4486  -5.7957  -5.3719  -4.9784
    -4.9705  -4.7809  -4.7315  -4.6760  -4.6282  -4.6254  -4.5671  -4.4262
    -4.3956  -4.2521  -4.2503  -4.2316  -4.2025  -3.9457  -3.9340  -3.8185
    -3.8095  -3.7971  -3.7779  -3.7302  -3.7103  -3.6700  -3.6549  -3.6364
    -3.6263  -3.5842  -3.5360  -3.5146  -3.4413  -3.4228  -3.4016  -3.3837
    -3.3799  -3.2152  -3.2012  -3.1939  -3.1774  -3.1451  -3.1248  -2.9182
    -2.9036  -2.8875  -2.8266  -2.8187  -2.7918  -2.7476  -2.6326  -2.5872
    -2.5396  -2.5260  -2.5128  -2.4768  -2.4658  -2.2907  -2.1991  -2.1479
    -2.1088  -2.0852  -2.0496  -2.0329  -1.9721  -1.9656  -1.9339  -1.9203
    -1.9154  -1.8573  -1.8409  -1.7937  -1.7836  -1.7694  -1.7426  -1.6826
    -1.6729  -1.6432  -1.6030  -1.5992  -1.5719  -1.5086  -1.5006  -1.4928
    -1.4744  -1.4334  -1.4022  -1.3862  -1.3806  -1.3610  -1.3507  -1.3230
    -1.2899  -1.2523  -1.2323  -1.2124  -1.2065  -1.1740  -1.1659  -1.1326
    -1.1131  -1.0891  -1.0537  -0.9798  -0.9539  -0.9467  -0.9328  -0.9230
    -0.9013  -0.8956  -0.8759  -0.8377  -0.8288  -0.8120  -0.7964  -0.6652
    -0.5448  -0.5186  -0.4794  -0.4303  -0.4262  -0.3893  -0.3832  -0.3686
    -0.3384  -0.2223  -0.2130  -0.2063  -0.0853  -0.0772  -0.0321  -0.0088
     0.0101   0.0248   0.0524   0.0667   0.0837   0.1569   0.1757   0.1852
     0.2080   0.2112   0.3543   0.3621   0.4124   0.4310   0.4376   0.4678
     0.4950   0.5056   0.5688   0.5852   0.5959   0.6136   0.6729   0.6775
     0.6870   0.7162   0.7717   0.7999   0.8110   0.8707   0.8995   0.9207
     0.9451   0.9585   0.9942   1.0104   1.0264   1.0843   1.1116   1.1177
     1.1346   1.1810   1.1857   1.2111   1.2306   1.2352   1.2437   1.2452
     1.2738   1.3016   1.3132   1.4365   1.4404   1.4817   1.4949   1.4991
     1.5146   1.5416   1.5723   1.5785   1.5958   1.6730   1.7022   1.7222
     1.7362   1.8742   1.8823   1.8933   1.9364   2.2207   2.3645   2.7172
     3.0659   3.0846   3.1823   3.7312   4.2603   4.4939   4.8505   5.2006
     5.2122   5.3350   5.5016   5.8456   5.9257   6.2153   6.2914   6.3296
     6.5467   6.5988   6.6090

          k = 0.2000 0.1155 0.0000 ( 92160 PWs)   bands (ev):

   -20.3467 -12.3259  -8.2281  -7.1570  -6.4493  -5.7947  -5.3702  -4.9782
    -4.9728  -4.7803  -4.7314  -4.6716  -4.6385  -4.6223  -4.5632  -4.4183
    -4.3980  -4.2530  -4.2479  -4.2328  -4.2102  -3.9595  -3.9111  -3.8173
    -3.8148  -3.7991  -3.7809  -3.7246  -3.7133  -3.6681  -3.6565  -3.6394
    -3.6244  -3.5845  -3.5317  -3.5216  -3.4342  -3.4299  -3.4072  -3.3875
    -3.3747  -3.2260  -3.2009  -3.1944  -3.1632  -3.1490  -3.1212  -2.9141
    -2.9056  -2.8803  -2.8293  -2.8119  -2.7957  -2.7564  -2.6326  -2.5884
    -2.5453  -2.5258  -2.5089  -2.4744  -2.4610  -2.2872  -2.2047  -2.1447
    -2.1095  -2.0857  -2.0554  -2.0297  -1.9765  -1.9582  -1.9384  -1.9231
    -1.9181  -1.8580  -1.8459  -1.7906  -1.7756  -1.7669  -1.7414  -1.6803
    -1.6693  -1.6484  -1.5995  -1.5927  -1.5767  -1.5126  -1.4959  -1.4906
    -1.4741  -1.4314  -1.3944  -1.3897  -1.3766  -1.3645  -1.3419  -1.3237
    -1.2950  -1.2487  -1.2335  -1.2095  -1.2051  -1.1741  -1.1628  -1.1465
    -1.1073  -1.0931  -1.0650  -0.9942  -0.9599  -0.9465  -0.9346  -0.9222
    -0.9045  -0.8923  -0.8639  -0.8389  -0.8277  -0.8129  -0.7737  -0.6852
    -0.5522  -0.5135  -0.4740  -0.4576  -0.4244  -0.3909  -0.3828  -0.3657
    -0.3382  -0.2302  -0.2126  -0.1729  -0.0986  -0.0698  -0.0372  -0.0063
     0.0074   0.0303   0.0428   0.0767   0.0988   0.1562   0.1687   0.1918
     0.2074   0.2143   0.3232   0.3765   0.4090   0.4155   0.4450   0.4563
     0.4861   0.5316   0.5640   0.5732   0.6003   0.6203   0.6667   0.6838
     0.6965   0.7167   0.7782   0.8004   0.8108   0.8376   0.9054   0.9254
     0.9425   0.9751   0.9940   1.0052   1.0346   1.0829   1.0931   1.1219
     1.1331   1.1758   1.1863   1.2076   1.2287   1.2347   1.2376   1.2453
     1.2969   1.3066   1.3253   1.4371   1.4395   1.4822   1.4952   1.4980
     1.5142   1.5432   1.5702   1.5761   1.5960   1.6696   1.6970   1.7213
     1.7500   1.8724   1.8830   1.8971   1.9350   2.1985   2.3610   2.7378
     3.0526   3.0953   3.1898   3.7402   4.2140   4.5017   4.8878   5.1981
     5.2158   5.3381   5.5270   5.8044   5.9883   6.1578   6.2594   6.3800
     6.5394   6.5869   6.6200

          k = 0.2000 0.3464 0.0000 ( 92208 PWs)   bands (ev):

   -20.3467 -12.3260  -8.2276  -6.8826  -6.4280  -5.6351  -5.6085  -5.5230
    -4.6242  -4.5562  -4.5497  -4.5473  -4.5225  -4.4934  -4.4759  -4.4590
    -4.4044  -4.3626  -4.3488  -3.9930  -3.9785  -3.9704  -3.9540  -3.9143
    -3.8900  -3.8622  -3.7362  -3.7207  -3.7160  -3.7042  -3.6982  -3.6134
    -3.5777  -3.5539  -3.5509  -3.5452  -3.4805  -3.4539  -3.4422  -3.4006
    -3.3907  -3.3195  -3.1846  -3.0639  -2.9706  -2.9640  -2.9479  -2.9284
    -2.9121  -2.9001  -2.8513  -2.8357  -2.8098  -2.6905  -2.6753  -2.6720
    -2.5747  -2.5459  -2.5029  -2.4961  -2.4739  -2.4364  -2.3948  -2.2938
    -2.2380  -2.2107  -2.1638  -2.1278  -2.1011  -2.0850  -2.0724  -2.0254
    -2.0051  -1.9840  -1.8677  -1.8563  -1.8318  -1.8027  -1.7752  -1.7534
    -1.7251  -1.6950  -1.6853  -1.6620  -1.5738  -1.5527  -1.5398  -1.5191
    -1.5090  -1.5064  -1.4779  -1.4478  -1.4314  -1.4094  -1.3838  -1.3583
    -1.3067  -1.2800  -1.2639  -1.2342  -1.2041  -1.1878  -1.1586  -1.1547
    -1.1267  -1.1114  -1.1038  -1.0898  -1.0838  -1.0707  -1.0383  -1.0043
    -0.9910  -0.9181  -0.8965  -0.8625  -0.8507  -0.7935  -0.7747  -0.7670
    -0.6627  -0.5767  -0.5447  -0.4813  -0.4400  -0.4176  -0.3892  -0.3825
    -0.3542  -0.3248  -0.3201  -0.2886  -0.2830  -0.2348  -0.1868  -0.1591
    -0.0877  -0.0163   0.0023   0.0361   0.0527   0.0818   0.1017   0.1355
     0.2041   0.2392   0.2554   0.3032   0.3234   0.3556   0.4212   0.4366
     0.4563   0.4887   0.5039   0.5313   0.5558   0.5625   0.5804   0.5938
     0.5994   0.6265   0.6798   0.7449   0.8041   0.8228   0.9129   0.9350
     1.0259   1.0409   1.1203   1.1251   1.1677   1.1799   1.2456   1.2546
     1.2764   1.2869   1.2998   1.3165   1.3299   1.3346   1.3594   1.3895
     1.4043   1.4131   1.4748   1.5099   1.5174   1.5477   1.5586   1.6016
     1.6852   1.7553   1.7965   1.8113   1.8555   1.8761   1.8908   2.0065
     2.0170   2.2936   2.5428   2.5602   2.8202   3.0685   3.0929   3.1211
     3.4087   3.7804   3.8210   4.0116   4.0199   4.0480   4.5596   4.7166
     5.1984   5.2354   5.4369   5.4974   5.8413   5.9336   5.9894   6.0203
     6.0697   6.1220   6.4113

          k = 0.2000-0.5774 0.0000 ( 92178 PWs)   bands (ev):

   -20.3467 -12.3260  -8.2270  -6.5401  -6.3247  -6.2089  -5.6953  -5.0863
    -5.0413  -4.6118  -4.5512  -4.5112  -4.4098  -4.3696  -4.2711  -4.2582
    -4.1633  -4.1522  -4.0613  -4.0456  -4.0357  -4.0036  -3.9956  -3.9869
    -3.9689  -3.8917  -3.8349  -3.8260  -3.8144  -3.7786  -3.7686  -3.7061
    -3.6192  -3.5701  -3.5185  -3.4378  -3.4209  -3.4164  -3.3971  -3.3761
    -3.3041  -3.2868  -3.2163  -3.1803  -3.1424  -3.0033  -2.9850  -2.8854
    -2.8713  -2.8389  -2.7950  -2.7820  -2.6779  -2.6535  -2.6026  -2.5946
    -2.5672  -2.5260  -2.5050  -2.4818  -2.3962  -2.3802  -2.3592  -2.3492
    -2.3414  -2.3303  -2.3190  -2.2782  -2.2410  -2.2068  -2.1274  -2.0793
    -2.0708  -2.0079  -1.9652  -1.9154  -1.9043  -1.8891  -1.8566  -1.8340
    -1.8149  -1.7365  -1.7287  -1.7189  -1.6863  -1.6678  -1.6493  -1.5810
    -1.5569  -1.5273  -1.5071  -1.4862  -1.4743  -1.3958  -1.3396  -1.3039
    -1.2998  -1.2769  -1.2685  -1.2429  -1.2251  -1.2044  -1.1859  -1.1719
    -1.1539  -1.1369  -1.1170  -1.0849  -1.0795  -1.0655  -1.0585  -1.0461
    -1.0227  -0.9964  -0.9690  -0.9610  -0.8840  -0.7689  -0.6820  -0.6548
    -0.6478  -0.5592  -0.5492  -0.5331  -0.5008  -0.4729  -0.4458  -0.4188
    -0.4139  -0.3744  -0.3328  -0.3198  -0.2872  -0.2538  -0.2393  -0.1741
    -0.1580  -0.1112  -0.0271   0.0289   0.0724   0.0937   0.1213   0.1439
     0.1700   0.2117   0.2431   0.2506   0.2637   0.3029   0.3060   0.3426
     0.4002   0.4195   0.4565   0.4754   0.5048   0.5122   0.5428   0.5485
     0.6427   0.6787   0.7032   0.7965   0.8645   0.8978   0.9549   0.9638
     0.9956   1.0553   1.0869   1.1041   1.1632   1.2169   1.2520   1.2687
     1.2863   1.3124   1.3204   1.3394   1.3648   1.4036   1.4655   1.4736
     1.4791   1.5029   1.5242   1.5363   1.5526   1.5976   1.7011   1.7113
     1.7407   1.7484   1.7574   1.8100   1.8645   1.9309   2.0557   2.6207
     2.8926   2.8962   3.0979   3.1479   3.2623   3.2806   3.3163   3.5179
     3.8872   3.9033   4.0508   4.3449   4.3827   4.4734   4.4912   4.5217
     4.7085   4.7985   4.9037   5.0412   5.3042   5.3254   5.5140   5.9461
     5.9630   6.0324   6.1714

          k = 0.2000-0.3464 0.0000 ( 92208 PWs)   bands (ev):

   -20.3467 -12.3260  -8.2270  -6.8819  -6.4277  -5.6332  -5.6118  -5.5241
    -4.6283  -4.5603  -4.5460  -4.5428  -4.5224  -4.4897  -4.4756  -4.4617
    -4.4121  -4.3611  -4.3471  -3.9883  -3.9739  -3.9662  -3.9598  -3.9412
    -3.8775  -3.8517  -3.7379  -3.7195  -3.7132  -3.7086  -3.6981  -3.6134
    -3.5731  -3.5554  -3.5509  -3.5483  -3.4787  -3.4569  -3.4452  -3.4004
    -3.3787  -3.3146  -3.1830  -3.0580  -2.9810  -2.9673  -2.9464  -2.9266
    -2.9109  -2.9048  -2.8502  -2.8391  -2.8118  -2.6938  -2.6765  -2.6643
    -2.5788  -2.5475  -2.5086  -2.4945  -2.4759  -2.4364  -2.3949  -2.2929
    -2.2261  -2.2121  -2.1586  -2.1293  -2.1052  -2.0912  -2.0726  -2.0268
    -2.0053  -1.9728  -1.8733  -1.8546  -1.8325  -1.8046  -1.7755  -1.7676
    -1.7229  -1.6940  -1.6830  -1.6683  -1.5763  -1.5478  -1.5361  -1.5235
    -1.5100  -1.5026  -1.4837  -1.4461  -1.4371  -1.4080  -1.3808  -1.3544
    -1.3012  -1.2789  -1.2661  -1.2405  -1.2021  -1.1864  -1.1684  -1.1570
    -1.1377  -1.1058  -1.0975  -1.0939  -1.0705  -1.0685  -1.0483  -1.0005
    -0.9859  -0.9180  -0.8937  -0.8644  -0.8515  -0.7828  -0.7716  -0.7627
    -0.6560  -0.5735  -0.5395  -0.4663  -0.4369  -0.4310  -0.4114  -0.3845
    -0.3504  -0.3321  -0.3192  -0.2887  -0.2827  -0.2359  -0.1897  -0.1610
    -0.0795  -0.0176   0.0055   0.0289   0.0540   0.0813   0.1129   0.1358
     0.2124   0.2367   0.2541   0.2963   0.3235   0.3665   0.3986   0.4459
     0.4599   0.4838   0.5209   0.5356   0.5539   0.5686   0.5778   0.5876
     0.5995   0.6254   0.6773   0.7443   0.7890   0.8332   0.9159   0.9405
     1.0179   1.0326   1.1186   1.1256   1.1534   1.2050   1.2399   1.2565
     1.2744   1.2803   1.3012   1.3202   1.3278   1.3344   1.3622   1.3855
     1.4030   1.4151   1.4752   1.5109   1.5194   1.5469   1.5590   1.6008
     1.6821   1.7540   1.7947   1.8194   1.8594   1.8734   1.8851   2.0063
     2.0226   2.2899   2.5321   2.5555   2.8693   3.0698   3.0891   3.1207
     3.3673   3.7816   3.8152   3.9999   4.0201   4.0538   4.5573   4.7637
     5.1908   5.2308   5.3921   5.4617   5.7666   5.9247   5.9838   6.0470
     6.0513   6.3042   6.4146

          k = 0.4000-0.2309 0.0000 ( 92128 PWs)   bands (ev):

   -20.3467 -12.3261  -8.2266  -6.7548  -6.4257  -6.0528  -5.4192  -5.0118
    -5.0033  -4.8832  -4.6539  -4.5766  -4.4797  -4.3826  -4.3465  -4.2890
    -4.2804  -4.1340  -4.0994  -4.0703  -4.0574  -4.0503  -3.9823  -3.9153
    -3.8977  -3.8787  -3.8457  -3.8378  -3.8118  -3.7651  -3.7145  -3.7102
    -3.6906  -3.4594  -3.4506  -3.4446  -3.4406  -3.4188  -3.4162  -3.2296
    -3.1926  -3.1875  -3.1699  -3.1656  -3.1426  -3.0809  -2.9805  -2.8811
    -2.8705  -2.8495  -2.8441  -2.7952  -2.7711  -2.7280  -2.7126  -2.6994
    -2.6546  -2.6360  -2.5212  -2.4966  -2.4819  -2.4553  -2.3696  -2.3437
    -2.2956  -2.2804  -2.2710  -2.1308  -2.1131  -2.0710  -2.0501  -2.0425
    -2.0093  -1.9716  -1.9410  -1.9216  -1.8137  -1.8088  -1.7933  -1.7555
    -1.6873  -1.6781  -1.6650  -1.6611  -1.6347  -1.5932  -1.5815  -1.5620
    -1.5490  -1.5447  -1.5273  -1.5200  -1.5019  -1.4627  -1.4372  -1.3959
    -1.3779  -1.3681  -1.3621  -1.3260  -1.2386  -1.2124  -1.1917  -1.1763
    -1.1227  -1.1197  -1.0845  -1.0757  -1.0657  -0.9732  -0.9374  -0.9160
    -0.8872  -0.8349  -0.8154  -0.7551  -0.6866  -0.6778  -0.6561  -0.5973
    -0.5547  -0.5314  -0.5074  -0.4776  -0.4563  -0.4533  -0.4381  -0.3831
    -0.3718  -0.3683  -0.3525  -0.3293  -0.3214  -0.2949  -0.2657  -0.2519
    -0.1527  -0.1267  -0.1110  -0.0959  -0.0394   0.0397   0.0741   0.0825
     0.1714   0.1916   0.2856   0.3079   0.3274   0.3822   0.3903   0.4163
     0.4521   0.4681   0.5078   0.5235   0.5649   0.5956   0.6022   0.6740
     0.7048   0.7211   0.7294   0.7487   0.7705   0.8380   0.8735   0.9435
     0.9922   1.0120   1.0208   1.0337   1.1067   1.1264   1.1465   1.1517
     1.2352   1.2382   1.2948   1.3102   1.3193   1.3393   1.3588   1.4280
     1.4475   1.4815   1.4904   1.5032   1.5154   1.5233   1.5270   1.7008
     1.7044   1.7229   1.7484   1.7504   1.9070   1.9614   2.1444   2.3672
     2.4023   2.5282   2.7822   2.7907   3.0574   3.1679   3.1996   3.5149
     3.6217   3.9942   4.0015   4.0309   4.1949   4.2503   4.3233   4.3887
     4.6253   4.6376   4.9095   5.2902   5.4989   5.6768   5.9380   6.1542
     6.4366   6.4826   6.5972

          k = 0.4000-0.0000 0.0000 ( 92208 PWs)   bands (ev):

   -20.3467 -12.3260  -8.2271  -6.8816  -6.4278  -5.6324  -5.6128  -5.5244
    -4.6277  -4.5617  -4.5468  -4.5417  -4.5248  -4.4894  -4.4757  -4.4617
    -4.4118  -4.3607  -4.3487  -3.9879  -3.9818  -3.9637  -3.9596  -3.9060
    -3.8883  -3.8675  -3.7383  -3.7208  -3.7163  -3.7013  -3.6968  -3.6141
    -3.5740  -3.5576  -3.5509  -3.5412  -3.4784  -3.4612  -3.4402  -3.4083
    -3.3787  -3.3099  -3.1726  -3.0389  -2.9888  -2.9656  -2.9463  -2.9347
    -2.9125  -2.9074  -2.8873  -2.8398  -2.8234  -2.6811  -2.6712  -2.6380
    -2.5868  -2.5475  -2.5069  -2.4949  -2.4784  -2.4472  -2.3954  -2.2786
    -2.2206  -2.2086  -2.1517  -2.1362  -2.1172  -2.0955  -2.0749  -2.0274
    -2.0052  -1.9623  -1.8750  -1.8554  -1.8345  -1.8121  -1.7770  -1.7710
    -1.7232  -1.7023  -1.6847  -1.6715  -1.5732  -1.5486  -1.5404  -1.5239
    -1.5095  -1.5042  -1.4892  -1.4470  -1.4371  -1.3909  -1.3780  -1.3579
    -1.2939  -1.2704  -1.2650  -1.2609  -1.1980  -1.1816  -1.1658  -1.1523
    -1.1400  -1.1081  -1.1047  -1.0945  -1.0724  -1.0694  -1.0347  -1.0041
    -0.9857  -0.9109  -0.8942  -0.8562  -0.8258  -0.7808  -0.7714  -0.7633
    -0.6637  -0.5726  -0.5297  -0.4939  -0.4406  -0.4281  -0.4075  -0.3850
    -0.3471  -0.3336  -0.3201  -0.2886  -0.2822  -0.2316  -0.1872  -0.1741
    -0.0799  -0.0187   0.0001   0.0333   0.0543   0.0839   0.1104   0.1354
     0.2079   0.2369   0.2516   0.2954   0.3238   0.3647   0.4118   0.4484
     0.4624   0.4833   0.5142   0.5319   0.5554   0.5659   0.5799   0.5889
     0.5989   0.6238   0.6955   0.7373   0.7864   0.8292   0.9156   0.9342
     1.0178   1.0258   1.1175   1.1240   1.1528   1.2137   1.2363   1.2591
     1.2729   1.2891   1.2950   1.3229   1.3293   1.3356   1.3661   1.3826
     1.4028   1.4149   1.4765   1.5118   1.5177   1.5477   1.5601   1.6014
     1.6894   1.7520   1.7925   1.8091   1.8619   1.8721   1.8935   2.0094
     2.0193   2.2836   2.5316   2.5522   2.8694   3.0649   3.0921   3.1333
     3.3655   3.7824   3.8105   3.9899   4.0130   4.0608   4.5536   4.7615
     5.1923   5.2463   5.3939   5.4436   5.7422   5.9499   5.9792   6.0357
     6.0552   6.3148   6.4228

          k = 0.4000 0.2309 0.0000 ( 92128 PWs)   bands (ev):

   -20.3467 -12.3260  -8.2275  -6.7563  -6.4269  -6.0502  -5.4167  -5.0114
    -5.0060  -4.8803  -4.6465  -4.5741  -4.4918  -4.3776  -4.3456  -4.2844
    -4.2800  -4.1441  -4.1027  -4.0730  -4.0602  -4.0496  -3.9692  -3.9083
    -3.8968  -3.8802  -3.8473  -3.8393  -3.8123  -3.7689  -3.7142  -3.7116
    -3.6891  -3.4619  -3.4511  -3.4456  -3.4401  -3.4220  -3.4164  -3.2471
    -3.1987  -3.1842  -3.1689  -3.1603  -3.1435  -3.0877  -2.9612  -2.8837
    -2.8675  -2.8532  -2.8395  -2.7985  -2.7749  -2.7287  -2.7147  -2.6956
    -2.6551  -2.6349  -2.5087  -2.5007  -2.4839  -2.4491  -2.3723  -2.3431
    -2.2927  -2.2804  -2.2616  -2.1400  -2.1127  -2.0738  -2.0482  -2.0412
    -2.0043  -1.9663  -1.9414  -1.9180  -1.8188  -1.8102  -1.7922  -1.7629
    -1.6965  -1.6727  -1.6678  -1.6607  -1.6397  -1.5878  -1.5742  -1.5646
    -1.5503  -1.5436  -1.5315  -1.5173  -1.5048  -1.4652  -1.4144  -1.3948
    -1.3739  -1.3668  -1.3521  -1.3426  -1.2365  -1.2154  -1.1911  -1.1580
    -1.1316  -1.1130  -1.0876  -1.0794  -1.0673  -0.9769  -0.9389  -0.9133
    -0.8780  -0.8528  -0.8155  -0.7778  -0.7049  -0.6796  -0.6650  -0.5945
    -0.5587  -0.5218  -0.5004  -0.4905  -0.4619  -0.4525  -0.4331  -0.3808
    -0.3706  -0.3678  -0.3433  -0.3297  -0.3098  -0.2928  -0.2713  -0.2498
    -0.1561  -0.1261  -0.1120  -0.0838  -0.0359   0.0237   0.0755   0.0836
     0.1749   0.1821   0.2568   0.3274   0.3404   0.3813   0.3916   0.4201
     0.4472   0.4688   0.5203   0.5276   0.5666   0.5968   0.6100   0.6709
     0.6996   0.7111   0.7256   0.7457   0.7638   0.8270   0.9112   0.9428
     0.9838   1.0097   1.0323   1.0401   1.0858   1.1304   1.1496   1.1566
     1.2247   1.2399   1.2851   1.3076   1.3185   1.3276   1.3523   1.4327
     1.4458   1.4754   1.4891   1.5064   1.5234   1.5266   1.5307   1.7001
     1.7039   1.7240   1.7481   1.7514   1.9080   1.9614   2.1272   2.3573
     2.4303   2.5478   2.7773   2.7908   3.0748   3.1712   3.1984   3.5123
     3.6033   3.9845   4.0036   4.0149   4.1769   4.2747   4.3210   4.3999
     4.6309   4.6502   4.9456   5.2858   5.4524   5.8077   5.8751   6.1671
     6.3069   6.5076   6.6662

          k = 0.4000-0.6928 0.0000 ( 92178 PWs)   bands (ev):

   -20.3467 -12.3260  -8.2271  -6.5388  -6.3257  -6.2093  -5.6950  -5.0893
    -5.0398  -4.6093  -4.5523  -4.5115  -4.4116  -4.3705  -4.2683  -4.2581
    -4.1613  -4.1499  -4.0807  -4.0448  -4.0363  -4.0049  -4.0038  -3.9779
    -3.9675  -3.8721  -3.8310  -3.8230  -3.8128  -3.7758  -3.7734  -3.7053
    -3.6113  -3.5723  -3.5289  -3.4391  -3.4225  -3.4179  -3.4000  -3.3780
    -3.3001  -3.2901  -3.1924  -3.1809  -3.1522  -2.9977  -2.9842  -2.9462
    -2.8614  -2.8153  -2.7979  -2.7764  -2.6757  -2.6520  -2.5982  -2.5909
    -2.5654  -2.5348  -2.5070  -2.4800  -2.3988  -2.3809  -2.3687  -2.3492
    -2.3402  -2.3301  -2.3199  -2.2786  -2.2436  -2.1648  -2.1345  -2.0827
    -2.0713  -2.0349  -1.9657  -1.9180  -1.9109  -1.8881  -1.8546  -1.8294
    -1.8133  -1.7383  -1.7302  -1.7169  -1.6889  -1.6609  -1.6465  -1.5856
    -1.5568  -1.5322  -1.5015  -1.4866  -1.4734  -1.4004  -1.3438  -1.3039
    -1.2935  -1.2791  -1.2715  -1.2401  -1.2235  -1.2049  -1.1838  -1.1710
    -1.1579  -1.1370  -1.1208  -1.0846  -1.0752  -1.0624  -1.0559  -1.0478
    -1.0237  -0.9988  -0.9688  -0.9600  -0.8400  -0.7609  -0.6984  -0.6514
    -0.6475  -0.5682  -0.5455  -0.5320  -0.5036  -0.4775  -0.4522  -0.4236
    -0.4159  -0.3804  -0.3280  -0.3135  -0.2841  -0.2621  -0.2411  -0.1744
    -0.1565  -0.1115  -0.0383   0.0272   0.0730   0.1065   0.1209   0.1479
     0.1706   0.2113   0.2406   0.2501   0.2651   0.2978   0.3097   0.3416
     0.3994   0.4180   0.4592   0.4752   0.5049   0.5110   0.5446   0.5490
     0.6334   0.6828   0.7194   0.7957   0.8644   0.8901   0.9483   0.9623
     0.9910   1.0568   1.0874   1.0995   1.1690   1.2174   1.2489   1.2684
     1.2899   1.3126   1.3196   1.3543   1.3669   1.3957   1.4626   1.4711
     1.4886   1.5047   1.5244   1.5327   1.5513   1.5975   1.7021   1.7132
     1.7388   1.7469   1.7565   1.8112   1.8575   1.9309   2.0587   2.6291
     2.8921   2.8967   3.0740   3.1596   3.2639   3.2836   3.3074   3.5295
     3.8869   3.9063   4.0461   4.3300   4.3762   4.4740   4.4961   4.5332
     4.6988   4.7976   4.8779   5.0691   5.3016   5.3119   5.5321   5.9471
     5.9600   6.0288   6.1701

          k = 0.4000-0.4619 0.0000 ( 92178 PWs)   bands (ev):

   -20.3467 -12.3261  -8.2265  -6.5349  -6.3277  -6.2120  -5.6934  -5.0952
    -5.0380  -4.6238  -4.5528  -4.4937  -4.4017  -4.3716  -4.2715  -4.2595
    -4.1646  -4.1532  -4.0922  -4.0436  -4.0309  -4.0116  -4.0017  -3.9769
    -3.9682  -3.8591  -3.8404  -3.8237  -3.8106  -3.7781  -3.7660  -3.7061
    -3.6151  -3.5723  -3.5267  -3.4354  -3.4261  -3.4136  -3.4024  -3.3705
    -3.2979  -3.2866  -3.2018  -3.1862  -3.1368  -2.9940  -2.9852  -2.9617
    -2.8539  -2.8143  -2.7971  -2.7727  -2.6735  -2.6615  -2.6045  -2.5914
    -2.5628  -2.5292  -2.5096  -2.4785  -2.3957  -2.3833  -2.3751  -2.3529
    -2.3431  -2.3300  -2.3142  -2.2867  -2.2432  -2.1482  -2.1369  -2.1055
    -2.0751  -2.0263  -1.9687  -1.9225  -1.9125  -1.8881  -1.8554  -1.8340
    -1.8067  -1.7309  -1.7233  -1.7131  -1.6893  -1.6617  -1.6418  -1.5791
    -1.5624  -1.5258  -1.5031  -1.4833  -1.4745  -1.4097  -1.3444  -1.3038
    -1.2983  -1.2802  -1.2751  -1.2381  -1.2257  -1.2067  -1.1793  -1.1674
    -1.1604  -1.1385  -1.1145  -1.0942  -1.0813  -1.0654  -1.0499  -1.0469
    -1.0266  -0.9987  -0.9805  -0.9598  -0.8250  -0.7568  -0.6947  -0.6490
    -0.6442  -0.5574  -0.5348  -0.5228  -0.5009  -0.4806  -0.4525  -0.4291
    -0.4150  -0.3838  -0.3409  -0.3108  -0.2866  -0.2563  -0.2318  -0.1758
    -0.1544  -0.1128  -0.0514   0.0253   0.0674   0.0878   0.1208   0.1460
     0.1979   0.2102   0.2407   0.2516   0.2666   0.2903   0.3012   0.3368
     0.3961   0.4184   0.4552   0.4739   0.5059   0.5165   0.5410   0.5487
     0.6289   0.6860   0.7641   0.7761   0.8675   0.9157   0.9418   0.9659
     0.9795   1.0442   1.0841   1.1043   1.1574   1.2358   1.2413   1.2704
     1.2885   1.3080   1.3241   1.3552   1.3675   1.3850   1.4631   1.4724
     1.4886   1.5038   1.5247   1.5296   1.5504   1.5978   1.7015   1.7152
     1.7394   1.7462   1.7554   1.8095   1.8666   1.9304   2.0652   2.6142
     2.8920   2.8963   3.0864   3.1615   3.2664   3.2809   3.2879   3.5471
     3.8979   3.9055   3.9922   4.3470   4.3819   4.4625   4.4975   4.5496
     4.7119   4.8045   4.8864   5.0879   5.2105   5.3247   5.5466   5.8804
     5.9377   5.9957   6.2544

     the Fermi energy is     1.5148 ev

!    total energy              =  -27838.37355957 Ry

     total all-electron energy =  -1326949.514057 Ry
     estimated scf accuracy    <       0.00000034 Ry
     smearing contrib. (-TS)   =       0.00261370 Ry
     internal energy E=F+TS    =  -27838.37617327 Ry

     The total energy is F=E-TS. E is the sum of the following terms:
     one-electron contribution =  -28990.62115544 Ry
     hartree contribution      =   14795.82503547 Ry
     xc contribution           =    -909.53572247 Ry
     ewald contribution        =   12763.14850201 Ry
     one-center paw contrib.   =  -25497.19283285 Ry

     convergence has been achieved in  19 iterations

     negative rho (up, down):  1.375E-02 0.000E+00

     Forces acting on atoms (cartesian axes, Ry/au):

     atom    1 type  1   force =     0.00048879   -0.00043365   -0.00733086
     atom    2 type  1   force =    -0.00057125    0.00006087   -0.00322921
     atom    3 type  1   force =     0.00053436    0.00010130   -0.00338765
     atom    4 type  1   force =    -0.00053806   -0.00027603   -0.00346582
     atom    5 type  1   force =     0.00011328   -0.00002598   -0.00331371
     atom    6 type  1   force =     0.00031419   -0.00031316   -0.00393251
     atom    7 type  1   force =     0.00001402    0.00059002   -0.00370727
     atom    8 type  1   force =    -0.00017557    0.00059522   -0.00347492
     atom    9 type  1   force =     0.00000558   -0.00005823   -0.00328896
     atom   10 type  1   force =     0.00053795   -0.00055822   -0.00033389
     atom   11 type  1   force =     0.00014803    0.00207353    0.01010543
     atom   12 type  1   force =    -0.00010664   -0.00011240   -0.00016905
     atom   13 type  1   force =     0.00174994   -0.00143088    0.00941518
     atom   14 type  1   force =    -0.00149150   -0.00162543    0.00956721
     atom   15 type  1   force =     0.00002599   -0.00001333    0.00278391
     atom   16 type  1   force =     0.00036556    0.00022119   -0.00012406
     atom   17 type  1   force =    -0.00029252    0.00028911    0.00211043
     atom   18 type  1   force =    -0.00007473   -0.00022656    0.00250135
     atom   19 type  1   force =    -0.00002728    0.00012078   -0.00009914
     atom   20 type  1   force =    -0.00029899   -0.00004673   -0.00008948
     atom   21 type  1   force =     0.00020707   -0.00005177    0.00007405
     atom   22 type  1   force =    -0.00010230    0.00004823    0.00024414
     atom   23 type  1   force =    -0.00009272    0.00040124    0.00002049
     atom   24 type  1   force =    -0.00004915    0.00003760   -0.00021550
     atom   25 type  1   force =    -0.00003529    0.00000681   -0.00019477
     atom   26 type  1   force =    -0.00006850    0.00004682    0.00002944
     atom   27 type  1   force =    -0.00008605    0.00002473   -0.00009649
     atom   28 type  1   force =    -0.00016012    0.00009079   -0.00020931
     atom   29 type  1   force =    -0.00013673    0.00002881   -0.00024793
     atom   30 type  1   force =    -0.00029539    0.00025842   -0.00010724
     atom   31 type  1   force =    -0.00020034    0.00022374   -0.00022052
     atom   32 type  1   force =     0.00011284   -0.00003431    0.00000630
     atom   33 type  1   force =    -0.00014234    0.00025569   -0.00021794
     atom   34 type  1   force =    -0.00029166    0.00030265   -0.00017251
     atom   35 type  1   force =    -0.00020062    0.00008391   -0.00020104
     atom   36 type  1   force =    -0.00015488    0.00021110   -0.00018372
     atom   37 type  2   force =     0.00142785    0.00013191    0.00200263
     atom   38 type  2   force =    -0.00004397   -0.00104779    0.00014352
     atom   39 type  3   force =    -0.00794719    0.00294442    0.00662418
     atom   40 type  4   force =     0.00101698   -0.00064116    0.00015608
     atom   41 type  4   force =    -0.00037073   -0.00011769   -0.00072034
     atom   42 type  4   force =     0.00689209   -0.00213555   -0.00705051

     Total force =     0.015111     Total SCF correction =     0.001031

     negative rho (up, down):  1.375E-02 0.000E+00

     negative rho (up, down):  1.375E-02 0.000E+00

     negative rho (up, down):  1.375E-02 0.000E+00

     negative rho (up, down):  1.375E-02 0.000E+00

     negative rho (up, down):  1.375E-02 0.000E+00

     negative rho (up, down):  1.375E-02 0.000E+00

     negative rho (up, down):  1.375E-02 0.000E+00

     negative rho (up, down):  1.375E-02 0.000E+00

     negative rho (up, down):  1.375E-02 0.000E+00

     negative rho (up, down):  1.375E-02 0.000E+00

     negative rho (up, down):  1.375E-02 0.000E+00

     negative rho (up, down):  1.375E-02 0.000E+00

     negative rho (up, down):  1.375E-02 0.000E+00

     negative rho (up, down):  1.375E-02 0.000E+00

     negative rho (up, down):  1.375E-02 0.000E+00

     negative rho (up, down):  1.375E-02 0.000E+00

     negative rho (up, down):  1.375E-02 0.000E+00

     negative rho (up, down):  1.375E-02 0.000E+00

     negative rho (up, down):  1.375E-02 0.000E+00

     negative rho (up, down):  1.375E-02 0.000E+00

     negative rho (up, down):  1.375E-02 0.000E+00

     negative rho (up, down):  1.375E-02 0.000E+00

     negative rho (up, down):  1.375E-02 0.000E+00

     negative rho (up, down):  1.375E-02 0.000E+00

     negative rho (up, down):  1.375E-02 0.000E+00

     negative rho (up, down):  1.375E-02 0.000E+00

     negative rho (up, down):  1.375E-02 0.000E+00

     negative rho (up, down):  1.375E-02 0.000E+00

     negative rho (up, down):  1.375E-02 0.000E+00

     negative rho (up, down):  1.375E-02 0.000E+00

     negative rho (up, down):  1.375E-02 0.000E+00

     negative rho (up, down):  1.375E-02 0.000E+00

     negative rho (up, down):  1.375E-02 0.000E+00

     negative rho (up, down):  1.375E-02 0.000E+00
 BEEFens 2000 ensemble energies
             -0.608954296234719E+02
             -0.362483988565387E+01
             -0.158800669523567E+02
              0.430993773455245E+02
             -0.221934723898657E+02
             -0.205913773291068E+02
             -0.353888842443648E+02
             -0.868265144529002E+02
             -0.466473208521170E+02
             -0.474205788372161E+02
             -0.370605540491092E+02
              0.230105718807345E+01
              0.407787543372805E+01
              0.761737098002578E+01
              0.266951488880477E+01
              0.476585249951353E+02
             -0.209525943727100E+02
             -0.230677434434750E+02
              0.193647917305873E+02
             -0.112781908884862E+03
              0.538377875335651E+02
             -0.290586759218205E+02
             -0.336290589128060E+01
             -0.114492092125740E+02
             -0.883683095475897E+01
             -0.465294049977851E+01
              0.885858243280015E+02
             -0.187933445664371E+02
             -0.903304500693514E+01
             -0.520329413352436E+02
              0.818041618016180E+02
             -0.187571985080578E+02
             -0.376360512444680E+02
              0.249975146896869E+02
             -0.285644384021128E+01
              0.164916256767812E+02
             -0.485633267115441E+01
              0.108218285413502E+02
              0.289484840512032E+02
             -0.103626010733993E+03
              0.560366706275873E+02
              0.142845230014347E+02
             -0.175538412366666E+01
             -0.362632371596134E+02
              0.123593458555906E+02
             -0.147481162521539E+02
              0.400053854810374E+02
              0.366095030341479E+02
             -0.308895400382395E+02
             -0.276134854815584E+02
             -0.329441461890608E+02
             -0.353420108125591E+02
              0.136959390749084E+02
             -0.492656681426745E+02
              0.116142755679427E+02
              0.625278083927552E+02
              0.637911456977964E+02
              0.357069365722228E+02
              0.154677985348825E+02
              0.271627790435260E+02
              0.894692748632972E+02
              0.213244522237402E+02
             -0.550504495480632E+02
             -0.157472960732805E+02
             -0.236866081854768E+02
              0.631960841893029E+02
             -0.776030896938500E+02
             -0.673920916454952E+02
             -0.260584016979099E+02
             -0.653563147658735E+01
             -0.472232601667392E+02
              0.271671031862855E+02
              0.804927189931209E+01
              0.872672157191795E+01
             -0.398628410483741E+02
             -0.348094568036358E+02
             -0.543939653722082E+02
              0.391521091925232E+02
             -0.297192720432253E+02
              0.266317976527117E+02
             -0.718532667615730E+01
             -0.319006400150678E+02
             -0.578119379650095E+02
             -0.177159424114004E+02
             -0.909647984591368E+01
             -0.125218541423282E+02
              0.413658644919269E+02
              0.685464806086116E+02
             -0.387165772893241E+02
             -0.797453373442621E+02
             -0.220289819193235E+02
              0.111892323496580E+03
             -0.594497655346153E+02
              0.357242102933546E+02
             -0.961352148806066E+01
             -0.665317599088089E+02
              0.255306306527083E+02
              0.399235842481787E+02
             -0.199393444513904E+02
              0.401374646680417E+02
             -0.296843346523244E+02
             -0.480204591086697E+02
              0.869198655348430E+02
              0.455539012291933E+02
              0.337420344575219E+02
              0.146893618429496E+02
              0.206536563324013E+02
              0.859359970223845E+02
             -0.257644657348459E+02
              0.789606069575487E+01
             -0.142883634629273E+03
              0.181750135112728E+02
             -0.718557817665606E+02
              0.151473208834336E+02
              0.205396517579381E+02
             -0.334153598060926E+02
             -0.559021528232356E+02
              0.654603545735426E+01
             -0.305242842730152E+02
              0.309303780108453E+02
             -0.531585649894417E+02
              0.169477294817932E+01
             -0.358224400551504E+02
             -0.425069522323889E+01
             -0.103412721539556E+01
              0.181945285907888E+02
              0.142615337891323E+01
             -0.653596722046848E+01
              0.592672527848199E+02
              0.911506032075903E+02
              0.485858617004754E+02
              0.832843752488313E+02
             -0.115566819713479E+02
              0.143394079660439E+02
              0.542999291460143E+02
             -0.110903179754765E+02
             -0.738531201320345E+02
             -0.385597675093513E+02
             -0.523537248897935E+02
             -0.277725995255030E+02
              0.328201570938747E+02
             -0.117199109385430E+03
             -0.187767478844643E+02
              0.415610956262598E+02
             -0.387560169276423E+02
             -0.366513525801579E+02
              0.546175205823545E+02
              0.402294668202751E+02
             -0.355150922902030E+02
              0.138651450541981E+02
             -0.274149613790058E+02
              0.344426061306485E+02
              0.446895481132788E+01
              0.211542078925945E+02
             -0.887746994276835E+02
             -0.481856388482370E+02
             -0.999062158650111E+01
              0.321036574914726E+01
             -0.368196634952977E+02
              0.106401705684425E+03
             -0.231539698692818E+02
             -0.399792114800576E+02
              0.390117361026655E+02
             -0.495810965864693E+02
             -0.364563179537652E+02
              0.325930962869602E+02
              0.124904332706052E+02
              0.165087269248750E+02
              0.117068670719879E+02
             -0.133223274172159E+02
              0.225682642788238E+02
              0.592144258184187E+02
             -0.312596651218655E+02
              0.163097293623957E+02
              0.937630503477037E+02
              0.341899714501431E+02
             -0.731419929351568E+01
             -0.189309889041861E+02
              0.153889709008943E+03
             -0.164845240749276E+02
              0.364580395255558E+02
              0.195364180765320E+02
              0.362629875109366E+02
              0.895137481916818E+02
              0.544575350383850E+02
             -0.240979322674761E+01
              0.228593744589368E+02
              0.486593363699471E+02
              0.364833743349398E+02
             -0.527626038778055E+02
              0.939290040316139E+02
             -0.828650966119662E+02
             -0.198542901930442E+02
              0.584755358083065E+02
              0.681135027879846E+01
              0.791294145370705E+01
              0.341842614203215E+02
              0.299876139603708E+02
              0.354840376405045E+02
             -0.639765919692371E+02
              0.288166345150080E+01
             -0.298478844760299E+02
             -0.872664331973847E+01
             -0.146877841356718E+01
             -0.727005093182962E+01
             -0.417255330339344E+01
              0.862252807363360E+02
             -0.101319893412853E+02
             -0.277330399572586E+02
             -0.496990968032844E+01
              0.140387185120031E+02
             -0.566094690291592E+02
             -0.409058078120436E+02
             -0.383267641670528E+02
             -0.632448727028220E+02
             -0.170264204447903E+02
             -0.448898634116503E+02
              0.164019977116092E+02
             -0.239010964130507E+01
             -0.104867918886484E+02
             -0.937021272053124E+01
              0.809593714306840E+01
             -0.243267069414200E+02
              0.691682295346796E+02
             -0.810207540178147E+02
             -0.141612098962346E+02
             -0.174520016328030E+02
              0.182508709861897E+02
              0.215214951373111E+02
             -0.465416433160201E+02
             -0.202383108786001E+02
              0.442419502494789E+02
             -0.276879120199226E+02
              0.187550525264943E+02
              0.384057554506079E+02
             -0.323165250077716E+01
              0.114529775661671E+03
             -0.230514121971870E+02
             -0.342085454444790E+02
              0.579569850235544E+01
             -0.229117068200896E+02
              0.529475533710536E+02
             -0.338744986588839E+02
              0.106881183985197E+02
              0.642495016469136E+02
             -0.126760466976448E+02
              0.120652086539212E+03
              0.126320221121486E+03
             -0.652192717613643E+02
              0.592599975464871E+02
              0.167233284134790E+02
             -0.519701932897592E+02
              0.216712766447422E+02
              0.355375810606628E+02
              0.364222320727028E+02
              0.135504674521741E+01
              0.160249915623093E+02
              0.698404378121629E+02
             -0.247755831449287E+02
              0.181799357992769E+02
              0.741484613198706E+02
             -0.373808974118336E+02
             -0.130436553659156E+02
              0.510556567049711E+02
              0.298401318424620E+02
              0.782863987587202E+02
              0.223788339249410E+02
              0.629291867096697E+01
              0.281292310852652E+02
              0.384720624399520E+02
             -0.473677312926991E+02
              0.334264101055493E+01
              0.130690706838499E+02
              0.114151343158939E+02
              0.221376639642835E+02
             -0.577028652442523E+02
              0.367157939895425E+02
             -0.445368664723740E+02
             -0.348561650824530E+02
              0.178751123436018E+02
             -0.181783174654150E+02
              0.557068697465064E+02
             -0.256648971426554E+02
              0.267812916074767E+02
              0.369260203320216E+02
              0.831904080274144E+02
              0.576559002555729E+02
              0.463519059375741E+02
             -0.105660687489298E+02
             -0.394328545331399E+01
             -0.333222570543699E+02
              0.753442304687272E+02
              0.799930910475748E+02
              0.363260188376727E+02
             -0.192910728319633E+02
              0.513542167261058E+02
             -0.162915835460616E+02
              0.215414946815160E+02
              0.616787535816153E+02
              0.213302490011307E+01
             -0.104686846623375E+02
             -0.283660727569729E+02
             -0.513749498158453E+02
              0.948760445451269E+02
              0.441569304978435E+02
             -0.561207363966689E+02
             -0.969724866302192E+01
              0.250771633552086E+02
             -0.100011557233971E+02
              0.594355242067541E+02
              0.152573846044980E+02
              0.801960705278956E+02
              0.280707801269139E+02
             -0.264752945449834E+02
              0.249614192545198E+02
             -0.503744836403081E+01
             -0.324564612147360E+02
              0.133738770551686E+02
              0.206195612563915E+02
              0.936107470143077E+02
              0.800112583673330E+02
              0.552964411774996E+02
              0.733022797344615E+02
              0.803601964215062E+01
             -0.274640304211288E+02
              0.163649487594046E+02
             -0.369121198753139E+02
             -0.478245248153737E+02
             -0.565575029568446E+02
             -0.267626445894822E+02
             -0.110078079982001E+03
             -0.292661258825854E+02
             -0.840394452540505E+02
              0.210884284161715E+02
             -0.478652522118487E+02
              0.398471807814660E+02
             -0.944895003797317E+02
             -0.331160579503444E+02
              0.549969579202511E+02
              0.208409981121361E+02
             -0.833794211797112E+02
              0.632950301562439E+02
             -0.257749093731843E+02
              0.514337452470812E+02
             -0.243420264949775E+02
             -0.754150385999901E+02
              0.112429390726598E+02
             -0.613628761602025E+02
             -0.168409578377049E+02
             -0.149499012795405E+01
              0.419684370496591E+02
              0.127452244409690E+03
             -0.463243821852161E+02
             -0.363828625176811E+02
             -0.990108621317347E+00
             -0.130720782448778E+02
             -0.825403045853164E+02
             -0.598742573772135E+02
              0.518894006737170E+02
             -0.289736998580570E+02
              0.169985803468165E+02
             -0.491098650965621E+02
             -0.132478298645452E+02
             -0.438656403489750E+02
              0.567349261367113E+02
              0.151397059649269E+02
             -0.232469148781089E+02
             -0.127556561800043E+02
              0.671709175803825E+01
             -0.622304893426690E+01
              0.443051259696536E+02
             -0.252898921981850E+02
              0.281317363131222E+01
              0.340614350876113E+02
              0.171737110316798E+02
             -0.160607011126387E+02
              0.156811820763263E+03
              0.540105321735160E+02
              0.118988031401526E+01
              0.161839957484666E+02
             -0.617023079111601E+02
              0.316133549952502E+02
             -0.724475527201932E+02
             -0.253141743295088E+02
             -0.524689205945824E+02
             -0.220746827227767E+02
              0.571242039572322E+02
             -0.539065524686251E+02
              0.161743807984587E+02
             -0.410307821115714E+01
              0.387897020122620E+01
             -0.435067978173944E+02
             -0.479818887231214E+02
             -0.402678766141128E+01
             -0.426199887629151E+02
             -0.217901673115151E+02
             -0.439928158646814E+02
             -0.119562622414000E+02
             -0.360201770880404E+02
             -0.518307124866366E+02
              0.213528987839502E+02
             -0.209741517222884E+02
              0.188653427305212E+02
              0.978302647282096E+01
             -0.740709090582952E+02
             -0.549946651760303E+02
             -0.399857899918326E+02
              0.355400773177018E+02
              0.269225288667712E+01
             -0.628855881295116E+02
              0.587815695697368E+02
             -0.402597977248516E+02
              0.546904776710387E+02
             -0.290746477397945E+02
             -0.447697574798403E+02
              0.299281686911481E+02
             -0.660150243737765E+02
             -0.381204504963050E+02
              0.674877268578080E+02
              0.204708469037138E+02
             -0.361747357496721E+02
              0.491445921400715E+02
             -0.174671427706958E+02
             -0.324258407052251E+02
             -0.302882832878739E+02
             -0.502446709866689E+02
              0.250369111742022E+02
             -0.936248560411525E+02
             -0.843059973051592E+02
             -0.737908614355615E+01
             -0.307848094872774E+02
             -0.577731075571282E+02
              0.724461182229437E+02
              0.132010448154291E+03
             -0.361913100362555E+02
             -0.256766695174082E+01
             -0.639302052472679E+02
              0.652897591897369E+02
              0.171491112566083E+02
             -0.182518562557042E+02
             -0.411341673986531E+02
              0.149202083447914E+02
             -0.588245283235572E+02
             -0.198413625097697E+02
             -0.907781686164223E+02
              0.338275545557802E+02
              0.169357382531624E+02
              0.183414625146111E+01
             -0.709805442564993E+01
             -0.331127896022658E+02
             -0.762767728469225E+01
              0.126003089273165E+03
             -0.199604640015001E+02
             -0.439229940061081E+02
             -0.686407785341844E+02
              0.109767673883895E+02
             -0.343538773252969E+02
              0.594780530214751E+01
              0.262625529668338E+02
              0.102375206386603E+02
              0.279071345019078E+02
              0.120463938950004E+02
              0.631709688288082E+02
              0.317726346330543E+02
             -0.327853721397089E+02
              0.357427788720030E+02
              0.380731404199463E+02
              0.121288740608196E+02
              0.488540688243546E+02
             -0.225833595256626E+02
              0.768313516225893E+02
              0.173172787835568E+02
             -0.273332507852476E+02
             -0.725691785068489E+01
             -0.187062023695894E+02
              0.262553282402289E+02
             -0.235313420660045E+02
             -0.157348513225685E+00
             -0.854055643993388E+01
              0.812623433004571E+02
              0.502087142765986E+02
             -0.689377773491429E+02
             -0.479016868865054E+01
             -0.557264381780993E+02
             -0.159987153148843E+02
             -0.269114966678849E+02
              0.379356597810886E+01
              0.586935131967914E+00
             -0.258616959039078E+02
              0.819872630631500E+01
             -0.605615424376134E+01
             -0.128852876028501E+02
              0.862075275858850E+02
              0.182390846944125E+02
             -0.810002471482490E+02
             -0.459843087803545E+02
              0.948390307451480E+02
              0.278790608408290E+02
             -0.107125602197193E+02
              0.104952392061030E+03
             -0.195373710078591E+02
             -0.123369839242879E+02
             -0.542518406324734E+01
              0.107986387032433E+02
              0.273590581070552E+02
              0.781746322024344E+01
              0.306344813541433E+02
             -0.188385826841017E+02
             -0.305110174608756E+02
             -0.419400345268412E+02
             -0.478622607839073E+02
              0.465526158707502E+02
              0.127304611565473E+02
              0.388997758484975E+02
              0.134029974874593E+02
              0.858872049426914E+02
              0.157119407462465E+02
             -0.848927700515741E+02
             -0.335675633878973E+02
              0.133964819264969E+02
             -0.303809938480733E+02
              0.628847515148219E+02
             -0.891785874515631E+01
              0.149376716092847E+02
              0.499141130963797E+02
             -0.710095452698851E+02
              0.150273087364758E+03
              0.209425713373732E+02
              0.272171681730620E+02
              0.348965807134487E+02
              0.103991452545970E+02
             -0.156671703907330E+01
              0.359645481713466E+02
             -0.358493615060385E+02
              0.776356413661748E+02
              0.687538049301386E+02
             -0.407525294628943E+02
              0.150138199253322E+02
              0.672760097847282E+02
             -0.224672351581498E+02
              0.155009742159507E+02
              0.436456347392707E+02
              0.423714176327674E+02
             -0.787614087259859E+02
             -0.153075346028455E+02
             -0.357247362065533E+02
             -0.150416984647370E+01
             -0.768401715684921E+01
             -0.542715165741629E+01
             -0.181153532178225E+02
             -0.295009158257387E+02
              0.639119447352060E+01
              0.112009857243137E+02
              0.537606948753373E+02
             -0.391929035996657E+02
              0.376048586200928E+02
              0.440252146412396E+02
             -0.187016846548869E+02
              0.875240522072919E+02
             -0.700349953105530E+02
             -0.103563595052807E+03
             -0.662349836939920E+01
             -0.272234769767738E+01
              0.385289810876895E+01
              0.792413840491279E+02
             -0.107204116542283E+02
              0.418230056707218E+02
              0.445660244736979E+02
              0.386674851723267E+02
             -0.998526680817974E+01
              0.629712823077000E+02
             -0.134229623377411E+02
             -0.308764170507317E+02
             -0.480898030584708E+02
              0.591156875141337E+01
              0.370849780350608E+02
             -0.603734605252660E+01
              0.394265131027939E+02
             -0.175837297579483E+01
              0.657401078690511E+02
              0.187981039507773E+02
              0.100153988780366E+02
             -0.121820837380191E+02
              0.333328683401083E+02
              0.364008994884146E+02
              0.233301079857672E+02
             -0.518156406922174E+00
             -0.552546753866242E+02
              0.261852623560552E+02
              0.175933285646801E+02
              0.403876087997890E+02
              0.273344483243785E+02
              0.373769474194442E+02
             -0.606744431056913E+01
              0.252254274058735E+02
             -0.299555445525666E+02
             -0.198212549027164E+01
             -0.571196707305941E+02
             -0.309078913119141E+02
              0.380260868339819E+02
             -0.938907435632245E+02
              0.295389810044283E+02
              0.184605764633652E+02
              0.843323004726374E+02
             -0.301142708216918E+02
              0.330645097035555E+02
             -0.138116725686870E+02
             -0.465776599847342E+02
             -0.764061058360921E+02
             -0.530848259205334E+01
             -0.863271742337344E+02
              0.200128862802854E+02
             -0.248245733078537E+02
              0.306965187434156E+02
              0.237792556586619E+02
             -0.242204266059245E+02
             -0.266503712901516E+02
              0.392415427423729E+02
             -0.590501299467769E+02
             -0.117211215657780E+02
             -0.196796625570643E+02
              0.213686200665130E+02
             -0.890202183423668E+01
              0.363905193337530E+01
             -0.201314004793937E+02
              0.560796615279263E+02
             -0.441606266245004E+02
              0.791183732217257E+01
              0.587674011236660E+02
             -0.324718094163747E+02
              0.361716761523627E+01
             -0.881336067082816E+01
             -0.671863053206717E+02
             -0.484034385769676E+02
             -0.862573252392266E+01
              0.241836452169358E+02
              0.303584285396310E+02
              0.861745110656074E+01
             -0.418373577986677E+01
              0.152611715255660E+02
             -0.441429544472070E+02
              0.331490183017922E+01
             -0.533021876681586E+02
             -0.325789238980721E+02
              0.476542394731738E+02
             -0.296231486279222E+02
              0.624977298558973E+02
             -0.215591881934204E+02
              0.354918777557535E+02
              0.242695548365214E+02
             -0.646347406830085E+02
             -0.281385035700448E+02
              0.935764853371052E+01
             -0.373328289523968E+02
             -0.341013398749704E+02
             -0.833196579837272E+02
             -0.541366603460984E+02
             -0.512365052907263E+02
             -0.417205941515317E+02
             -0.979647481746952E+00
              0.100280359210587E+02
              0.106828878606183E+01
              0.154176805099741E+02
             -0.551469307934342E+02
              0.142432338261819E+02
              0.257747141161097E+02
             -0.669271080141664E+02
             -0.704221371105824E+02
             -0.432823074991492E+02
             -0.173103240577325E+02
              0.179126177232529E+02
              0.454689941629840E+01
             -0.427491578489140E+02
              0.367370571270019E+02
             -0.216981274274752E+02
              0.519313634727753E+02
             -0.890507686882756E+02
              0.600064301721784E+02
             -0.216171049618480E+01
             -0.369986935051446E+02
             -0.217308797273150E+02
              0.471884630374480E+01
              0.376349082537870E+02
             -0.759022408318848E+02
             -0.121235892274457E+02
             -0.217396390308049E+02
              0.512728708397761E+02
              0.867855793591873E+02
             -0.968946375370289E+02
              0.947429946106241E+02
              0.469203656703465E+02
             -0.728243680350584E+02
             -0.367796283567559E+02
              0.754840701674651E+02
              0.634119456214628E+02
             -0.181955494562960E+02
             -0.465638766619861E+01
              0.738158506604681E+01
              0.651902634702514E+02
             -0.510555362150838E+02
              0.158913776276870E+02
             -0.475415740364723E+01
              0.348727865377505E+02
             -0.749676677288298E+02
             -0.649814343536713E+01
             -0.352172947141686E+02
              0.462475643206851E+02
              0.470221536548868E+02
             -0.865126105294863E+02
             -0.488862188495048E+02
             -0.256998559505972E+02
             -0.341025700626069E+02
             -0.109799805385776E+02
             -0.243490017848742E+02
              0.429012324592007E+02
              0.402614511716588E+02
             -0.565706458317862E+01
             -0.418007067395720E+02
             -0.853652373541200E+02
              0.444889470179639E+02
             -0.525015467921391E+02
             -0.314424082672189E+02
              0.548824505596932E+01
[...]
              0.284285853998701E+02
              0.142284731011651E+03
              0.243452288987155E+02
              0.123171343797976E+02
             -0.466032214158416E+02
             -0.639863291727354E+02
             -0.189511674227410E+02
              0.330771690496300E+02
             -0.429640320651413E+01
              0.190891046592455E+02
              0.337400638487566E+02
             -0.588518290530220E+02
              0.223386211944171E+02
              0.583423923634969E+02
              0.554863104785283E+02
             -0.422091402801698E+01
             -0.135481084751632E+01
             -0.996530012205091E+01
             -0.483982273197923E+02
             -0.677366826261398E+02
              0.788258804871389E+02
             -0.526211578354133E+01
             -0.589827001195935E+02
              0.173259258871457E+01
             -0.206209255475574E+02
              0.941541723483579E+02
             -0.217345985889543E+02
             -0.354832567469454E+02
              0.336453823760469E+02
             -0.146339347197998E+02
              0.391182551443343E+02
             -0.236755547873730E+01
              0.101413621725075E+03
              0.491471260602385E+02
             -0.508352935505683E+01
             -0.323281123525316E+02
              0.233264521024118E+02
             -0.530424565332563E+02
             -0.128164331044423E+02
              0.587862330361842E+02
             -0.288647920646212E+02
             -0.439877725619111E+02
             -0.223999161405339E+02
              0.520399340123781E+02
              0.125200869468677E+02
             -0.851651633969098E+02
              0.305048107063306E+02
              0.152444104561019E+02
              0.580720381523523E+01
             -0.515173538537941E+02
             -0.375554235789451E+01
              0.324268980413586E+02
              0.514425275625761E+02
              0.634887558689135E+02
              0.230068829171830E+02
              0.779159124057628E+00
             -0.499876450130836E+02
             -0.511569266992829E+02
             -0.750194386420239E+02
             -0.620243825834325E+01
              0.310130586952985E+02
             -0.379340766929505E+01
              0.548622955035429E+02
             -0.319112994601695E+02
              0.167021981025130E+02
             -0.103301353523743E+02
             -0.290571955649634E+02
              0.587698849952088E+02
              0.794232066159316E+01
              0.606446962462306E+02
              0.510807791658760E+01
              0.265758653535222E+02
             -0.193276762291319E+02
              0.588228243454553E+02
             -0.112031483679927E+02
             -0.121297581493252E+00
             -0.792800201136876E+02
             -0.128635610856478E+02
              0.721469163406292E+02
              0.675357649242869E+02
              0.252773154604562E+02
             -0.130906914164665E+02
              0.345896620816120E+01
             -0.174240546272086E+02
             -0.210799065920071E+01
              0.910887604927108E+02
              0.126079590256325E+01
             -0.191369365447350E+02
             -0.111118279008675E+03
             -0.554202666799974E+02
             -0.376314627894954E+02
             -0.660757345972191E+02
             -0.557554521275715E+02
             -0.684999376630020E+02
             -0.448703778128092E+02
             -0.411930876313221E+02
             -0.453542951222261E+02
              0.485088689886158E+02
             -0.294820483418748E+02
             -0.998354417157503E+02
              0.420315742008027E+02
             -0.261116225629372E+02
             -0.793572506475509E+02
              0.947200324677798E+02
             -0.220578028056462E+02
              0.228598568288645E+02
              0.456414504942800E+02
             -0.131096351584182E+01
              0.255281520478234E+02
              0.470439962118792E+01
              0.413116543434615E+00
             -0.151123856310961E+02
             -0.718302016990482E+02
              0.133577721566297E+02
             -0.129806441996446E+03
              0.626567993124041E+02
             -0.442072991094989E+02
             -0.163480882503071E+02
             -0.158762678187334E+02
              0.720429732216717E+01
             -0.228251224280256E+02
              0.298022709453322E+02
             -0.522454832822008E+02
              0.368441200352657E+02
              0.372375539716461E+02
              0.168739273157700E+02
              0.100920543619915E+02
              0.198546118899180E+02
              0.625437187090563E+01
              0.311297028177499E+02
             -0.801815097797879E+01
             -0.594709263165460E+02
              0.760800154262029E+01
             -0.153619410262543E+02
             -0.195293105946166E+01
              0.508108222002404E+02
             -0.829560438508121E+02
             -0.148034777422737E+01
              0.582997851173729E+00
              0.998538941774387E+01
              0.319523901673803E+02
             -0.124032647879916E+02
              0.838496002193361E+02
              0.489059398285098E+02
             -0.183747120893963E+02
             -0.958718332229773E+01
              0.107749675097730E+01
              0.772141890567025E+02
             -0.587928957388091E+02
             -0.106110514811390E+03
              0.310202861976280E+02
             -0.163524508227187E+02
             -0.140044484039661E+02
              0.131143997852884E+02
              0.771092853307547E+02
              0.465692689376966E+02
             -0.154010905662053E+02
             -0.504785242032406E+02
             -0.552558649610575E+01
              0.307367219061417E+02
             -0.112128626790831E+02
             -0.758268430617911E+02
             -0.273836184533909E+01
             -0.893170533627311E+02
             -0.477277324612129E+02
              0.771368743930635E+02
             -0.485318066968701E+02
             -0.638910514847124E+02
             -0.516115948636601E+02
             -0.351044102116710E+02
              0.342138689811646E+02
              0.824431899478110E+02
             -0.360144753353330E+01
              0.277464954027359E+02
             -0.184462919234198E+02
             -0.696287707463585E+02
              0.466713226256105E+02
             -0.446646997429698E+02
              0.322580136317837E+02
              0.377295773348221E+02
             -0.659758709417861E+01
              0.391747010895647E+02
              0.439706104248024E+02
              0.101055997605917E+03
             -0.156373473064127E+02
             -0.457871036059562E+02
             -0.614938125496818E+02
             -0.124490142081228E+02
             -0.234167354411469E+02
              0.103339929982553E+03
             -0.450565758336070E+02
              0.105503927966453E+02
              0.972699424893784E+01
             -0.265371152303494E+02
             -0.801732331996274E+02
             -0.701578474954198E+01
              0.983199941982547E+02
              0.944038997015906E+01
              0.810923546379945E+01
             -0.528930879329859E+02
             -0.607328769382630E+02
             -0.568083672941778E+01
              0.501938529895087E+02
             -0.222749206979666E+02
              0.108315664045672E+03
             -0.437224605165892E+02
              0.146956489528353E+02
             -0.224619819487090E+02
             -0.720644994713407E+02
              0.169737776627142E+01
             -0.503441003949038E+02
             -0.763080282771721E+02
              0.619825570267369E+01
              0.236807392553760E+01
              0.515839109085020E+02
              0.188083306741882E+02
             -0.324770239798123E+02
              0.230752299613290E+02
             -0.813918534506904E+02
             -0.523346874466060E+02
              0.904807897821340E+02
              0.142554983900494E+02
             -0.188250572526565E+02
             -0.353329856596336E+02
             -0.271232243611291E+01
             -0.590263773211620E+01
              0.833290747805095E+02
              0.419141358166139E+02
             -0.166363565329348E+02
             -0.121904551475521E+02
             -0.428892321990827E+02
             -0.201168775914099E+02
             -0.672096093929485E+02
              0.461401239395314E+02
              0.549109237020716E+01
              0.145207270954596E+02
              0.156704048327467E+02
             -0.599822806269657E+00
             -0.169135294108004E+02
             -0.305927748064680E+01
             -0.100798315275637E+03
             -0.230401875443750E+02
             -0.768485110990679E+01
             -0.950726832615277E+01
              0.548031799289640E+02
              0.626021850094381E+02
              0.165361151287324E+02
             -0.973724007860405E+02
              0.649595573392305E+02
             -0.215693577376873E+02
             -0.378283311316881E+02
             -0.867137274595409E+02
             -0.387867282231134E+02
              0.566631314149102E+02
              0.245366362040277E+02
              0.518079530848740E+01
              0.293406566969970E+02
             -0.566804855206843E+02
             -0.423899579521353E+02
              0.517282805599433E+02
              0.388495204952153E+02
              0.520491277931223E+02
             -0.119487499794212E+01
              0.688838523204720E+01
              0.571246404145479E+02
              0.966022758289196E+02
             -0.300849392806943E+02
              0.324248262474546E+02
             -0.119487959153826E+02
             -0.413602422760455E+02
             -0.315531522205146E+02
             -0.301328525906351E+02
             -0.131838535879987E+02
             -0.524990147081501E+02
             -0.217863898399020E+02
             -0.141615213724730E+03
              0.370027594863433E+02
              0.207533532748891E+02
             -0.395386375176379E+01
             -0.381349816009126E+02
             -0.204861540968211E+02
             -0.528687649424938E+02
              0.151525956299165E+02
              0.822715790963869E+02
             -0.252796997323784E+02
             -0.163607132970682E+02
              0.238796624316054E+02
             -0.491080707358372E+02
              0.883321394800832E+02
              0.154917189715248E+02
              0.226632824489960E+02
              0.491908150417916E+02
              0.318852120791445E+01
              0.543948918347029E+02
              0.143651147535462E+02
             -0.106645280614612E+02
              0.734920720172786E+01
              0.753279581906952E+00
              0.729356444705242E+02
              0.101449657334889E+02
              0.121174847781226E+02
             -0.130407548058862E+02
              0.132775978187564E+02
             -0.914248782542898E+02
             -0.327059699317279E+02
             -0.458947576756277E+02
              0.486862405235023E+02
             -0.292159395318253E+02
             -0.660410149131344E+02
              0.540459790700859E+02
             -0.122399756749380E+02
              0.441433536115508E+02
             -0.901704387067315E+02
              0.232708334568552E+02
              0.858826847476348E+01
              0.584991412398551E+01
             -0.835958211832707E+01
             -0.906245979593257E+01
              0.481092161511340E+02
              0.200069778585112E+01
             -0.476804927102667E+02
             -0.176768921296605E+02
              0.277321955400430E+02
             -0.118314994022947E+03
             -0.932712103608119E+02
              0.396358884792062E+01
              0.118111962174564E+02
             -0.414824791298605E+02
             -0.389611826531279E+01
              0.112451167899835E+03
              0.307486016837746E+02
             -0.573358046927131E+02
              0.928064519967745E+01
             -0.967375362464600E+01
              0.106091045222867E+02
             -0.338869291741171E+02
              0.196131617342562E+02
              0.285472196853598E+02
             -0.301668834154589E+01
              0.108548028391665E+03
             -0.140490525694755E+02
             -0.317011402184551E+02
              0.143840408148857E+02
              0.467934423993187E+02
             -0.356969438576345E+02
             -0.318257091339159E+01
              0.968021856336312E+02
             -0.464903464885242E+01
              0.623497195952893E+02
              0.135969069755396E+02
             -0.904136446010847E+01
             -0.305997009030663E+02
              0.568270348648172E+02
             -0.516123018401363E+02
             -0.221347659562139E+01
             -0.170608282055467E+02
             -0.406575869768407E+02
              0.185431676486905E+02
              0.240132105078939E+02
              0.116214839066952E+02
              0.714933996845275E+00
             -0.385842919860577E+02
              0.215856192095854E+02
             -0.674633218239663E+01
             -0.247217333972316E+02
             -0.211281610541666E+02
              0.203817376939183E+02
             -0.598850139188914E+01
             -0.350435543179909E+02
             -0.106991887645373E+03
              0.103224269041343E+02
              0.249364607420762E+02
             -0.388915046740191E+02
             -0.211731544290554E+02
              0.809810688739361E+02
              0.655146640431428E+01
              0.312180499171238E+02
              0.394117041018291E+01
              0.323172377396956E+02
              0.648017369414197E+01
             -0.374267980435352E+02
             -0.236013962663660E+01
              0.878373674270927E+01
              0.274866777750761E+02
              0.784410101746709E+02
              0.509018985095890E+02
              0.193715077954835E+00
              0.169729093359566E+02
              0.615200154622850E+02
              0.236820519426401E+02
             -0.755142421538687E+02
             -0.274631804334784E+02
              0.151446971211732E+02
              0.565034756965741E+01
              0.255868764298576E+02
             -0.549474838991636E+02
              0.901541000399185E+01
              0.387392051253367E+02
              0.499601848360366E+02
             -0.436338156226366E+02
             -0.690344350984537E+01
             -0.209094766109985E+01
             -0.134352825629870E+02
             -0.366453360550958E+02
             -0.215775212978766E+02
             -0.205749298389168E+01
              0.796352259628543E+01
              0.422754896297203E+02
             -0.309321355400871E+02
              0.828816357225265E+02
              0.328660823742003E+02
              0.220717248419680E+02
              0.334255900024963E+02
              0.324034118954822E+02
              0.347357154772687E+02
              0.538968357069481E+02
             -0.435404653310955E+02
              0.621691051180503E+02
             -0.112646135671448E+03
              0.308397062179942E+02
             -0.106882622854829E+03
              0.857382094160208E+02
              0.693204650803452E+02
             -0.110199867350914E+02
             -0.494807876248130E+02
             -0.430948406077791E+02
             -0.625330608368517E+02
             -0.630842309365970E+02
              0.553731245201936E+02
              0.406905584252950E+02
              0.237602831559516E+02
              0.374716505427685E+02
              0.404619852020218E+02
             -0.383419296252100E+02
             -0.198424603727382E+02
              0.588387829261539E+02
             -0.116508110081892E+02
              0.553519755970703E+02
              0.701928602585753E+02
             -0.556159441413280E+01
             -0.708743443715510E+02
             -0.874311438529276E+00
             -0.247023034619737E+01
             -0.886059182874646E+01
             -0.179922950397673E+01
             -0.655125886907358E+02
             -0.211106532704288E+02
              0.542769116195369E+01
              0.903689848095743E+01
              0.470563457874792E+02
             -0.399144792600873E+02
              0.659227466978476E+02
             -0.426626156334099E+02
              0.211273036139311E+02
              0.351717780616550E+02
 
 BEEF-vdW xc energy contributions
           1 :   -785.341457795168     
           2 :    721.326363740743     
           3 :   -610.549428133226     
           4 :    480.218472194103     
           5 :   -357.912729207220     
           6 :    263.462887946102     
           7 :   -204.492952395199     
           8 :    176.442085455683     
           9 :   -166.610394291050     
          10 :    160.323784599592     
          11 :   -146.716976578364     
          12 :    121.968197203900     
          13 :   -89.1462443610051     
          14 :    55.2956577247438     
          15 :   -27.4469443608423     
          16 :    9.35278675638131     
          17 :  -0.206975754961150     
          18 :   -4.39731694413683     
          19 :    9.97526084504204     
          20 :   -20.4344610056171     
          21 :    36.3858088928849     
          22 :   -55.1498482411766     
          23 :    72.2860052098210     
          24 :   -83.8114234680220     
          25 :    88.0172544275152     
          26 :   -86.0832537008342     
          27 :    81.3029031611599     
          28 :   -77.3897963578594     
          29 :    76.7179411226637     
          30 :   -79.3205422713324     
          31 :   -86.1181854237427     
          32 :   -65.9624090944270     

     Writing output data file ./pwscf.save/
 
     init_run     :    374.70s CPU    379.53s WALL (       1 calls)
     electrons    :  13317.38s CPU  13451.79s WALL (       1 calls)
     forces       :    101.71s CPU    103.04s WALL (       1 calls)

     Called by init_run:
     wfcinit      :    325.81s CPU    329.53s WALL (       1 calls)
     potinit      :     45.23s CPU     45.59s WALL (       1 calls)
     hinit0       :      1.54s CPU      1.58s WALL (       1 calls)

     Called by electrons:
     c_bands      :  11056.95s CPU  11159.71s WALL (      20 calls)
     sum_band     :   1525.58s CPU   1539.99s WALL (      20 calls)
     v_of_rho     :    109.42s CPU    113.73s WALL (      20 calls)
     newd         :     33.54s CPU     46.64s WALL (      20 calls)
     PAW_pot      :    139.15s CPU    139.16s WALL (      20 calls)
     mix_rho      :    498.80s CPU    499.57s WALL (      20 calls)
     vdW_kernel   :     33.62s CPU     33.62s WALL (       1 calls)

     Called by c_bands:
     init_us_2    :     82.28s CPU     82.50s WALL (     546 calls)
     cegterg      :  10252.67s CPU  10354.49s WALL (     260 calls)

     Called by *egterg:
     cdiaghg      :     88.03s CPU     88.07s WALL (    1409 calls)
     h_psi        :   6628.97s CPU   6663.98s WALL (    1435 calls)
     s_psi        :   1086.59s CPU   1086.63s WALL (    1435 calls)
     g_psi        :     17.54s CPU     17.55s WALL (    1162 calls)

     Called by h_psi:
     h_psi:calbec :   1026.19s CPU   1026.31s WALL (    1435 calls)
     vloc_psi     :   4486.40s CPU   4487.46s WALL (    1435 calls)
     add_vuspsi   :   1087.83s CPU   1087.86s WALL (    1435 calls)

     General routines
     calbec       :   1507.42s CPU   1507.78s WALL (    1747 calls)
     fft          :     50.23s CPU     50.25s WALL (    3220 calls)
     ffts         :    160.65s CPU    160.67s WALL (   11072 calls)
     fftw         :   4573.26s CPU   4573.81s WALL (  338060 calls)
 
     Parallel routines
 
     PWSCF        :      3h51m CPU      3h54m WALL

 
   This run was terminated on:   2:36: 8   4Jan2023            

=------------------------------------------------------------------------------=
   JOB DONE.
=------------------------------------------------------------------------------=
