
     Program PWSCF v.6.7MaX starts on  3Jan2023 at 22:40:13 

     This program is part of the open-source Quantum ESPRESSO suite
     for quantum simulation of materials; please cite
         "P. Giannozzi et al., J. Phys.:Condens. Matter 21 395502 (2009);
         "P. Giannozzi et al., J. Phys.:Condens. Matter 29 465901 (2017);
          URL http://www.quantum-espresso.org", 
     in publications or presentations arising from this work. More details at
     http://www.quantum-espresso.org/quote

     Parallel version (MPI), running on     1 processors

     MPI processes distributed on     1 nodes
     Reading input from ch2cch2-bi-ensemble.in
Warning: card &CELL ignored
Warning: card / ignored

     Current dimensions of program PWSCF are:
     Max number of different atomic species (ntypx) = 10
     Max number of k-points (npk) =  40000
     Max angular momentum in pseudopotentials (lmaxx) =  3
     file Pt.pbe-n-kjpaw_psl.1.0.0.UPF: wavefunction(s)  6S 5D renormalized
     file C.pbe-n-kjpaw_psl.1.0.0.UPF: wavefunction(s)  2S 2P renormalized
     file H.pbe-kjpaw_psl.1.0.0.UPF: wavefunction(s)  1S renormalized

     **************************************************************************
     Initializing libbeef V0.1.2 with the BEEF-vdW functional.
     Citation: Wellendorff et al., PRB 85, 235149 (2012).
     **************************************************************************


     IMPORTANT: XC functional enforced from input :
     Exchange-correlation= BEEF-VDW
                           (   1   4  43  14   2   0   0)
     Any further DFT definition will be discarded
     Please, verify this is what you really want


     Subspace diagonalization in iterative solution of the eigenvalue problem:
     a serial algorithm will be used

 
     G-vector sticks info
     --------------------
     sticks:   dense  smooth     PW     G-vecs:    dense   smooth      PW
     Sum        4267    4267   1159               742479   742479  104639
 


     bravais-lattice index     =            0
     lattice parameter (alat)  =      16.0349  a.u.
     unit-cell volume          =   11818.2883 (a.u.)^3
     number of atoms/cell      =           43
     number of atomic types    =            3
     number of electrons       =       376.00
     number of Kohn-Sham states=          226
     kinetic-energy cutoff     =      60.0000  Ry
     charge density cutoff     =     240.0000  Ry
     scf convergence threshold =      1.0E-06
     mixing beta               =       0.7000
     number of iterations used =            8  local-TF  mixing
     Exchange-correlation= BEEF-VDW
                           (   1   4  43  14   2   0   0)

     celldm(1)=  16.034858  celldm(2)=   0.000000  celldm(3)=   0.000000
     celldm(4)=   0.000000  celldm(5)=   0.000000  celldm(6)=   0.000000

     crystal axes: (cart. coord. in units of alat)
               a(1) = (   1.000000   0.000000   0.000000 )  
               a(2) = (   0.500000   0.866025   0.000000 )  
               a(3) = (   0.000000   0.000000   3.310005 )  

     reciprocal axes: (cart. coord. in units 2 pi/alat)
               b(1) = (  1.000000 -0.577350  0.000000 )  
               b(2) = (  0.000000  1.154701  0.000000 )  
               b(3) = (  0.000000  0.000000  0.302114 )  


     PseudoPot. # 1 for Pt read from file:
     /users/bkreitz1/quantum-espresso/potentials/Pt.pbe-n-kjpaw_psl.1.0.0.UPF
     MD5 check sum: 04dc8a03c51ece93fc7b5889c2958091
     Pseudo is Projector augmented-wave + core cor, Zval = 10.0
     Generated using 'atomic' code by A. Dal Corso  v.6.7MaX
     Shape of augmentation charge: PSQ
     Using radial grid of 1277 points,  6 beta functions with: 
                l(1) =   0
                l(2) =   0
                l(3) =   1
                l(4) =   1
                l(5) =   2
                l(6) =   2
     Q(r) pseudized with 0 coefficients 


     PseudoPot. # 2 for C  read from file:
     /users/bkreitz1/quantum-espresso/potentials/C.pbe-n-kjpaw_psl.1.0.0.UPF
     MD5 check sum: a169b0ebad56f5ec0d79c4633f80bf22
     Pseudo is Projector augmented-wave + core cor, Zval =  4.0
     Generated using 'atomic' code by A. Dal Corso  v.6.7MaX
     Shape of augmentation charge: PSQ
     Using radial grid of 1073 points,  4 beta functions with: 
                l(1) =   0
                l(2) =   0
                l(3) =   1
                l(4) =   1
     Q(r) pseudized with 0 coefficients 


     PseudoPot. # 3 for H  read from file:
     /users/bkreitz1/quantum-espresso/potentials/H.pbe-kjpaw_psl.1.0.0.UPF
     MD5 check sum: ae98473e6dc62675f0d0baffdab24f65
     Pseudo is Projector augmented-wave, Zval =  1.0
     Generated using 'atomic' code by A. Dal Corso  v.6.7MaX
     Shape of augmentation charge: PSQ
     Using radial grid of  929 points,  2 beta functions with: 
                l(1) =   0
                l(2) =   0
     Q(r) pseudized with 0 coefficients 


     atomic species   valence    mass     pseudopotential
        Pt            10.00   195.08400     Pt( 1.00)
        C              4.00    12.01100     C ( 1.00)
        H              1.00     1.00800     H ( 1.00)

     No symmetry found



   Cartesian axes

     site n.     atom                  positions (alat units)
         1           Pt  tau(   1) = (   0.0000000   0.0000000   1.0017346  )
         2           Pt  tau(   2) = (   0.3333333   0.0000000   1.0017346  )
         3           Pt  tau(   3) = (   0.6666667   0.0000000   1.0017346  )
         4           Pt  tau(   4) = (   0.1666667   0.2886751   1.0017346  )
         5           Pt  tau(   5) = (   0.5000000   0.2886751   1.0017346  )
         6           Pt  tau(   6) = (   0.8333333   0.2886751   1.0017346  )
         7           Pt  tau(   7) = (   0.3333333   0.5773503   1.0017346  )
         8           Pt  tau(   8) = (   0.6666667   0.5773503   1.0017346  )
         9           Pt  tau(   9) = (   1.0000000   0.5773503   1.0017346  )
        10           Pt  tau(  10) = (   0.1666667   0.0962250   1.2739001  )
        11           Pt  tau(  11) = (   0.5000000   0.0962250   1.2739001  )
        12           Pt  tau(  12) = (   0.8333333   0.0962250   1.2739001  )
        13           Pt  tau(  13) = (   0.3333333   0.3849002   1.2739001  )
        14           Pt  tau(  14) = (   0.6666667   0.3849002   1.2739001  )
        15           Pt  tau(  15) = (   1.0000000   0.3849002   1.2739001  )
        16           Pt  tau(  16) = (   0.5000000   0.6735753   1.2739001  )
        17           Pt  tau(  17) = (   0.8333333   0.6735753   1.2739001  )
        18           Pt  tau(  18) = (   1.1666667   0.6735753   1.2739001  )
        19           Pt  tau(  19) = (   0.0014928   0.1930973   1.5408354  )
        20           Pt  tau(  20) = (   0.3367690   0.1949650   1.5481136  )
        21           Pt  tau(  21) = (   0.6657551   0.1947100   1.5457852  )
        22           Pt  tau(  22) = (   0.1663154   0.4817343   1.5416440  )
        23           Pt  tau(  23) = (   0.5007403   0.4818163   1.5457406  )
        24           Pt  tau(  24) = (   0.8318161   0.4829758   1.5459202  )
        25           Pt  tau(  25) = (   0.3338379   0.7714577   1.5414878  )
        26           Pt  tau(  26) = (   0.6676453   0.7677971   1.5472692  )
        27           Pt  tau(  27) = (   1.0001950   0.7709667   1.5428397  )
        28           Pt  tau(  28) = (   0.0020415   0.0018182   1.8164237  )
        29           Pt  tau(  29) = (   0.3347325   0.0018563   1.8179804  )
        30           Pt  tau(  30) = (   0.6681052   0.0017641   1.8161266  )
        31           Pt  tau(  31) = (   0.1686238   0.2902848   1.8175212  )
        32           Pt  tau(  32) = (   0.5030338   0.2924839   1.8402535  )
        33           Pt  tau(  33) = (   0.8388701   0.2883637   1.8141674  )
        34           Pt  tau(  34) = (   0.3317799   0.5805718   1.8131316  )
        35           Pt  tau(  35) = (   0.6661703   0.5772674   1.8374401  )
        36           Pt  tau(  36) = (   1.0011196   0.5793449   1.8167567  )
        37           C   tau(  37) = (   0.5309716   0.2487694   2.1869258  )
        38           C   tau(  38) = (   0.5573103   0.3479883   2.0676189  )
        39           C   tau(  39) = (   0.6262705   0.5084210   2.0729884  )
        40           H   tau(  40) = (   0.4802003   0.1328694   2.1709388  )
        41           H   tau(  41) = (   0.5598642   0.2841571   2.3068392  )
        42           H   tau(  42) = (   0.7412624   0.5135772   2.1306863  )
        43           H   tau(  43) = (   0.5451935   0.5969903   2.1205511  )

     number of k points=    13  Marzari-Vanderbilt smearing, width (Ry)=  0.0200
                       cart. coord. in units 2pi/alat
        k(    1) = (   0.0000000   0.0000000   0.0000000), wk =   0.0800000
        k(    2) = (   0.0000000   0.2309401   0.0000000), wk =   0.1600000
        k(    3) = (   0.0000000   0.4618802   0.0000000), wk =   0.1600000
        k(    4) = (   0.2000000  -0.1154701   0.0000000), wk =   0.1600000
        k(    5) = (   0.2000000   0.1154701   0.0000000), wk =   0.1600000
        k(    6) = (   0.2000000   0.3464102   0.0000000), wk =   0.1600000
        k(    7) = (   0.2000000  -0.5773503   0.0000000), wk =   0.1600000
        k(    8) = (   0.2000000  -0.3464102   0.0000000), wk =   0.1600000
        k(    9) = (   0.4000000  -0.2309401   0.0000000), wk =   0.1600000
        k(   10) = (   0.4000000  -0.0000000   0.0000000), wk =   0.1600000
        k(   11) = (   0.4000000   0.2309401   0.0000000), wk =   0.1600000
        k(   12) = (   0.4000000  -0.6928203   0.0000000), wk =   0.1600000
        k(   13) = (   0.4000000  -0.4618802   0.0000000), wk =   0.1600000

     Dense  grid:   742479 G-vectors     FFT dimensions: (  80,  80, 270)

     Estimated max dynamical RAM per process >       9.01 GB

     Check: negative core charge=   -0.000002

     Initial potential from superposition of free atoms

     starting charge  375.99373, renormalised to  376.00000

     negative rho (up, down):  1.149E-02 0.000E+00


     %%%%%%%%%%%%%%%%%%%%%%%%%%%%%%%%%%%%%%%%%%%%%%%%%%%%%%%%%%%%%%%%%%%%%%%%
     %                                                                      %
     % You are using vdW-DF, which was implemented by the Thonhauser group. %
     % Please cite the following two papers that made this development      %
     % possible and the two reviews that describe the various versions:     %
     %                                                                      %
     %   T. Thonhauser et al., PRL 115, 136402 (2015).                      %
     %   T. Thonhauser et al., PRB 76, 125112 (2007).                       %
     %   K. Berland et al., Rep. Prog. Phys. 78, 066501 (2015).             %
     %   D.C. Langreth et al., J. Phys.: Condens. Matter 21, 084203 (2009). %
     %                                                                      %
     %                                                                      %
     % If you are calculating the stress with vdW-DF, please also cite:     %
     %                                                                      %
     %   R. Sabatini et al., J. Phys.: Condens. Matter 24, 424209 (2012).   %
     %                                                                      %
     %%%%%%%%%%%%%%%%%%%%%%%%%%%%%%%%%%%%%%%%%%%%%%%%%%%%%%%%%%%%%%%%%%%%%%%%


     Starting wfcs are  340 randomized atomic wfcs
     Checking if some PAW data can be deallocated... 

     total cpu time spent up to now is      360.4 secs

     Self-consistent Calculation

     iteration #  1     ecut=    60.00 Ry     beta= 0.70
     Davidson diagonalization with overlap
     ethr =  1.00E-02,  avg # of iterations =  2.0

     Threshold (ethr) on eigenvalues was too large:
     Diagonalizing with lowered threshold

     Davidson diagonalization with overlap
     ethr =  9.58E-04,  avg # of iterations =  2.2

     negative rho (up, down):  1.194E-02 0.000E+00

     total cpu time spent up to now is     1688.5 secs

     total energy              =  -27815.79056225 Ry
     estimated scf accuracy    <       3.84958361 Ry

     iteration #  2     ecut=    60.00 Ry     beta= 0.70
     Davidson diagonalization with overlap
     ethr =  1.02E-03,  avg # of iterations =  2.0

     negative rho (up, down):  9.786E-03 0.000E+00

     total cpu time spent up to now is     2328.1 secs

     total energy              =  -27815.97343813 Ry
     estimated scf accuracy    <       1.49897801 Ry

     iteration #  3     ecut=    60.00 Ry     beta= 0.70
     Davidson diagonalization with overlap
     ethr =  3.99E-04,  avg # of iterations =  2.8

     negative rho (up, down):  6.607E-03 0.000E+00

     total cpu time spent up to now is     2970.4 secs

     total energy              =  -27816.01952848 Ry
     estimated scf accuracy    <       0.59725886 Ry

     iteration #  4     ecut=    60.00 Ry     beta= 0.70
     Davidson diagonalization with overlap
     c_bands:  1 eigenvalues not converged
     ethr =  1.59E-04,  avg # of iterations = 11.8

     negative rho (up, down):  5.043E-03 0.000E+00

     total cpu time spent up to now is     3798.9 secs

     total energy              =  -27816.08417177 Ry
     estimated scf accuracy    <       0.37569434 Ry

     iteration #  5     ecut=    60.00 Ry     beta= 0.70
     Davidson diagonalization with overlap
     ethr =  9.99E-05,  avg # of iterations =  2.0

     negative rho (up, down):  3.584E-03 0.000E+00

     total cpu time spent up to now is     4432.1 secs

     total energy              =  -27816.09505749 Ry
     estimated scf accuracy    <       0.05357146 Ry

     iteration #  6     ecut=    60.00 Ry     beta= 0.70
     Davidson diagonalization with overlap
     c_bands:  1 eigenvalues not converged
     c_bands:  2 eigenvalues not converged
     c_bands:  1 eigenvalues not converged
     ethr =  1.42E-05,  avg # of iterations = 12.5

     negative rho (up, down):  2.874E-03 0.000E+00

     total cpu time spent up to now is     5428.1 secs

     total energy              =  -27816.10781415 Ry
     estimated scf accuracy    <       0.02556404 Ry

     iteration #  7     ecut=    60.00 Ry     beta= 0.70
     Davidson diagonalization with overlap
     c_bands:  2 eigenvalues not converged
     c_bands:  1 eigenvalues not converged
     c_bands:  2 eigenvalues not converged
     c_bands:  1 eigenvalues not converged
     c_bands:  1 eigenvalues not converged
     ethr =  6.80E-06,  avg # of iterations = 13.5

     negative rho (up, down):  2.983E-03 0.000E+00

     total cpu time spent up to now is     6213.5 secs

     total energy              =  -27816.10962712 Ry
     estimated scf accuracy    <       0.01413808 Ry

     iteration #  8     ecut=    60.00 Ry     beta= 0.70
     Davidson diagonalization with overlap
     c_bands:  3 eigenvalues not converged
     c_bands:  2 eigenvalues not converged
     ethr =  3.76E-06,  avg # of iterations = 11.1

     negative rho (up, down):  3.543E-03 0.000E+00

     total cpu time spent up to now is     6952.0 secs

     total energy              =  -27816.11028500 Ry
     estimated scf accuracy    <       0.00680830 Ry

     iteration #  9     ecut=    60.00 Ry     beta= 0.70
     Davidson diagonalization with overlap
     c_bands:  1 eigenvalues not converged
     ethr =  1.81E-06,  avg # of iterations = 12.1

     negative rho (up, down):  5.451E-03 0.000E+00

     total cpu time spent up to now is     7685.5 secs

     total energy              =  -27816.11060174 Ry
     estimated scf accuracy    <       0.00221255 Ry

     iteration # 10     ecut=    60.00 Ry     beta= 0.70
     Davidson diagonalization with overlap
     ethr =  5.88E-07,  avg # of iterations =  8.2

     negative rho (up, down):  6.056E-03 0.000E+00

     total cpu time spent up to now is     8386.4 secs

     total energy              =  -27816.11078345 Ry
     estimated scf accuracy    <       0.00079434 Ry

     iteration # 11     ecut=    60.00 Ry     beta= 0.70
     Davidson diagonalization with overlap
     ethr =  2.11E-07,  avg # of iterations =  3.8

     negative rho (up, down):  6.912E-03 0.000E+00

     total cpu time spent up to now is     9083.8 secs

     total energy              =  -27816.11089680 Ry
     estimated scf accuracy    <       0.00052029 Ry

     iteration # 12     ecut=    60.00 Ry     beta= 0.70
     Davidson diagonalization with overlap
     ethr =  1.38E-07,  avg # of iterations =  2.0

     negative rho (up, down):  7.539E-03 0.000E+00

     total cpu time spent up to now is     9711.0 secs

     total energy              =  -27816.11094150 Ry
     estimated scf accuracy    <       0.00032049 Ry

     iteration # 13     ecut=    60.00 Ry     beta= 0.70
     Davidson diagonalization with overlap
     ethr =  8.52E-08,  avg # of iterations =  2.0

     negative rho (up, down):  9.774E-03 0.000E+00

     total cpu time spent up to now is    10346.5 secs

     total energy              =  -27816.11094358 Ry
     estimated scf accuracy    <       0.00023576 Ry

     iteration # 14     ecut=    60.00 Ry     beta= 0.70
     Davidson diagonalization with overlap
     ethr =  6.27E-08,  avg # of iterations =  2.0

     negative rho (up, down):  9.772E-03 0.000E+00

     total cpu time spent up to now is    10979.7 secs

     total energy              =  -27816.11093958 Ry
     estimated scf accuracy    <       0.00018580 Ry

     iteration # 15     ecut=    60.00 Ry     beta= 0.70
     Davidson diagonalization with overlap
     ethr =  4.94E-08,  avg # of iterations =  1.1

     negative rho (up, down):  1.121E-02 0.000E+00

     total cpu time spent up to now is    11558.9 secs

     total energy              =  -27816.11094019 Ry
     estimated scf accuracy    <       0.00005565 Ry

     iteration # 16     ecut=    60.00 Ry     beta= 0.70
     Davidson diagonalization with overlap
     ethr =  1.48E-08,  avg # of iterations =  4.0

     negative rho (up, down):  1.268E-02 0.000E+00

     total cpu time spent up to now is    12294.7 secs

     total energy              =  -27816.11094325 Ry
     estimated scf accuracy    <       0.00003014 Ry

     iteration # 17     ecut=    60.00 Ry     beta= 0.70
     Davidson diagonalization with overlap
     ethr =  8.02E-09,  avg # of iterations =  2.0

     negative rho (up, down):  1.248E-02 0.000E+00

     total cpu time spent up to now is    12965.3 secs

     total energy              =  -27816.11094962 Ry
     estimated scf accuracy    <       0.00002505 Ry

     iteration # 18     ecut=    60.00 Ry     beta= 0.70
     Davidson diagonalization with overlap
     ethr =  6.66E-09,  avg # of iterations =  1.8

     negative rho (up, down):  1.260E-02 0.000E+00

     total cpu time spent up to now is    13586.3 secs

     total energy              =  -27816.11095157 Ry
     estimated scf accuracy    <       0.00000724 Ry

     iteration # 19     ecut=    60.00 Ry     beta= 0.70
     Davidson diagonalization with overlap
     ethr =  1.93E-09,  avg # of iterations =  4.1

     negative rho (up, down):  1.301E-02 0.000E+00

     total cpu time spent up to now is    14381.6 secs

     total energy              =  -27816.11095220 Ry
     estimated scf accuracy    <       0.00000240 Ry

     iteration # 20     ecut=    60.00 Ry     beta= 0.70
     Davidson diagonalization with overlap
     ethr =  6.39E-10,  avg # of iterations =  3.8

     negative rho (up, down):  1.296E-02 0.000E+00

     total cpu time spent up to now is    15137.9 secs

     End of self-consistent calculation

          k = 0.0000 0.0000 0.0000 ( 92795 PWs)   bands (ev):

   -13.2385 -10.6015  -7.1222  -6.9164  -5.8496  -4.9093  -4.7211  -4.7120
    -4.7029  -4.6955  -4.6954  -4.6689  -4.6599  -4.5837  -4.4876  -4.4031
    -4.1512  -4.1414  -4.1403  -4.1287  -4.1200  -4.0897  -3.6908  -3.6766
    -3.6743  -3.6671  -3.6595  -3.6170  -3.4673  -3.4639  -3.4561  -3.4444
    -3.4400  -3.3865  -3.2521  -3.2461  -3.2349  -3.2343  -3.2240  -3.2100
    -3.2031  -3.1816  -3.1770  -3.1737  -3.1597  -3.1378  -2.6468  -2.6419
    -2.6216  -2.6137  -2.5960  -2.5665  -2.5361  -2.5316  -2.5126  -2.5015
    -2.4091  -2.3834  -2.3439  -2.3287  -2.1139  -1.9171  -1.8415  -1.8253
    -1.7932  -1.7852  -1.7708  -1.7164  -1.6638  -1.6296  -1.6190  -1.6118
    -1.6037  -1.5963  -1.5930  -1.5887  -1.5599  -1.5485  -1.5392  -1.5324
    -1.5216  -1.5019  -1.4886  -1.4572  -1.4052  -1.3985  -1.3790  -1.3714
    -1.2500  -1.2173  -1.2112  -1.1967  -1.1779  -1.1654  -1.1574  -1.1392
    -1.1241  -1.1146  -1.1099  -1.0492  -1.0439  -1.0041  -0.9599  -0.9593
    -0.9504  -0.9193  -0.9165  -0.8773  -0.7884  -0.7597  -0.7481  -0.7427
    -0.7261  -0.5611  -0.4442  -0.3598  -0.3169  -0.3126  -0.2898  -0.2793
    -0.2582  -0.2452  -0.2325  -0.2045  -0.1499  -0.1235  -0.1028  -0.0890
    -0.0570  -0.0245   0.0113   0.0383   0.0510   0.1061   0.1479   0.1600
     0.2193   0.2271   0.2302   0.2444   0.3042   0.3845   0.4321   0.4703
     0.4783   0.4904   0.4934   0.5282   0.5433   0.6777   0.7201   0.7282
     0.7347   0.7472   0.7876   0.7965   0.8753   0.8923   0.8979   0.9146
     0.9165   0.9263   0.9368   0.9423   0.9489   0.9668   0.9741   1.0225
     1.0472   1.0524   1.0664   1.0726   1.0903   1.1213   1.1497   1.1563
     1.1607   1.1731   1.1798   1.1912   1.2159   1.2254   1.2415   1.2820
     1.2923   1.2967   1.3159   1.3192   1.3310   1.3429   1.3872   1.4108
     1.4163   1.4417   1.4448   1.5933   1.6138   1.6961   1.7088   1.7307
     1.7459   1.7527   1.7601   2.0236   2.2175   2.5481   2.6064   2.6303
     2.6477   2.6758   3.8573   4.0733   4.8672   4.9014   4.9211   4.9557
     5.5942   5.7045   5.9273   6.0885   6.4477   6.5268   6.5447   6.5651
     6.5785   6.5972

          k = 0.0000 0.2309 0.0000 ( 92762 PWs)   bands (ev):

   -13.2383 -10.6019  -7.0022  -6.8887  -5.7074  -5.1996  -4.8687  -4.8032
    -4.7608  -4.5873  -4.5725  -4.5206  -4.4899  -4.4635  -4.4375  -4.3605
    -4.2455  -4.2209  -4.0759  -4.0617  -4.0580  -4.0098  -3.7663  -3.6452
    -3.6357  -3.6334  -3.6141  -3.5503  -3.5386  -3.4999  -3.4705  -3.4558
    -3.4415  -3.4141  -3.3559  -3.3392  -3.2624  -3.2450  -3.2335  -3.2196
    -3.1891  -3.0375  -3.0232  -3.0118  -2.9892  -2.9750  -2.7573  -2.7466
    -2.7204  -2.6728  -2.6596  -2.6334  -2.6099  -2.4801  -2.4385  -2.3914
    -2.3763  -2.3468  -2.3199  -2.3055  -2.1810  -2.0589  -1.9938  -1.9648
    -1.9369  -1.9134  -1.8968  -1.8340  -1.8208  -1.7915  -1.7626  -1.7514
    -1.7085  -1.6840  -1.6674  -1.6303  -1.6022  -1.5907  -1.5307  -1.5033
    -1.4984  -1.4602  -1.4289  -1.4092  -1.3927  -1.3555  -1.3338  -1.3099
    -1.2901  -1.2818  -1.2448  -1.2340  -1.2092  -1.1926  -1.1716  -1.1446
    -1.0964  -1.0787  -1.0661  -1.0438  -1.0355  -1.0208  -0.9970  -0.9792
    -0.9543  -0.9357  -0.9062  -0.8340  -0.8071  -0.7850  -0.7744  -0.7386
    -0.7318  -0.7198  -0.6892  -0.6664  -0.6547  -0.6441  -0.5553  -0.4272
    -0.4015  -0.3344  -0.3111  -0.2579  -0.2461  -0.2323  -0.2167  -0.1798
    -0.1229  -0.0607  -0.0295   0.0006   0.0684   0.0918   0.1219   0.1494
     0.1717   0.1816   0.2130   0.2466   0.2833   0.3157   0.3472   0.3579
     0.3721   0.3868   0.4840   0.5146   0.5521   0.5748   0.5986   0.6132
     0.6609   0.6799   0.7204   0.7401   0.7535   0.7890   0.8168   0.8431
     0.8605   0.8736   0.9167   0.9720   0.9875   1.0249   1.0611   1.0910
     1.1092   1.1405   1.1547   1.1651   1.1787   1.2451   1.2585   1.2919
     1.3000   1.3343   1.3520   1.3673   1.3911   1.3982   1.4068   1.4119
     1.4572   1.4658   1.5748   1.5943   1.6276   1.6427   1.6489   1.6670
     1.6860   1.7019   1.7303   1.7497   1.7659   1.8565   1.8618   1.8783
     1.9907   2.0392   2.0513   2.0615   2.3480   2.4347   2.7642   3.1178
     3.2247   3.3208   3.6601   4.2645   4.4230   4.8170   5.1950   5.3309
     5.3898   5.5017   5.7186   5.8151   5.9961   6.2720   6.3775   6.4687
     6.5542   6.6988

          k = 0.0000 0.4619 0.0000 ( 92784 PWs)   bands (ev):

   -13.2381 -10.6024  -6.9382  -6.5296  -5.8992  -5.3131  -4.8889  -4.8334
    -4.7883  -4.6275  -4.5357  -4.4825  -4.4351  -4.3077  -4.1945  -4.1517
    -4.1104  -4.0885  -3.9600  -3.9057  -3.8914  -3.8743  -3.8691  -3.7660
    -3.7176  -3.7138  -3.6685  -3.6590  -3.6444  -3.6053  -3.5397  -3.5350
    -3.5248  -3.2985  -3.2818  -3.2683  -3.2563  -3.2472  -3.2335  -3.0265
    -3.0249  -3.0121  -2.9958  -2.9826  -2.9622  -2.8132  -2.7353  -2.7054
    -2.6951  -2.6745  -2.6398  -2.6151  -2.5707  -2.5488  -2.5293  -2.5096
    -2.4718  -2.3606  -2.3332  -2.3187  -2.2875  -2.2365  -2.1763  -2.1489
    -2.1204  -2.0938  -2.0049  -1.9502  -1.9375  -1.9032  -1.8698  -1.8396
    -1.8295  -1.7914  -1.7680  -1.7225  -1.6907  -1.6389  -1.6165  -1.5709
    -1.5512  -1.5102  -1.4963  -1.4880  -1.4699  -1.4489  -1.4118  -1.3962
    -1.3831  -1.3706  -1.3569  -1.3382  -1.3115  -1.2835  -1.2508  -1.2212
    -1.2147  -1.1949  -1.1676  -1.1092  -1.0726  -1.0464  -1.0338  -0.9995
    -0.9620  -0.9505  -0.9363  -0.9046  -0.8372  -0.7975  -0.7738  -0.7437
    -0.7196  -0.6771  -0.6554  -0.6126  -0.5369  -0.4980  -0.4811  -0.4262
    -0.4022  -0.3728  -0.3566  -0.3196  -0.2947  -0.2876  -0.2734  -0.2293
    -0.2103  -0.1943  -0.1793  -0.1626  -0.1202  -0.1087  -0.0883  -0.0140
     0.0234   0.0345   0.0519   0.0925   0.1367   0.2225   0.2530   0.2718
     0.3246   0.3605   0.4351   0.4503   0.4970   0.5339   0.5608   0.5958
     0.6153   0.6242   0.6463   0.6874   0.7323   0.7414   0.7788   0.8082
     0.8669   0.8885   0.8990   0.9136   0.9490   0.9840   1.0693   1.1149
     1.1341   1.1651   1.1843   1.2019   1.2458   1.2867   1.3140   1.3340
     1.3941   1.4013   1.4567   1.4624   1.4937   1.5034   1.5587   1.6024
     1.6093   1.6400   1.6494   1.6565   1.6793   1.6925   1.8523   1.8669
     1.8702   1.8879   1.9164   2.0467   2.1222   2.1883   2.4031   2.5683
     2.6273   2.9381   2.9532   3.1252   3.2812   3.3335   3.5894   3.6744
     3.9705   4.1603   4.1702   4.2194   4.3466   4.4352   4.4986   4.7326
     4.7938   4.9654   5.2338   5.4955   5.6091   5.7680   6.0727   6.2259
     6.3730   6.5873

          k = 0.2000-0.1155 0.0000 ( 92762 PWs)   bands (ev):

   -13.2384 -10.6015  -6.9991  -6.8925  -5.7105  -5.2139  -4.8274  -4.8032
    -4.7920  -4.5944  -4.5731  -4.5374  -4.4854  -4.4478  -4.4408  -4.3760
    -4.2189  -4.1745  -4.0838  -4.0708  -4.0595  -4.0399  -3.7618  -3.6425
    -3.6401  -3.6307  -3.5795  -3.5560  -3.5421  -3.5000  -3.4907  -3.4620
    -3.4394  -3.3959  -3.3494  -3.3456  -3.2616  -3.2510  -3.2217  -3.2172
    -3.2089  -3.0386  -3.0282  -3.0175  -2.9865  -2.9717  -2.7541  -2.7400
    -2.7274  -2.6709  -2.6563  -2.6477  -2.6090  -2.4684  -2.4475  -2.3944
    -2.3827  -2.3380  -2.3231  -2.3023  -2.1785  -2.0483  -2.0223  -1.9555
    -1.9459  -1.9025  -1.8711  -1.8501  -1.8113  -1.7729  -1.7670  -1.7518
    -1.7206  -1.6855  -1.6603  -1.6256  -1.6094  -1.5974  -1.5493  -1.5055
    -1.4941  -1.4691  -1.4302  -1.4184  -1.3889  -1.3434  -1.3368  -1.2980
    -1.2861  -1.2729  -1.2530  -1.2198  -1.2096  -1.1893  -1.1773  -1.1476
    -1.0952  -1.0851  -1.0574  -1.0462  -1.0368  -1.0181  -1.0027  -0.9667
    -0.9497  -0.9368  -0.8922  -0.8409  -0.8217  -0.7890  -0.7790  -0.7472
    -0.7270  -0.7094  -0.6858  -0.6702  -0.6592  -0.6375  -0.5462  -0.4575
    -0.3926  -0.3278  -0.3042  -0.2793  -0.2360  -0.2247  -0.2157  -0.1782
    -0.1664  -0.0829   0.0022   0.0179   0.0584   0.0953   0.1385   0.1456
     0.1718   0.1902   0.2128   0.2482   0.2780   0.3191   0.3305   0.3658
     0.3693   0.3916   0.4514   0.5297   0.5490   0.5655   0.6004   0.6236
     0.6696   0.6849   0.7140   0.7486   0.7606   0.7997   0.8211   0.8409
     0.8530   0.8821   0.9052   0.9648   0.9775   1.0136   1.0461   1.0845
     1.1128   1.1262   1.1356   1.1704   1.1944   1.2439   1.2683   1.2793
     1.3063   1.3417   1.3543   1.3632   1.3950   1.4015   1.4100   1.4118
     1.4608   1.4682   1.5873   1.6031   1.6064   1.6532   1.6601   1.6705
     1.6968   1.6997   1.7327   1.7447   1.7504   1.8500   1.8620   1.8753
     2.0273   2.0482   2.0516   2.0855   2.2884   2.3947   2.8542   3.0180
     3.2166   3.3419   3.8906   3.9699   4.4627   4.9792   5.0621   5.3295
     5.3851   5.5406   5.6817   5.8544   6.0731   6.1676   6.3873   6.4497
     6.5585   6.7534

          k = 0.2000 0.1155 0.0000 ( 92762 PWs)   bands (ev):

   -13.2383 -10.6018  -7.0015  -6.8893  -5.7081  -5.2049  -4.8684  -4.7988
    -4.7600  -4.5870  -4.5727  -4.5192  -4.4962  -4.4590  -4.4375  -4.3532
    -4.2477  -4.2183  -4.0757  -4.0684  -4.0589  -4.0121  -3.7623  -3.6485
    -3.6350  -3.6315  -3.6146  -3.5518  -3.5360  -3.5032  -3.4666  -3.4579
    -3.4406  -3.4230  -3.3555  -3.3354  -3.2675  -3.2519  -3.2336  -3.2156
    -3.1881  -3.0353  -3.0251  -3.0112  -2.9881  -2.9694  -2.7504  -2.7443
    -2.7198  -2.6735  -2.6552  -2.6371  -2.6089  -2.4826  -2.4389  -2.4030
    -2.3713  -2.3428  -2.3185  -2.3124  -2.1736  -2.0529  -1.9924  -1.9668
    -1.9418  -1.9176  -1.8748  -1.8283  -1.8132  -1.7779  -1.7755  -1.7521
    -1.7316  -1.6861  -1.6679  -1.6312  -1.6007  -1.5835  -1.5354  -1.5144
    -1.5025  -1.4703  -1.4274  -1.4117  -1.3790  -1.3441  -1.3308  -1.3121
    -1.2923  -1.2729  -1.2456  -1.2195  -1.2117  -1.1983  -1.1799  -1.1385
    -1.1144  -1.0707  -1.0623  -1.0516  -1.0317  -1.0155  -1.0052  -0.9711
    -0.9565  -0.9347  -0.8906  -0.8387  -0.8178  -0.7859  -0.7703  -0.7395
    -0.7302  -0.7078  -0.6822  -0.6655  -0.6477  -0.6423  -0.6053  -0.4444
    -0.4012  -0.3390  -0.3121  -0.2670  -0.2435  -0.2285  -0.2208  -0.1697
    -0.1149  -0.0556  -0.0299   0.0031   0.0603   0.0858   0.1343   0.1528
     0.1706   0.1924   0.2140   0.2378   0.2833   0.3170   0.3450   0.3591
     0.3761   0.3956   0.4479   0.5214   0.5585   0.5717   0.5947   0.6133
     0.6603   0.6772   0.7202   0.7337   0.7565   0.7967   0.8176   0.8457
     0.8639   0.8834   0.9048   0.9659   0.9846   1.0264   1.0685   1.0941
     1.1059   1.1382   1.1513   1.1572   1.1839   1.2383   1.2644   1.2896
     1.2997   1.3383   1.3532   1.3701   1.3923   1.3972   1.4079   1.4149
     1.4555   1.4626   1.5749   1.5959   1.6241   1.6420   1.6499   1.6703
     1.6862   1.7087   1.7317   1.7560   1.7679   1.8559   1.8590   1.8775
     1.9894   2.0402   2.0512   2.0637   2.3581   2.4275   2.7793   3.1081
     3.2208   3.3150   3.6660   4.2619   4.4206   4.8234   5.1830   5.3587
     5.3869   5.5012   5.7137   5.8212   6.0200   6.2623   6.3693   6.4451
     6.5547   6.6942

          k = 0.2000 0.3464 0.0000 ( 92746 PWs)   bands (ev):

   -13.2381 -10.6024  -6.9418  -6.6621  -5.4676  -5.4443  -5.4248  -4.7619
    -4.5593  -4.5146  -4.3748  -4.3617  -4.3526  -4.3404  -4.3254  -4.3045
    -4.2702  -4.1906  -4.1768  -4.1514  -3.8043  -3.7952  -3.7859  -3.7713
    -3.7096  -3.6915  -3.5620  -3.5564  -3.5490  -3.5320  -3.5189  -3.4350
    -3.4127  -3.3868  -3.3755  -3.3567  -3.3079  -3.2872  -3.2680  -3.2381
    -3.1933  -3.1291  -2.8955  -2.8286  -2.8118  -2.7908  -2.7628  -2.7457
    -2.7373  -2.7143  -2.6769  -2.6563  -2.5343  -2.5152  -2.5006  -2.4167
    -2.3718  -2.3544  -2.3428  -2.3089  -2.2823  -2.2388  -2.1495  -2.0764
    -2.0587  -2.0229  -1.9810  -1.9433  -1.9360  -1.9136  -1.8768  -1.8404
    -1.8206  -1.7635  -1.7091  -1.6763  -1.6567  -1.6385  -1.6076  -1.5829
    -1.5679  -1.5259  -1.5073  -1.4653  -1.4147  -1.3928  -1.3768  -1.3528
    -1.3342  -1.3244  -1.3164  -1.2831  -1.2609  -1.2547  -1.2124  -1.1871
    -1.1355  -1.1226  -1.0969  -1.0751  -1.0500  -1.0251  -0.9927  -0.9835
    -0.9690  -0.9566  -0.9449  -0.9258  -0.9044  -0.8613  -0.8574  -0.8245
    -0.7657  -0.7528  -0.7310  -0.7129  -0.6969  -0.6230  -0.6053  -0.5345
    -0.4271  -0.3984  -0.3830  -0.3404  -0.2889  -0.2652  -0.2339  -0.1943
    -0.1812  -0.1664  -0.1442  -0.1187  -0.0835  -0.0586  -0.0183   0.0193
     0.0996   0.1359   0.1839   0.1885   0.2247   0.2460   0.2897   0.3071
     0.3691   0.3777   0.4151   0.4527   0.4834   0.5034   0.5350   0.6087
     0.6164   0.6619   0.6788   0.7003   0.7195   0.7277   0.7414   0.7542
     0.7761   0.8070   0.8405   0.9242   0.9452   1.0337   1.0706   1.0944
     1.1523   1.2329   1.2728   1.3013   1.3168   1.3361   1.3973   1.4139
     1.4327   1.4398   1.4725   1.4874   1.4975   1.5021   1.5349   1.5557
     1.5651   1.6296   1.6546   1.6721   1.7053   1.7188   1.7502   1.8319
     1.8703   1.9239   1.9625   2.0108   2.0323   2.0382   2.1420   2.1716
     2.2771   2.6823   2.7146   2.9733   3.2128   3.2475   3.2719   3.3237
     3.6529   3.9386   4.0695   4.1748   4.2145   4.6496   4.7911   5.0118
     5.3341   5.3872   5.4823   5.7282   5.7964   6.0630   6.1136   6.2016
     6.2242   6.3342

          k = 0.2000-0.5774 0.0000 ( 92744 PWs)   bands (ev):

   -13.2380 -10.6024  -6.9346  -6.1477  -6.1250  -5.5372  -5.0214  -4.9202
    -4.6788  -4.5234  -4.4956  -4.3558  -4.3105  -4.2269  -4.1923  -4.0897
    -4.0697  -3.9768  -3.9637  -3.8805  -3.8674  -3.8540  -3.8240  -3.8164
    -3.7860  -3.7732  -3.6603  -3.6507  -3.6419  -3.6019  -3.5896  -3.5387
    -3.4461  -3.3934  -3.3465  -3.2735  -3.2605  -3.2366  -3.2141  -3.1996
    -3.1323  -3.1100  -3.0239  -3.0067  -2.8315  -2.8126  -2.7951  -2.7106
    -2.6800  -2.6346  -2.6143  -2.5368  -2.4911  -2.4440  -2.4277  -2.4089
    -2.3688  -2.3476  -2.3132  -2.2578  -2.2274  -2.2067  -2.1912  -2.1803
    -2.1606  -2.1518  -2.0996  -2.0771  -2.0283  -1.9702  -1.9426  -1.8962
    -1.8686  -1.8220  -1.8037  -1.7570  -1.7411  -1.6953  -1.6676  -1.6581
    -1.6406  -1.6111  -1.5703  -1.5574  -1.5298  -1.4920  -1.4672  -1.4209
    -1.4035  -1.3626  -1.3309  -1.3137  -1.2672  -1.2356  -1.1736  -1.1550
    -1.1215  -1.1107  -1.1013  -1.0691  -1.0533  -1.0370  -1.0204  -1.0004
    -0.9920  -0.9685  -0.9470  -0.9252  -0.8993  -0.8895  -0.8829  -0.8692
    -0.8454  -0.8311  -0.8100  -0.7729  -0.6398  -0.5568  -0.5080  -0.4855
    -0.4710  -0.4106  -0.3906  -0.3624  -0.3376  -0.3184  -0.2822  -0.2587
    -0.2328  -0.2036  -0.1886  -0.1486  -0.1052  -0.0779  -0.0323  -0.0066
     0.0173   0.0764   0.1173   0.1763   0.2038   0.2539   0.2879   0.3120
     0.3554   0.3720   0.3907   0.4191   0.4330   0.4546   0.4864   0.5070
     0.5691   0.5891   0.6111   0.6343   0.6585   0.7003   0.7091   0.7706
     0.7906   0.8461   0.8659   0.9681   0.9918   1.0885   1.1032   1.1237
     1.1503   1.2156   1.2518   1.2910   1.3139   1.3902   1.4170   1.4266
     1.4503   1.4696   1.4825   1.5070   1.5320   1.5984   1.6172   1.6313
     1.6518   1.6674   1.6853   1.6898   1.7607   1.8408   1.8628   1.8876
     1.9042   1.9193   1.9647   1.9823   2.0894   2.2130   2.6447   2.9191
     3.0582   3.0592   3.3045   3.4057   3.4327   3.4488   3.6321   3.9522
     4.0614   4.0933   4.2674   4.5177   4.5970   4.6524   4.7096   4.7698
     4.8882   4.9797   5.1367   5.2372   5.3966   5.5479   5.7876   5.8350
     6.1430   6.1741

          k = 0.2000-0.3464 0.0000 ( 92746 PWs)   bands (ev):

   -13.2382 -10.6018  -6.9400  -6.6660  -5.4634  -5.4435  -5.4387  -4.7659
    -4.5671  -4.5149  -4.3795  -4.3715  -4.3601  -4.3281  -4.3067  -4.3030
    -4.2798  -4.1841  -4.1669  -4.1308  -3.8138  -3.8021  -3.7882  -3.7741
    -3.7025  -3.6884  -3.5659  -3.5553  -3.5471  -3.5260  -3.5003  -3.4450
    -3.4004  -3.3881  -3.3774  -3.3567  -3.3031  -3.2837  -3.2578  -3.2293
    -3.2162  -3.1319  -2.8941  -2.8214  -2.8116  -2.7906  -2.7717  -2.7490
    -2.7370  -2.7311  -2.6750  -2.6611  -2.5533  -2.5165  -2.4890  -2.4212
    -2.3849  -2.3644  -2.3293  -2.3082  -2.2781  -2.2430  -2.1457  -2.0821
    -2.0653  -2.0022  -1.9931  -1.9533  -1.9234  -1.9134  -1.8621  -1.8339
    -1.8206  -1.7807  -1.6983  -1.6963  -1.6630  -1.6245  -1.6140  -1.5897
    -1.5740  -1.5186  -1.5080  -1.4786  -1.4187  -1.3870  -1.3706  -1.3576
    -1.3424  -1.3171  -1.3099  -1.2714  -1.2682  -1.2423  -1.2089  -1.1770
    -1.1499  -1.1149  -1.0888  -1.0731  -1.0434  -1.0353  -1.0016  -0.9822
    -0.9709  -0.9583  -0.9322  -0.9116  -0.9033  -0.8822  -0.8483  -0.8374
    -0.8062  -0.7577  -0.7363  -0.7076  -0.6552  -0.6104  -0.5835  -0.4979
    -0.4441  -0.4197  -0.3724  -0.3464  -0.2660  -0.2588  -0.2319  -0.2151
    -0.1824  -0.1691  -0.1495  -0.1155  -0.0812  -0.0475  -0.0107   0.0317
     0.0875   0.1163   0.1676   0.1958   0.2142   0.2395   0.2878   0.3132
     0.3477   0.3999   0.4215   0.4603   0.4711   0.5212   0.5290   0.6026
     0.6299   0.6493   0.6689   0.7022   0.7171   0.7297   0.7462   0.7575
     0.7732   0.7967   0.8368   0.9250   0.9711   1.0001   1.0586   1.1007
     1.1798   1.1967   1.2768   1.2846   1.3126   1.3566   1.3955   1.4191
     1.4300   1.4544   1.4758   1.4882   1.4953   1.5138   1.5291   1.5469
     1.5665   1.6230   1.6637   1.6738   1.7005   1.7179   1.7625   1.8183
     1.8721   1.9213   1.9485   1.9905   2.0247   2.0296   2.1515   2.1762
     2.3544   2.6871   2.7079   2.9817   3.0410   3.2400   3.2531   3.5016
     3.6594   3.9283   4.1035   4.1786   4.1949   4.5278   4.8134   5.0021
     5.3573   5.4670   5.5354   5.6632   5.7528   6.0877   6.1232   6.1710
     6.1972   6.2745

          k = 0.4000-0.2309 0.0000 ( 92784 PWs)   bands (ev):

   -13.2383 -10.6014  -6.9354  -6.5350  -5.9058  -5.3282  -4.8717  -4.8341
    -4.8290  -4.6140  -4.5325  -4.5081  -4.3958  -4.2963  -4.1913  -4.1232
    -4.1066  -4.0831  -3.9611  -3.9488  -3.8949  -3.8787  -3.8627  -3.7619
    -3.7195  -3.7149  -3.6794  -3.6580  -3.6393  -3.5832  -3.5339  -3.5323
    -3.4875  -3.2954  -3.2831  -3.2768  -3.2695  -3.2412  -3.2376  -3.0400
    -3.0290  -3.0074  -2.9988  -2.9928  -2.9589  -2.8036  -2.7270  -2.7102
    -2.6872  -2.6789  -2.6437  -2.6260  -2.5793  -2.5446  -2.5332  -2.4919
    -2.4870  -2.3616  -2.3445  -2.3121  -2.3013  -2.2325  -2.1705  -2.1388
    -2.1182  -2.1035  -1.9893  -1.9502  -1.9331  -1.9093  -1.8876  -1.8477
    -1.8139  -1.7971  -1.7693  -1.7419  -1.6648  -1.6504  -1.6252  -1.5707
    -1.5396  -1.5226  -1.5061  -1.4873  -1.4514  -1.4266  -1.4086  -1.4008
    -1.3890  -1.3706  -1.3658  -1.3380  -1.3035  -1.2865  -1.2395  -1.2277
    -1.2182  -1.1934  -1.1735  -1.1235  -1.0720  -1.0405  -1.0248  -0.9812
    -0.9483  -0.9424  -0.9242  -0.9074  -0.8266  -0.8063  -0.7683  -0.7375
    -0.7080  -0.6722  -0.6598  -0.6268  -0.5791  -0.5035  -0.4764  -0.4296
    -0.4144  -0.3793  -0.3396  -0.3225  -0.3138  -0.2747  -0.2568  -0.2190
    -0.2099  -0.1915  -0.1785  -0.1579  -0.1293  -0.1027  -0.0774  -0.0233
     0.0038   0.0316   0.0626   0.1009   0.1412   0.1708   0.2441   0.2768
     0.3105   0.3501   0.4283   0.4789   0.5101   0.5255   0.5814   0.5910
     0.6079   0.6354   0.6751   0.6992   0.7110   0.7471   0.7795   0.7878
     0.8700   0.8808   0.8948   0.9113   0.9493   0.9669   1.0534   1.0675
     1.1610   1.1660   1.1936   1.1982   1.2486   1.2949   1.2990   1.3298
     1.3864   1.4099   1.4527   1.4640   1.4924   1.4951   1.5773   1.5950
     1.6267   1.6382   1.6519   1.6554   1.6897   1.6961   1.8637   1.8696
     1.8813   1.8870   1.9024   2.0529   2.1223   2.2341   2.3477   2.5730
     2.6170   2.9362   2.9479   3.1575   3.3272   3.3536   3.6286   3.6764
     3.8254   4.1459   4.1630   4.1923   4.3386   4.4756   4.4941   4.7664
     4.7988   5.0456   5.1790   5.4397   5.5378   5.8496   6.0709   6.2312
     6.4148   6.6572

          k = 0.4000-0.0000 0.0000 ( 92746 PWs)   bands (ev):

   -13.2382 -10.6018  -6.9389  -6.6672  -5.4656  -5.4439  -5.4404  -4.7656
    -4.5639  -4.5153  -4.3810  -4.3739  -4.3611  -4.3257  -4.3072  -4.2974
    -4.2763  -4.1846  -4.1667  -4.1296  -3.8218  -3.8075  -3.7820  -3.7777
    -3.7112  -3.6836  -3.5634  -3.5543  -3.5442  -3.5251  -3.5002  -3.4403
    -3.3988  -3.3881  -3.3798  -3.3609  -3.3011  -3.2848  -3.2609  -3.2415
    -3.2049  -3.1406  -2.9000  -2.8228  -2.8111  -2.7837  -2.7689  -2.7444
    -2.7394  -2.7223  -2.6790  -2.6589  -2.5345  -2.5156  -2.4924  -2.4170
    -2.3916  -2.3635  -2.3275  -2.3102  -2.2864  -2.2333  -2.1469  -2.0859
    -2.0548  -2.0126  -1.9805  -1.9531  -1.9253  -1.9102  -1.8704  -1.8361
    -1.8211  -1.7757  -1.7093  -1.6900  -1.6645  -1.6283  -1.6138  -1.5814
    -1.5529  -1.5212  -1.5088  -1.4776  -1.4189  -1.3860  -1.3733  -1.3481
    -1.3426  -1.3280  -1.3104  -1.2792  -1.2662  -1.2361  -1.2196  -1.1843
    -1.1262  -1.1111  -1.0894  -1.0701  -1.0584  -1.0258  -1.0101  -0.9868
    -0.9695  -0.9601  -0.9385  -0.9102  -0.9001  -0.8873  -0.8565  -0.8405
    -0.7972  -0.7515  -0.7340  -0.6982  -0.6689  -0.6097  -0.5886  -0.5148
    -0.4537  -0.4177  -0.3826  -0.3424  -0.2736  -0.2536  -0.2421  -0.2144
    -0.1916  -0.1704  -0.1455  -0.1170  -0.0841  -0.0336  -0.0133   0.0274
     0.0892   0.1186   0.1680   0.2024   0.2204   0.2704   0.2767   0.3107
     0.3316   0.3991   0.4269   0.4504   0.4761   0.5034   0.5446   0.5974
     0.6217   0.6439   0.6609   0.7031   0.7204   0.7278   0.7486   0.7621
     0.7792   0.8085   0.8446   0.9377   0.9603   1.0063   1.0590   1.0884
     1.1834   1.1950   1.2729   1.2867   1.3054   1.3677   1.3975   1.4180
     1.4303   1.4509   1.4750   1.4866   1.4941   1.5116   1.5349   1.5487
     1.5620   1.6220   1.6604   1.6712   1.7009   1.7179   1.7609   1.8163
     1.8780   1.9291   1.9581   2.0000   2.0234   2.0288   2.1507   2.1740
     2.3517   2.6875   2.7105   2.9677   3.0394   3.2441   3.2591   3.4974
     3.6685   3.9322   4.1097   4.1756   4.1903   4.5222   4.8113   5.0182
     5.3573   5.4851   5.5309   5.6479   5.7860   6.0621   6.1269   6.1621
     6.2156   6.3105

          k = 0.4000 0.2309 0.0000 ( 92784 PWs)   bands (ev):

   -13.2381 -10.6023  -6.9367  -6.5309  -5.9022  -5.3164  -4.8876  -4.8309
    -4.7964  -4.6143  -4.5305  -4.4820  -4.4443  -4.3055  -4.1961  -4.1548
    -4.1069  -4.0843  -3.9625  -3.9105  -3.8882  -3.8799  -3.8710  -3.7690
    -3.7169  -3.7062  -3.6751  -3.6596  -3.6421  -3.6074  -3.5469  -3.5360
    -3.5254  -3.2997  -3.2810  -3.2665  -3.2533  -3.2499  -3.2260  -3.0398
    -3.0196  -3.0074  -2.9998  -2.9795  -2.9531  -2.8100  -2.7253  -2.7092
    -2.6919  -2.6692  -2.6413  -2.6185  -2.5677  -2.5474  -2.5321  -2.5027
    -2.4824  -2.3646  -2.3344  -2.3103  -2.2852  -2.2260  -2.1753  -2.1361
    -2.1124  -2.0929  -2.0323  -1.9559  -1.9359  -1.9093  -1.8792  -1.8422
    -1.8190  -1.8006  -1.7720  -1.7115  -1.6727  -1.6391  -1.6185  -1.5879
    -1.5368  -1.5177  -1.4858  -1.4820  -1.4551  -1.4422  -1.4105  -1.3970
    -1.3781  -1.3689  -1.3557  -1.3399  -1.3198  -1.2650  -1.2521  -1.2151
    -1.2117  -1.1942  -1.1578  -1.1267  -1.0616  -1.0495  -1.0338  -1.0173
    -0.9758  -0.9536  -0.9229  -0.9054  -0.8576  -0.8192  -0.7757  -0.7419
    -0.7211  -0.6980  -0.6502  -0.5933  -0.5456  -0.5176  -0.5039  -0.4265
    -0.4053  -0.3900  -0.3605  -0.3083  -0.3020  -0.2783  -0.2562  -0.2303
    -0.2135  -0.1974  -0.1726  -0.1548  -0.1398  -0.1181  -0.0853  -0.0038
     0.0071   0.0351   0.0756   0.1021   0.1318   0.2165   0.2613   0.2778
     0.3192   0.3661   0.4283   0.4603   0.4907   0.5316   0.5647   0.5931
     0.6130   0.6294   0.6615   0.6927   0.7116   0.7528   0.7855   0.8086
     0.8694   0.8880   0.8948   0.9133   0.9372   0.9978   1.0708   1.0845
     1.1361   1.1654   1.1783   1.2054   1.2486   1.2848   1.3137   1.3223
     1.3964   1.4032   1.4521   1.4649   1.4903   1.5007   1.5560   1.6085
     1.6106   1.6444   1.6515   1.6602   1.6851   1.6985   1.8536   1.8682
     1.8771   1.8975   1.9188   2.0470   2.1221   2.1763   2.4093   2.5703
     2.6358   2.9329   2.9547   3.1277   3.2838   3.3358   3.5749   3.6840
     3.9720   4.1595   4.1725   4.2138   4.3465   4.4380   4.4987   4.7428
     4.7948   4.9593   5.2257   5.5021   5.6620   5.7969   6.0482   6.1891
     6.3878   6.5538

          k = 0.4000-0.6928 0.0000 ( 92744 PWs)   bands (ev):

   -13.2381 -10.6023  -6.9338  -6.1413  -6.1348  -5.5346  -5.0292  -4.9235
    -4.6557  -4.5251  -4.5061  -4.3606  -4.3137  -4.2250  -4.1894  -4.0844
    -4.0678  -3.9803  -3.9659  -3.8813  -3.8667  -3.8527  -3.8262  -3.8113
    -3.7881  -3.7707  -3.6682  -3.6491  -3.6439  -3.6014  -3.5944  -3.5340
    -3.4562  -3.3913  -3.3433  -3.2702  -3.2616  -3.2378  -3.2236  -3.1965
    -3.1301  -3.1008  -3.0107  -3.0086  -2.8392  -2.8121  -2.7882  -2.7214
    -2.6678  -2.6390  -2.6176  -2.5369  -2.4919  -2.4465  -2.4308  -2.4048
    -2.3681  -2.3377  -2.3101  -2.2505  -2.2224  -2.2094  -2.1894  -2.1724
    -2.1584  -2.1556  -2.0973  -2.0849  -2.0581  -1.9778  -1.9284  -1.9000
    -1.8780  -1.8300  -1.7945  -1.7418  -1.7291  -1.6961  -1.6652  -1.6539
    -1.6287  -1.5973  -1.5739  -1.5610  -1.5281  -1.4916  -1.4672  -1.4282
    -1.3886  -1.3592  -1.3282  -1.3103  -1.2813  -1.2571  -1.1894  -1.1564
    -1.1212  -1.1042  -1.0852  -1.0762  -1.0560  -1.0343  -1.0237  -1.0115
    -0.9915  -0.9751  -0.9373  -0.9248  -0.8981  -0.8880  -0.8838  -0.8581
    -0.8444  -0.8288  -0.8093  -0.7631  -0.6770  -0.5900  -0.5000  -0.4870
    -0.4628  -0.4296  -0.3839  -0.3652  -0.3338  -0.3168  -0.2814  -0.2580
    -0.2312  -0.2108  -0.1840  -0.1395  -0.1175  -0.0961  -0.0322  -0.0054
     0.0167   0.0728   0.1531   0.1736   0.2171   0.2561   0.2939   0.3138
     0.3574   0.3652   0.3927   0.4131   0.4395   0.4483   0.4952   0.5201
     0.5394   0.5920   0.6107   0.6339   0.6577   0.6969   0.7076   0.7802
     0.7976   0.8274   0.8725   0.9587   0.9982   1.0690   1.1047   1.1251
     1.1504   1.2288   1.2535   1.2880   1.3132   1.3917   1.4201   1.4236
     1.4475   1.4714   1.4808   1.5120   1.5346   1.6002   1.6173   1.6315
     1.6483   1.6636   1.6843   1.6896   1.7590   1.8408   1.8669   1.8914
     1.9123   1.9208   1.9664   1.9852   2.0894   2.2100   2.6446   2.9169
     3.0570   3.0615   3.3132   3.4052   3.4266   3.4528   3.6257   3.9423
     4.0637   4.1078   4.2607   4.5200   4.6163   4.6446   4.7071   4.7639
     4.8895   4.9662   5.1438   5.2432   5.4489   5.5379   5.7723   5.8583
     6.1379   6.1572

          k = 0.4000-0.4619 0.0000 ( 92744 PWs)   bands (ev):

   -13.2382 -10.6018  -6.9333  -6.1607  -6.1209  -5.5294  -5.0516  -4.9419
    -4.6157  -4.5190  -4.5028  -4.3855  -4.2958  -4.2196  -4.1961  -4.0929
    -4.0745  -3.9851  -3.9619  -3.8896  -3.8659  -3.8404  -3.8235  -3.8133
    -3.7793  -3.7420  -3.6838  -3.6458  -3.6315  -3.6079  -3.5990  -3.5241
    -3.4264  -3.3941  -3.3527  -3.2654  -3.2600  -3.2459  -3.2287  -3.2021
    -3.1302  -3.1204  -3.0258  -3.0029  -2.8361  -2.8079  -2.7886  -2.7126
    -2.6774  -2.6437  -2.6137  -2.5307  -2.4952  -2.4492  -2.4329  -2.4119
    -2.3788  -2.3338  -2.3070  -2.2549  -2.2226  -2.2073  -2.1874  -2.1797
    -2.1697  -2.1473  -2.1220  -2.0566  -2.0297  -1.9722  -1.9295  -1.9199
    -1.8605  -1.8327  -1.8070  -1.7607  -1.7450  -1.7078  -1.6794  -1.6710
    -1.6343  -1.5903  -1.5568  -1.5494  -1.5248  -1.4958  -1.4441  -1.4175
    -1.4053  -1.3572  -1.3265  -1.3159  -1.2952  -1.2237  -1.1780  -1.1441
    -1.1395  -1.1227  -1.0932  -1.0761  -1.0626  -1.0413  -1.0108  -1.0038
    -0.9914  -0.9797  -0.9338  -0.9232  -0.9107  -0.8886  -0.8759  -0.8634
    -0.8409  -0.8150  -0.7935  -0.7535  -0.6160  -0.5699  -0.5122  -0.4998
    -0.4809  -0.4359  -0.3955  -0.3583  -0.3348  -0.2945  -0.2809  -0.2614
    -0.2271  -0.2096  -0.1666  -0.1553  -0.1356  -0.0959  -0.0223  -0.0103
     0.0149   0.0722   0.1351   0.1867   0.2258   0.2366   0.2690   0.3045
     0.3333   0.3748   0.4031   0.4172   0.4375   0.4617   0.4877   0.4958
     0.5680   0.5886   0.6275   0.6514   0.6550   0.6777   0.7041   0.7408
     0.8174   0.8321   0.9018   0.9412   0.9990   1.0387   1.1133   1.1344
     1.1878   1.2216   1.2436   1.2539   1.3309   1.3688   1.4118   1.4335
     1.4535   1.4712   1.4850   1.5103   1.5442   1.6095   1.6225   1.6314
     1.6600   1.6721   1.6815   1.6844   1.7593   1.8595   1.8720   1.8805
     1.8925   1.9097   1.9577   1.9787   2.0907   2.1948   2.6342   3.0355
     3.0554   3.1140   3.2160   3.3744   3.4348   3.4610   3.5360   4.0217
     4.0533   4.1782   4.2530   4.4797   4.5420   4.6523   4.6861   4.8422
     4.8786   4.9503   5.0307   5.3842   5.4255   5.4860   5.7964   5.9033
     6.1080   6.1716

     the Fermi energy is     1.6765 ev

!    total energy              =  -27816.11095250 Ry

     total all-electron energy =  -1326876.168647 Ry
     estimated scf accuracy    <       0.00000063 Ry
     smearing contrib. (-TS)   =       0.00254401 Ry
     internal energy E=F+TS    =  -27816.11349651 Ry

     The total energy is F=E-TS. E is the sum of the following terms:
     one-electron contribution =  -29362.95212926 Ry
     hartree contribution      =   14983.03645716 Ry
     xc contribution           =    -907.35982643 Ry
     ewald contribution        =   12964.76359436 Ry
     one-center paw contrib.   =  -25493.60159234 Ry

     convergence has been achieved in  20 iterations

     negative rho (up, down):  1.296E-02 0.000E+00

     Forces acting on atoms (cartesian axes, Ry/au):

     atom    1 type  1   force =    -0.00076535   -0.00071511   -0.00581322
     atom    2 type  1   force =    -0.00090137    0.00017500   -0.00279207
     atom    3 type  1   force =     0.00062449   -0.00026409   -0.00362584
     atom    4 type  1   force =     0.00046415    0.00062268   -0.00590530
     atom    5 type  1   force =    -0.00076022   -0.00025678   -0.00358312
     atom    6 type  1   force =     0.00029881   -0.00033991   -0.00303073
     atom    7 type  1   force =    -0.00015909   -0.00022643   -0.00388800
     atom    8 type  1   force =    -0.00019212    0.00052774   -0.00366538
     atom    9 type  1   force =     0.00023761   -0.00062327   -0.00347877
     atom   10 type  1   force =     0.00106566    0.00031819    0.00056298
     atom   11 type  1   force =    -0.00131319    0.00261596    0.00992768
     atom   12 type  1   force =     0.00042761    0.00069215   -0.00036914
     atom   13 type  1   force =    -0.00004304   -0.00290484    0.00505917
     atom   14 type  1   force =    -0.00028816    0.00064507    0.01197349
     atom   15 type  1   force =     0.00027620   -0.00004932   -0.00022424
     atom   16 type  1   force =     0.00253629    0.00216097    0.00369975
     atom   17 type  1   force =    -0.00199623    0.00040747    0.01003818
     atom   18 type  1   force =    -0.00029351    0.00063333    0.00145866
     atom   19 type  1   force =     0.00034214   -0.00036274    0.00037900
     atom   20 type  1   force =     0.00031287   -0.00038240   -0.00056274
     atom   21 type  1   force =    -0.00001856   -0.00010313   -0.00071861
     atom   22 type  1   force =     0.00003778    0.00015748    0.00017026
     atom   23 type  1   force =    -0.00006565   -0.00031581   -0.00048069
     atom   24 type  1   force =     0.00025205   -0.00031279   -0.00063336
     atom   25 type  1   force =    -0.00015237   -0.00031115    0.00017217
     atom   26 type  1   force =     0.00015234    0.00013999   -0.00030852
     atom   27 type  1   force =     0.00003823   -0.00005019    0.00017927
     atom   28 type  1   force =    -0.00005566   -0.00026370   -0.00015918
     atom   29 type  1   force =     0.00020841   -0.00017166   -0.00004658
     atom   30 type  1   force =    -0.00019397   -0.00036574   -0.00030429
     atom   31 type  1   force =    -0.00010919   -0.00022339   -0.00051542
     atom   32 type  1   force =     0.00063632    0.00023592   -0.00034828
     atom   33 type  1   force =     0.00000860   -0.00039996   -0.00001690
     atom   34 type  1   force =    -0.00020924   -0.00013605   -0.00016420
     atom   35 type  1   force =    -0.00015996   -0.00053930    0.00029312
     atom   36 type  1   force =     0.00016081   -0.00020978   -0.00017540
     atom   37 type  2   force =     0.00025437   -0.00072825    0.00032031
     atom   38 type  2   force =    -0.00211581    0.00128660    0.00060901
     atom   39 type  2   force =    -0.00185965    0.00270087    0.00033573
     atom   40 type  3   force =     0.00036930    0.00080575    0.00036864
     atom   41 type  3   force =    -0.00009396   -0.00030502   -0.00103592
     atom   42 type  3   force =    -0.00021167   -0.00041522   -0.00087730
     atom   43 type  3   force =     0.00325393   -0.00314915   -0.00282423

     Total force =     0.007382     Total SCF correction =     0.000840
     SCF correction compared to forces is large: reduce conv_thr to get better values

     negative rho (up, down):  1.296E-02 0.000E+00

     negative rho (up, down):  1.296E-02 0.000E+00

     negative rho (up, down):  1.296E-02 0.000E+00

     negative rho (up, down):  1.296E-02 0.000E+00

     negative rho (up, down):  1.296E-02 0.000E+00

     negative rho (up, down):  1.296E-02 0.000E+00

     negative rho (up, down):  1.296E-02 0.000E+00

     negative rho (up, down):  1.296E-02 0.000E+00

     negative rho (up, down):  1.296E-02 0.000E+00

     negative rho (up, down):  1.296E-02 0.000E+00

     negative rho (up, down):  1.296E-02 0.000E+00

     negative rho (up, down):  1.296E-02 0.000E+00

     negative rho (up, down):  1.296E-02 0.000E+00

     negative rho (up, down):  1.296E-02 0.000E+00

     negative rho (up, down):  1.296E-02 0.000E+00

     negative rho (up, down):  1.296E-02 0.000E+00

     negative rho (up, down):  1.296E-02 0.000E+00

     negative rho (up, down):  1.296E-02 0.000E+00

     negative rho (up, down):  1.296E-02 0.000E+00

     negative rho (up, down):  1.296E-02 0.000E+00

     negative rho (up, down):  1.296E-02 0.000E+00

     negative rho (up, down):  1.296E-02 0.000E+00

     negative rho (up, down):  1.296E-02 0.000E+00

     negative rho (up, down):  1.296E-02 0.000E+00

     negative rho (up, down):  1.296E-02 0.000E+00

     negative rho (up, down):  1.296E-02 0.000E+00

     negative rho (up, down):  1.296E-02 0.000E+00

     negative rho (up, down):  1.296E-02 0.000E+00

     negative rho (up, down):  1.296E-02 0.000E+00

     negative rho (up, down):  1.296E-02 0.000E+00

     negative rho (up, down):  1.296E-02 0.000E+00

     negative rho (up, down):  1.296E-02 0.000E+00

     negative rho (up, down):  1.296E-02 0.000E+00

     negative rho (up, down):  1.296E-02 0.000E+00
 BEEFens 2000 ensemble energies
             -0.607587520066399E+02
             -0.361652510271270E+01
             -0.158427488757510E+02
              0.429934267027268E+02
             -0.221397064524504E+02
             -0.205363575126223E+02
             -0.352912005959352E+02
             -0.866119578691612E+02
             -0.465114034043529E+02
             -0.472783892749401E+02
             -0.369768444837558E+02
              0.229686388280433E+01
              0.408114530019679E+01
              0.759314637976289E+01
              0.266001300822498E+01
              0.475472610589845E+02
             -0.208860042053037E+02
             -0.229962394049153E+02
              0.193427305417362E+02
             -0.112498942728089E+03
              0.536929803273344E+02
             -0.289925506741729E+02
             -0.335261237810848E+01
             -0.114108058128036E+02
             -0.881003636091839E+01
             -0.461736657591482E+01
              0.883610897489001E+02
             -0.187751303284439E+02
             -0.899664353555727E+01
             -0.519113423687025E+02
              0.815823960765504E+02
             -0.186959142901316E+02
             -0.375392973753941E+02
              0.249196271221211E+02
             -0.284714400486462E+01
              0.164711519751701E+02
             -0.483775636452242E+01
              0.107880408135104E+02
              0.289197260769400E+02
             -0.103348195752534E+03
              0.559033505809256E+02
              0.142565377814889E+02
             -0.176082301592334E+01
             -0.361640733592577E+02
              0.123369003662144E+02
             -0.147190668422132E+02
              0.399087482326811E+02
              0.365085765823064E+02
             -0.308017431374791E+02
             -0.275456215973179E+02
             -0.328898240609120E+02
             -0.352643619405260E+02
              0.136942599700192E+02
             -0.491354668726108E+02
              0.115851953521226E+02
              0.623767268355292E+02
              0.636417195862673E+02
              0.356148013629849E+02
              0.154083336686238E+02
              0.271090631808969E+02
              0.892513073595528E+02
              0.212467347755859E+02
             -0.549080373496314E+02
             -0.157018065567155E+02
             -0.236341788081243E+02
              0.630410830142387E+02
             -0.773831543289347E+02
             -0.672424245171554E+02
             -0.260158410003393E+02
             -0.653573293098225E+01
             -0.470874366063626E+02
              0.271000376252129E+02
              0.802500206280592E+01
              0.869724472463810E+01
             -0.397742384281232E+02
             -0.347247581799675E+02
             -0.542668442733122E+02
              0.390445552255096E+02
             -0.296498253580170E+02
              0.265846420507908E+02
             -0.718204940065017E+01
             -0.318174872327209E+02
             -0.576413670792171E+02
             -0.176740858823992E+02
             -0.907308676863738E+01
             -0.124640878050219E+02
              0.412651720338153E+02
              0.683978276733640E+02
             -0.386150346119085E+02
             -0.795348054312006E+02
             -0.219746837794646E+02
              0.111600127995365E+03
             -0.593196680703405E+02
              0.356437353156568E+02
             -0.959334417399725E+01
             -0.663555942515056E+02
              0.254587949255075E+02
              0.398039269442017E+02
             -0.199111948731535E+02
              0.400462121898036E+02
             -0.296084780083845E+02
             -0.479157204217902E+02
              0.867258404341909E+02
              0.454349199620440E+02
              0.336427808643036E+02
              0.146540767230888E+02
              0.206141205952846E+02
              0.857266479117457E+02
             -0.256967131724004E+02
              0.788429327558703E+01
             -0.142522544226146E+03
              0.181083569471771E+02
             -0.716825406795915E+02
              0.151133335317659E+02
              0.204870236239726E+02
             -0.333400930330729E+02
             -0.557613307266612E+02
              0.652380733108328E+01
             -0.304620085659528E+02
              0.308549430826340E+02
             -0.530338142223481E+02
              0.168886519047885E+01
             -0.357326394153442E+02
             -0.423823967193198E+01
             -0.100859226876096E+01
              0.181847065644327E+02
              0.142915355864830E+01
             -0.650970746291364E+01
              0.591342615455189E+02
              0.909269268081842E+02
              0.484778911833791E+02
              0.830563216097224E+02
             -0.115146552981599E+02
              0.143073179499368E+02
              0.541510519637552E+02
             -0.110396587653684E+02
             -0.736638240588103E+02
             -0.384884515233938E+02
             -0.522363961429856E+02
             -0.276987348070869E+02
              0.327577137636290E+02
             -0.116910555405663E+03
             -0.187346864091504E+02
              0.414655854340716E+02
             -0.386628452284594E+02
             -0.365588070368585E+02
              0.545087006596575E+02
              0.401122661290517E+02
             -0.354290415140890E+02
              0.138494472489670E+02
             -0.273616687743875E+02
              0.343536139746046E+02
              0.444289967399288E+01
              0.210964337725791E+02
             -0.885509019397714E+02
             -0.480521440209029E+02
             -0.996753777906781E+01
              0.319937730880438E+01
             -0.367241493308314E+02
              0.106151572552380E+03
             -0.230830311865334E+02
             -0.398937058579016E+02
              0.389038238973665E+02
             -0.494507749369019E+02
             -0.363913375956696E+02
              0.325253560323832E+02
              0.124753156096901E+02
              0.164805298259449E+02
              0.116974695012648E+02
             -0.132950108917667E+02
              0.225055423826018E+02
              0.590528686269346E+02
             -0.311685471322529E+02
              0.162679397792885E+02
              0.935347926804878E+02
              0.341155745991061E+02
             -0.728228652578048E+01
             -0.189037607547104E+02
              0.153511651016083E+03
             -0.164579903773559E+02
              0.363823489409742E+02
              0.194964197333331E+02
              0.361527179857438E+02
              0.892815051078372E+02
              0.543339594972837E+02
             -0.239552601686654E+01
              0.228182596814192E+02
              0.485601269140406E+02
              0.363842170581867E+02
             -0.526238757188945E+02
              0.936990311508488E+02
             -0.826522885194674E+02
             -0.197949650154691E+02
              0.583228773951352E+02
              0.682418337692758E+01
              0.790440465431016E+01
              0.340842208560171E+02
              0.299274412799305E+02
              0.353890941456714E+02
             -0.638157593503299E+02
              0.286419568503516E+01
             -0.297812323372119E+02
             -0.868829577199401E+01
             -0.147422641225023E+01
             -0.726590926945645E+01
             -0.416039661970575E+01
              0.860162290126815E+02
             -0.101060356758898E+02
             -0.276574759725705E+02
             -0.496099681383836E+01
              0.140169262342901E+02
             -0.564714842840998E+02
             -0.408274109831693E+02
             -0.382322337905555E+02
             -0.631009993443531E+02
             -0.169939269501320E+02
             -0.447871866272993E+02
              0.163415370499156E+02
             -0.237803740844755E+01
             -0.104592865348804E+02
             -0.934591523626244E+01
              0.807466308295847E+01
             -0.242442614804968E+02
              0.690124092166935E+02
             -0.808296762416323E+02
             -0.141234462433934E+02
             -0.173992284261235E+02
              0.181978077082691E+02
              0.215092732179298E+02
             -0.464351958740513E+02
             -0.201870463692669E+02
              0.441377989912205E+02
             -0.276208731145927E+02
              0.187295828318490E+02
              0.382969160269547E+02
             -0.322883359542880E+01
              0.114248657488822E+03
             -0.229767979065334E+02
             -0.341219625358757E+02
              0.576767305161246E+01
             -0.228663548401103E+02
              0.528220962393337E+02
             -0.338046945654682E+02
              0.106791425540320E+02
              0.640692438589109E+02
             -0.126302043535514E+02
              0.120361314766461E+03
              0.126002108737444E+03
             -0.650596800605647E+02
              0.591260430451651E+02
              0.167009877444291E+02
             -0.518435691416601E+02
              0.216110909043111E+02
              0.354749938039617E+02
              0.363417586081719E+02
              0.134273224486083E+01
              0.160177513387650E+02
              0.696771846219095E+02
             -0.247221775136469E+02
              0.181389124120553E+02
              0.739352547309109E+02
             -0.372776905026121E+02
             -0.130294127391730E+02
              0.509449389557506E+02
              0.297810363949942E+02
              0.780899161065993E+02
              0.223284023531284E+02
              0.629001202024716E+01
              0.280590625262870E+02
              0.383811410055128E+02
             -0.472794712447272E+02
              0.334909105820293E+01
              0.130585286711747E+02
              0.114004500882040E+02
              0.220910525218787E+02
             -0.575676848464399E+02
              0.366267687540998E+02
             -0.444257948782584E+02
             -0.347880432438552E+02
              0.178534208904239E+02
             -0.181273489784766E+02
              0.555973742195350E+02
             -0.255758460601625E+02
              0.267160734019207E+02
              0.368497828895527E+02
              0.829917775774404E+02
              0.575147094968282E+02
              0.462319693157501E+02
             -0.105045780789782E+02
             -0.394397950075313E+01
             -0.332406633704456E+02
              0.751712880156093E+02
              0.798005531550479E+02
              0.362427813542018E+02
             -0.192436544489525E+02
              0.512307355877438E+02
             -0.162476908890271E+02
              0.214627948458245E+02
              0.615352257679738E+02
              0.213707142841383E+01
             -0.104452545285877E+02
             -0.282872221686657E+02
             -0.512746543697424E+02
              0.946442962007611E+02
              0.440694372572431E+02
             -0.560023001124738E+02
             -0.966978675377439E+01
              0.249933588705817E+02
             -0.995900597262380E+01
              0.592897601756444E+02
              0.152250353857264E+02
              0.800070050574254E+02
              0.280157660811880E+02
             -0.263862844345316E+02
              0.248880562615022E+02
             -0.502633853863051E+01
             -0.323611095937949E+02
              0.133237035233359E+02
              0.205582636624533E+02
              0.934112015019885E+02
              0.798131727585176E+02
              0.551758487394148E+02
              0.731172374189011E+02
              0.802105317880373E+01
             -0.273970653457541E+02
              0.163323785477259E+02
             -0.368186753121228E+02
             -0.477169160307888E+02
             -0.564023268431952E+02
             -0.266971036315233E+02
             -0.109807720813208E+03
             -0.292063145067553E+02
             -0.838358983247348E+02
              0.210502959833071E+02
             -0.477453754549255E+02
              0.397629487740700E+02
             -0.942742698428821E+02
             -0.330437286123880E+02
              0.548444699065996E+02
              0.207871687330970E+02
             -0.831877088518167E+02
              0.631296579749693E+02
             -0.257215814433325E+02
              0.513018991154172E+02
             -0.242514471805466E+02
             -0.752207363305981E+02
              0.112015310710821E+02
             -0.612047374858701E+02
             -0.167788324060084E+02
             -0.150757196784626E+01
              0.418464579186917E+02
              0.127152152687625E+03
             -0.462027063652280E+02
             -0.362967921337488E+02
             -0.993098123737695E+00
             -0.130200818477548E+02
             -0.823467968599852E+02
             -0.597254437062375E+02
              0.517598199054616E+02
             -0.288913230256595E+02
              0.169853054060317E+02
             -0.489853821787789E+02
             -0.132184457009996E+02
             -0.437628795745713E+02
              0.566079209517630E+02
              0.150808204207596E+02
             -0.231987651663320E+02
             -0.127397564492743E+02
              0.670014607139574E+01
             -0.618798097152268E+01
              0.441912825298850E+02
             -0.252211222852214E+02
              0.282192833091540E+01
              0.339896234401889E+02
              0.171141317829731E+02
             -0.160336408451959E+02
              0.156429467733642E+03
              0.538983922072467E+02
              0.119045399378770E+01
              0.161568630448412E+02
             -0.615518171228203E+02
              0.315481526337605E+02
             -0.722765173002237E+02
             -0.252613246042108E+02
             -0.523405496501715E+02
             -0.220373341865802E+02
              0.570057201903389E+02
             -0.537675201825495E+02
              0.161495829681994E+02
             -0.410973312273165E+01
              0.386463889426591E+01
             -0.434076383063357E+02
             -0.478750025248340E+02
             -0.405015562597771E+01
             -0.424808323353596E+02
             -0.217240915873149E+02
             -0.439020897868935E+02
             -0.119244721199893E+02
             -0.359293352304796E+02
             -0.516982964413322E+02
              0.212729864502199E+02
             -0.209102375160118E+02
              0.188240408018458E+02
              0.974510578396198E+01
             -0.738988891962456E+02
             -0.548476127172380E+02
             -0.399149213630681E+02
              0.354273356968124E+02
              0.268048038808831E+01
             -0.627093241992474E+02
              0.586508511670494E+02
             -0.401637877716777E+02
              0.545832461115464E+02
             -0.290071369092565E+02
             -0.446399426672036E+02
              0.298472866843466E+02
             -0.658496090448692E+02
             -0.380127251096529E+02
              0.673105253535251E+02
              0.204338670214903E+02
             -0.361004014623782E+02
              0.490171540671989E+02
             -0.174239341628211E+02
             -0.323378286270721E+02
             -0.302028663874837E+02
             -0.501289939460023E+02
              0.249953582529934E+02
             -0.934056832686421E+02
             -0.840846643808291E+02
             -0.735999191176074E+01
             -0.307169132332872E+02
             -0.576443124824328E+02
              0.722756695843365E+02
              0.131698021912311E+03
             -0.360861214565514E+02
             -0.257297795960301E+01
             -0.637572975963775E+02
              0.651392333927172E+02
              0.171023209613147E+02
             -0.182160538722285E+02
             -0.410349596738464E+02
              0.148730121117080E+02
             -0.586645305165370E+02
             -0.197916473645397E+02
             -0.905405275630967E+02
              0.337450945827646E+02
              0.168849171802739E+02
              0.182877211660741E+01
             -0.710459237770726E+01
             -0.330464127858054E+02
             -0.761871851414719E+01
              0.125704808393640E+03
             -0.199155103492467E+02
             -0.438237491802952E+02
             -0.684862844855672E+02
              0.109515916926417E+02
             -0.342798525873810E+02
              0.593891259618941E+01
              0.261940371632103E+02
              0.102276820563912E+02
              0.278454741081101E+02
              0.120279128616160E+02
              0.630295439812294E+02
              0.316801506840109E+02
             -0.327167232084163E+02
              0.356734318589453E+02
              0.379828425263291E+02
              0.120987968659320E+02
              0.487342027744440E+02
             -0.225500965687567E+02
              0.766512009334289E+02
              0.172890360408337E+02
             -0.272638278158171E+02
             -0.723732553956776E+01
             -0.186646676012490E+02
              0.261854000591499E+02
             -0.234503706690907E+02
             -0.171138452191229E+00
             -0.850829451424670E+01
              0.810653087447151E+02
              0.500761143953716E+02
             -0.687396325728043E+02
             -0.479051018088791E+01
             -0.555749548480475E+02
             -0.159445101493091E+02
             -0.268510041567017E+02
              0.377948039744047E+01
              0.601458330390887E+00
             -0.258051011349507E+02
              0.818236893532583E+01
             -0.604302034748309E+01
             -0.128413362922847E+02
              0.859991586470781E+02
              0.181837707076664E+02
             -0.808251434204106E+02
             -0.458662650608788E+02
              0.946354516716643E+02
              0.278140790499415E+02
             -0.106945505119904E+02
              0.104690951468225E+03
             -0.194721347548491E+02
             -0.123062295737003E+02
             -0.542016209725818E+01
              0.107637707371310E+02
              0.273121862272162E+02
              0.780532493333428E+01
              0.305690892749556E+02
             -0.187940104130063E+02
             -0.304615534910825E+02
             -0.418475600958425E+02
             -0.477345734968524E+02
              0.464353202777235E+02
              0.126942715221826E+02
              0.388074610560702E+02
              0.133684650968853E+02
              0.856770109032647E+02
              0.156776159625452E+02
             -0.847066301796104E+02
             -0.334815848300229E+02
              0.133519162248620E+02
             -0.303101081846404E+02
              0.627399413426123E+02
             -0.888154296443167E+01
              0.148872500288267E+02
              0.497989600039123E+02
             -0.708391617431175E+02
              0.149902320676546E+03
              0.208945595301730E+02
              0.271635632278586E+02
              0.348160376695621E+02
              0.103609033100260E+02
             -0.155840770622262E+01
              0.358642487210283E+02
             -0.357679691985007E+02
              0.774543048152403E+02
              0.685954084068063E+02
             -0.406549592663917E+02
              0.149654763010579E+02
              0.671074919860085E+02
             -0.224063228560955E+02
              0.154794567253508E+02
              0.435178093840085E+02
              0.422529746641542E+02
             -0.785629264344087E+02
             -0.152620697675474E+02
             -0.356155296660817E+02
             -0.148907315413709E+01
             -0.767718364225437E+01
             -0.539688295429733E+01
             -0.180529600128614E+02
             -0.294393381873604E+02
              0.638843676792315E+01
              0.111660079777943E+02
              0.536264612106432E+02
             -0.391027061715383E+02
              0.375383726292213E+02
              0.439220664618720E+02
             -0.186331702959636E+02
              0.872878303504746E+02
             -0.698735039764410E+02
             -0.103308971836299E+03
             -0.662870527951162E+01
             -0.269679013451298E+01
              0.384202088318534E+01
              0.790651097845050E+02
             -0.106916321027161E+02
              0.417307985495381E+02
              0.444639434162017E+02
              0.385758059714065E+02
             -0.997518675830008E+01
              0.627952345803648E+02
             -0.133844156377288E+02
             -0.308050803092384E+02
             -0.479404834949206E+02
              0.591213260074679E+01
              0.369593299330961E+02
             -0.601856731548469E+01
              0.393151621088408E+02
             -0.175756056408665E+01
              0.655702120517538E+02
              0.187308147858043E+02
              0.100016602880965E+02
             -0.121568670090961E+02
              0.332411681595754E+02
              0.363115145830753E+02
              0.232700791641903E+02
             -0.515898515066482E+00
             -0.551301432384473E+02
              0.261189639053848E+02
              0.175475658638252E+02
              0.402787807252782E+02
              0.272500848616897E+02
              0.373003420028791E+02
             -0.605588520532763E+01
              0.251789941409318E+02
             -0.299091040465628E+02
             -0.197523114779449E+01
             -0.569758518678981E+02
             -0.308320739209325E+02
              0.379285611199745E+02
             -0.936651964591717E+02
              0.294536045466622E+02
              0.184165536118512E+02
              0.841440300953466E+02
             -0.300112860396666E+02
              0.330028018523957E+02
             -0.137816806250657E+02
             -0.464657217127908E+02
             -0.762096688919470E+02
             -0.530795831780243E+01
             -0.861138526409690E+02
              0.199570235436569E+02
             -0.247720077248417E+02
              0.306327414372647E+02
              0.237544662328496E+02
             -0.241692306493539E+02
             -0.265999198164890E+02
              0.391448949463387E+02
             -0.589204666946070E+02
             -0.117009270260891E+02
             -0.196281139583191E+02
              0.213232167221395E+02
             -0.885895157491041E+01
              0.362600930663129E+01
             -0.200661390601639E+02
              0.559456427547634E+02
             -0.440816395328651E+02
              0.787013407084987E+01
              0.586300486321190E+02
             -0.324014312593115E+02
              0.362236505264426E+01
             -0.878862585525758E+01
             -0.669967264820291E+02
             -0.482586936235527E+02
             -0.859293825948816E+01
              0.241323937143496E+02
              0.302960553762978E+02
              0.860165312359169E+01
             -0.418103514471011E+01
              0.151903154959081E+02
             -0.440146680960709E+02
              0.330566623258591E+01
             -0.531795553740920E+02
             -0.325237895059064E+02
              0.475488990652125E+02
             -0.295554592924303E+02
              0.623577255547572E+02
             -0.215194584104993E+02
              0.353881214301540E+02
              0.242067371168073E+02
             -0.644849811608302E+02
             -0.280500117160057E+02
              0.935120789459114E+01
             -0.372625602864481E+02
             -0.340098947025144E+02
             -0.831319628177837E+02
             -0.539881956319191E+02
             -0.511046849108557E+02
             -0.416191219721309E+02
             -0.992964342024237E+00
              0.100119173385936E+02
              0.109094094650112E+01
              0.153867172141027E+02
             -0.550096731757003E+02
              0.142145709298561E+02
              0.257533023680027E+02
             -0.667608311775577E+02
             -0.702578079350593E+02
             -0.431972761822249E+02
             -0.172763293245723E+02
              0.178480011836456E+02
              0.454091933427458E+01
             -0.426222641461701E+02
              0.366304673898187E+02
             -0.216642432232942E+02
              0.518073706315580E+02
             -0.888450588074343E+02
              0.598872255236750E+02
             -0.218065411770855E+01
             -0.369084659805643E+02
             -0.216612537128743E+02
              0.471331934771419E+01
              0.375398940131480E+02
             -0.757137825230577E+02
             -0.120870956603143E+02
             -0.216913630315616E+02
              0.511404499389122E+02
              0.865907200764894E+02
             -0.966744950207732E+02
              0.945096637389020E+02
              0.467891091581479E+02
             -0.726405344511832E+02
             -0.366803385773764E+02
              0.753060932538924E+02
              0.632634334210785E+02
             -0.181541192348682E+02
             -0.464441698916619E+01
              0.736458200643008E+01
              0.650311348529734E+02
             -0.509364543678400E+02
              0.158379551291012E+02
             -0.474542084828667E+01
              0.347791996738097E+02
             -0.747878582306056E+02
             -0.647006027236068E+01
             -0.351148737111355E+02
              0.461346722530253E+02
              0.469156975215562E+02
             -0.863220424540467E+02
             -0.487644703330320E+02
             -0.256376202051664E+02
             -0.340297675094586E+02
             -0.109358259722837E+02
             -0.242675792779260E+02
              0.427956255761957E+02
              0.401514630624389E+02
             -0.562009721017074E+01
             -0.417034513904207E+02
             -0.851813711101959E+02
              0.443981187300407E+02
             -0.523664749405203E+02
[...]
              0.283686398937176E+02
              0.141935309323920E+03
              0.242869732706680E+02
              0.122776628573879E+02
             -0.464721506722677E+02
             -0.638094682945713E+02
             -0.189092092982498E+02
              0.330087037140432E+02
             -0.428108134979095E+01
              0.190587299401498E+02
              0.336666618582261E+02
             -0.586838202481426E+02
              0.222763079859145E+02
              0.581831054366760E+02
              0.553240716113841E+02
             -0.420990453337936E+01
             -0.134066702491748E+01
             -0.993879758338116E+01
             -0.482614368801862E+02
             -0.675788842999473E+02
              0.786037471640420E+02
             -0.524745499219608E+01
             -0.588239976343835E+02
              0.174918535252985E+01
             -0.205729911630675E+02
              0.939262968215161E+02
             -0.216917296601737E+02
             -0.354110547831604E+02
              0.335859877505741E+02
             -0.146065333226709E+02
              0.390117393748733E+02
             -0.232288195752045E+01
              0.101152889795923E+03
              0.490484036018557E+02
             -0.504466414247344E+01
             -0.322499573483712E+02
              0.232702322298405E+02
             -0.529060661165815E+02
             -0.127844081756832E+02
              0.586388669083281E+02
             -0.287996305061375E+02
             -0.438666737026207E+02
             -0.223586062492255E+02
              0.519103155181289E+02
              0.124751827210957E+02
             -0.849482043502472E+02
              0.304231298189386E+02
              0.151840851355492E+02
              0.579624663046241E+01
             -0.513962416141260E+02
             -0.375797859225497E+01
              0.323399964718628E+02
              0.512932184571559E+02
              0.633583394688383E+02
              0.229526334024167E+02
              0.765329227378857E+00
             -0.498804419994340E+02
             -0.510424942478995E+02
             -0.748102025745813E+02
             -0.620323462868646E+01
              0.309383600786884E+02
             -0.376812068571328E+01
              0.547346910122159E+02
             -0.318385308433534E+02
              0.166595600025199E+02
             -0.103233918338700E+02
             -0.289880558506314E+02
              0.586317218356425E+02
              0.792193899477724E+01
              0.605123817481026E+02
              0.509615943942902E+01
              0.265016550029903E+02
             -0.192871270560579E+02
              0.586656293212416E+02
             -0.111939810921703E+02
             -0.110145261599165E+00
             -0.790929872330609E+02
             -0.128275705435617E+02
              0.719618168682442E+02
              0.673504981529729E+02
              0.252356562831327E+02
             -0.130638465037972E+02
              0.347170214637936E+01
             -0.174012488742375E+02
             -0.212963241591439E+01
              0.908892521400749E+02
              0.127657075695708E+01
             -0.190940353501371E+02
             -0.110837692097015E+03
             -0.552545969945661E+02
             -0.375462075042061E+02
             -0.658968835830388E+02
             -0.556228499289489E+02
             -0.683112052220733E+02
             -0.447607840018644E+02
             -0.410890428768281E+02
             -0.452474009402226E+02
              0.483898974688427E+02
             -0.293989605127791E+02
             -0.995378098869911E+02
              0.419245976654835E+02
             -0.260480019989815E+02
             -0.791601485490005E+02
              0.944769399792555E+02
             -0.220068825909105E+02
              0.228029173001603E+02
              0.455243333498561E+02
             -0.128682037696115E+01
              0.254832387064244E+02
              0.470338865804979E+01
              0.420530743721084E+00
             -0.150882865842237E+02
             -0.716636356529475E+02
              0.133277124633797E+02
             -0.129466808663633E+03
              0.625267372381441E+02
             -0.441034389573352E+02
             -0.163368959483303E+02
             -0.158497568309009E+02
              0.719576129771157E+01
             -0.227708949051249E+02
              0.297172342596356E+02
             -0.521250457642699E+02
              0.367342846858002E+02
              0.371539853348062E+02
              0.168113762750441E+02
              0.100739762809147E+02
              0.198079280302278E+02
              0.624910666347370E+01
              0.310392579438256E+02
             -0.797665556004009E+01
             -0.593602519239874E+02
              0.757966245963456E+01
             -0.153110390576867E+02
             -0.194293725659196E+01
              0.507158450767829E+02
             -0.827474466155243E+02
             -0.147582876868165E+01
              0.591192543510203E+00
              0.996948781971105E+01
              0.318662323669821E+02
             -0.123641952478641E+02
              0.836474951771551E+02
              0.487524737740735E+02
             -0.183189404894342E+02
             -0.953967791111978E+01
              0.107854937115420E+01
              0.770164625632452E+02
             -0.586521569048128E+02
             -0.105847495264383E+03
              0.309524533319901E+02
             -0.163392469364491E+02
             -0.139787269081558E+02
              0.130802374258962E+02
              0.769068300368009E+02
              0.464424526334786E+02
             -0.153535341846796E+02
             -0.503678484988283E+02
             -0.552443021992327E+01
              0.306620228508486E+02
             -0.111874772509586E+02
             -0.756572587913483E+02
             -0.275027783545292E+01
             -0.891106197823665E+02
             -0.476249755428324E+02
              0.769692134418374E+02
             -0.484153467203230E+02
             -0.637369855982757E+02
             -0.514763976680337E+02
             -0.350292960017269E+02
              0.341394573596639E+02
              0.822501778181251E+02
             -0.360898555557304E+01
              0.276800517098131E+02
             -0.184166175857215E+02
             -0.694714531929059E+02
              0.465548866164059E+02
             -0.445636413315713E+02
              0.321694674164635E+02
              0.376261919891095E+02
             -0.658871601812609E+01
              0.390441285021103E+02
              0.438485072503148E+02
              0.100830783167670E+03
             -0.155807818501914E+02
             -0.457153103155930E+02
             -0.613419191163817E+02
             -0.124315364890757E+02
             -0.233782044005393E+02
              0.103066751800429E+03
             -0.449453479622617E+02
              0.105319424288911E+02
              0.969658582083707E+01
             -0.264645261312734E+02
             -0.799995598141821E+02
             -0.699669961034783E+01
              0.980887137364537E+02
              0.943619842264111E+01
              0.808462356580674E+01
             -0.527961225791760E+02
             -0.605958482633705E+02
             -0.567896635774530E+01
              0.500819223159078E+02
             -0.222229645610340E+02
              0.108051693153650E+03
             -0.436387036636585E+02
              0.146602962329636E+02
             -0.223877095409858E+02
             -0.719045872836018E+02
              0.169597400336619E+01
             -0.502270544144978E+02
             -0.761326835596467E+02
              0.619513877189405E+01
              0.236625824230777E+01
              0.514641113271280E+02
              0.187656863827293E+02
             -0.324013175351104E+02
              0.230065231362659E+02
             -0.812224125151572E+02
             -0.521973249577408E+02
              0.902572335610284E+02
              0.142070819409110E+02
             -0.187735184563261E+02
             -0.352415893156212E+02
             -0.270446918717880E+01
             -0.589949822418339E+01
              0.831436520847777E+02
              0.418191542705186E+02
             -0.165848788689025E+02
             -0.121471625778323E+02
             -0.427788079506474E+02
             -0.200453735983888E+02
             -0.670359526047569E+02
              0.460262791814551E+02
              0.547303309133792E+01
              0.144767875332039E+02
              0.156549689468354E+02
             -0.598699260139682E+00
             -0.168764454923608E+02
             -0.301732250054418E+01
             -0.100559922921272E+03
             -0.229858345902521E+02
             -0.768060556967094E+01
             -0.948262680331814E+01
              0.546475630859850E+02
              0.624642151726470E+02
              0.165068366154655E+02
             -0.971413568779963E+02
              0.648050652824561E+02
             -0.215170103596610E+02
             -0.377364409645581E+02
             -0.865038107856698E+02
             -0.386826191000569E+02
              0.565499796055649E+02
              0.244783427313002E+02
              0.515862289422057E+01
              0.292728390519281E+02
             -0.565407413856765E+02
             -0.422949931138223E+02
              0.515998903130177E+02
              0.387575195136586E+02
              0.519148152445559E+02
             -0.115432344837203E+01
              0.687826564096031E+01
              0.569913498125745E+02
              0.963561388995633E+02
             -0.300102104635450E+02
              0.323432376513563E+02
             -0.119573414308250E+02
             -0.412538279057688E+02
             -0.314776775333125E+02
             -0.300794967878359E+02
             -0.131532088821474E+02
             -0.523738114501027E+02
             -0.217109995217176E+02
             -0.141270070999677E+03
              0.369143623870012E+02
              0.207150087722145E+02
             -0.395345817029731E+01
             -0.380305444683861E+02
             -0.204168340585286E+02
             -0.527538096623005E+02
              0.151084616210562E+02
              0.820677686936299E+02
             -0.252313648907334E+02
             -0.163260566180205E+02
              0.238399608004802E+02
             -0.490017563069227E+02
              0.881057424649711E+02
              0.154379674476632E+02
              0.226019312773363E+02
              0.490593284378456E+02
              0.316523897003299E+01
              0.542610685954235E+02
              0.143375758923048E+02
             -0.106245435661563E+02
              0.732962030529268E+01
              0.746526411885895E+00
              0.727462140329385E+02
              0.101200157767297E+02
              0.120972686969311E+02
             -0.130232955939713E+02
              0.132414442663060E+02
             -0.911988494421317E+02
             -0.325998724410748E+02
             -0.457958978928797E+02
              0.485416689858811E+02
             -0.291530464415335E+02
             -0.658639864878779E+02
              0.539104965924258E+02
             -0.121997492321666E+02
              0.440307798881738E+02
             -0.899357777287429E+02
              0.231848926090776E+02
              0.856170307449469E+01
              0.585699147949504E+01
             -0.835246068415000E+01
             -0.905197437942684E+01
              0.479841648690479E+02
              0.199464542890496E+01
             -0.475852626650423E+02
             -0.176456074300625E+02
              0.276521701334404E+02
             -0.118021512959720E+03
             -0.930272722882244E+02
              0.395275959296396E+01
              0.118002938460198E+02
             -0.413978408533577E+02
             -0.386961105979697E+01
              0.112173578597628E+03
              0.306446340301214E+02
             -0.571975930646688E+02
              0.925743169338327E+01
             -0.965677191173425E+01
              0.105881771745068E+02
             -0.338209125996967E+02
              0.195856656244517E+02
              0.284771529333119E+02
             -0.300344186313544E+01
              0.108284495752150E+03
             -0.140054512533048E+02
             -0.316126730185630E+02
              0.143508596946978E+02
              0.466895957576760E+02
             -0.355918102142333E+02
             -0.317739098604292E+01
              0.965767326195065E+02
             -0.463084189753147E+01
              0.622156385417237E+02
              0.135599919151088E+02
             -0.900650233591784E+01
             -0.305334986905697E+02
              0.566738405054499E+02
             -0.514800832250796E+02
             -0.219448178692028E+01
             -0.170302625879557E+02
             -0.405418400608612E+02
              0.185071096524355E+02
              0.239729607929158E+02
              0.115858310673777E+02
              0.723600027094676E+00
             -0.385093653482612E+02
              0.215317386507327E+02
             -0.674015557853042E+01
             -0.246543620103641E+02
             -0.210657826515756E+02
              0.203097582176308E+02
             -0.596357362851143E+01
             -0.349583625012116E+02
             -0.106740568049336E+03
              0.103161909516089E+02
              0.248514337670874E+02
             -0.387928950529237E+02
             -0.211297681001062E+02
              0.807872659900966E+02
              0.655353528259838E+01
              0.311528124368429E+02
              0.394170028977726E+01
              0.322403070983868E+02
              0.646320288272716E+01
             -0.373302137200025E+02
             -0.238238521562351E+01
              0.876059312203557E+01
              0.274321743928528E+02
              0.782215430616640E+02
              0.507839605905363E+02
              0.193902833697621E+00
              0.169396427948316E+02
              0.613792645776918E+02
              0.236253456770533E+02
             -0.753191941494699E+02
             -0.273935591534607E+02
              0.150896628976136E+02
              0.563292584738457E+01
              0.255253758646741E+02
             -0.548085269555622E+02
              0.897362058882842E+01
              0.386569854352663E+02
              0.498373644657175E+02
             -0.435253633213512E+02
             -0.686917690357086E+01
             -0.208803079423711E+01
             -0.134041978398106E+02
             -0.365527946008146E+02
             -0.215206096243078E+02
             -0.208289925527004E+01
              0.795043414566101E+01
              0.421781355636030E+02
             -0.308646188171172E+02
              0.826892870427289E+02
              0.327761544057648E+02
              0.220177303462067E+02
              0.333524925585729E+02
              0.323086008801290E+02
              0.346806233050551E+02
              0.537661799848233E+02
             -0.434315446286811E+02
              0.620155723723091E+02
             -0.112385919791767E+03
              0.307591040081229E+02
             -0.106612343862787E+03
              0.855361371924840E+02
              0.691456103415991E+02
             -0.109903130962412E+02
             -0.493495837346975E+02
             -0.429986799802873E+02
             -0.623797561470217E+02
             -0.629442631439600E+02
              0.552399646300783E+02
              0.405853971763343E+02
              0.237038111362209E+02
              0.373702052075611E+02
              0.403924471290396E+02
             -0.382536066902087E+02
             -0.197912700644256E+02
              0.586962921483300E+02
             -0.116239573692412E+02
              0.552299032345676E+02
              0.700303568815036E+02
             -0.556456444272830E+01
             -0.707077093482600E+02
             -0.858329266997202E+00
             -0.247589101670216E+01
             -0.883801257424022E+01
             -0.180425635914622E+01
             -0.653406003794447E+02
             -0.210394509511962E+02
              0.542168632895059E+01
              0.903372942130693E+01
              0.469490792838219E+02
             -0.398314416825774E+02
              0.657345750388465E+02
             -0.425634272084741E+02
              0.210884518033747E+02
              0.350807229660906E+02
 
 BEEF-vdW xc energy contributions
           1 :   -783.395647416698     
           2 :    719.554581269775     
           3 :   -609.033105535523     
           4 :    478.945058084832     
           5 :   -356.841419718456     
           6 :    262.582792009589     
           7 :   -203.832779977806     
           8 :    176.031168854860     
           9 :   -166.431490560157     
          10 :    160.299910394448     
          11 :   -146.741125193873     
          12 :    121.952295058615     
          13 :   -89.0620387434867     
          14 :    55.1832940945387     
          15 :   -27.3801888567208     
          16 :    9.38574945305731     
          17 :  -0.340464030159978     
          18 :   -4.21103430029552     
          19 :    9.79814091483433     
          20 :   -20.3052093864544     
          21 :    36.3005051824198     
          22 :   -55.0693017500889     
          23 :    72.1651129886109     
          24 :   -83.6313732759180     
          25 :    87.7993785894464     
          26 :   -85.8751219489491     
          27 :    81.1511358244347     
          28 :   -77.3186592126143     
          29 :    76.7174207087393     
          30 :   -79.3522957506776     
          31 :   -85.9814132380839     
          32 :   -65.8737939808318     

     Writing output data file ./pwscf.save/
 
     init_run     :    355.78s CPU    360.25s WALL (       1 calls)
     electrons    :  14643.95s CPU  14777.61s WALL (       1 calls)
     forces       :    104.42s CPU    105.66s WALL (       1 calls)

     Called by init_run:
     wfcinit      :    308.37s CPU    311.89s WALL (       1 calls)
     potinit      :     44.36s CPU     44.69s WALL (       1 calls)
     hinit0       :      1.16s CPU      1.19s WALL (       1 calls)

     Called by electrons:
     c_bands      :  12187.89s CPU  12292.18s WALL (      21 calls)
     sum_band     :   1754.79s CPU   1767.70s WALL (      21 calls)
     v_of_rho     :    113.76s CPU    118.21s WALL (      21 calls)
     newd         :     32.60s CPU     44.71s WALL (      21 calls)
     PAW_pot      :    140.41s CPU    140.41s WALL (      21 calls)
     mix_rho      :    459.59s CPU    460.27s WALL (      21 calls)
     vdW_kernel   :     33.46s CPU     33.46s WALL (       1 calls)

     Called by c_bands:
     init_us_2    :     85.47s CPU     85.73s WALL (     572 calls)
     cegterg      :  11316.20s CPU  11420.22s WALL (     273 calls)

     Called by *egterg:
     cdiaghg      :    104.73s CPU    104.77s WALL (    1651 calls)
     h_psi        :   7363.15s CPU   7399.38s WALL (    1677 calls)
     s_psi        :   1180.77s CPU   1180.81s WALL (    1677 calls)
     g_psi        :     17.56s CPU     17.58s WALL (    1391 calls)

     Called by h_psi:
     h_psi:calbec :   1102.98s CPU   1103.09s WALL (    1677 calls)
     vloc_psi     :   5051.24s CPU   5052.82s WALL (    1677 calls)
     add_vuspsi   :   1180.06s CPU   1180.14s WALL (    1677 calls)

     General routines
     calbec       :   1616.87s CPU   1617.03s WALL (    2002 calls)
     fft          :     53.45s CPU     53.47s WALL (    3281 calls)
     ffts         :    145.88s CPU    145.90s WALL (    9474 calls)
     fftw         :   5121.95s CPU   5122.90s WALL (  348866 calls)
 
     Parallel routines
 
     PWSCF        :      4h13m CPU      4h16m WALL

 
   This run was terminated on:   2:56:21   4Jan2023            

=------------------------------------------------------------------------------=
   JOB DONE.
=------------------------------------------------------------------------------=
