
     Program PWSCF v.6.7MaX starts on  3Jan2023 at 22:39:16 

     This program is part of the open-source Quantum ESPRESSO suite
     for quantum simulation of materials; please cite
         "P. Giannozzi et al., J. Phys.:Condens. Matter 21 395502 (2009);
         "P. Giannozzi et al., J. Phys.:Condens. Matter 29 465901 (2017);
          URL http://www.quantum-espresso.org", 
     in publications or presentations arising from this work. More details at
     http://www.quantum-espresso.org/quote

     Parallel version (MPI), running on     1 processors

     MPI processes distributed on     1 nodes
     Reading input from ch2cho-mono-ensemble.in
Warning: card &CELL ignored
Warning: card / ignored

     Current dimensions of program PWSCF are:
     Max number of different atomic species (ntypx) = 10
     Max number of k-points (npk) =  40000
     Max angular momentum in pseudopotentials (lmaxx) =  3
     file Pt.pbe-n-kjpaw_psl.1.0.0.UPF: wavefunction(s)  6S 5D renormalized
     file O.pbe-nl-kjpaw_psl.1.0.0.UPF: wavefunction(s)  2S 2P renormalized
     file C.pbe-n-kjpaw_psl.1.0.0.UPF: wavefunction(s)  2S 2P renormalized
     file H.pbe-kjpaw_psl.1.0.0.UPF: wavefunction(s)  1S renormalized

     **************************************************************************
     Initializing libbeef V0.1.2 with the BEEF-vdW functional.
     Citation: Wellendorff et al., PRB 85, 235149 (2012).
     **************************************************************************


     IMPORTANT: XC functional enforced from input :
     Exchange-correlation= BEEF-VDW
                           (   1   4  43  14   2   0   0)
     Any further DFT definition will be discarded
     Please, verify this is what you really want


     Subspace diagonalization in iterative solution of the eigenvalue problem:
     a serial algorithm will be used

 
     G-vector sticks info
     --------------------
     sticks:   dense  smooth     PW     G-vecs:    dense   smooth      PW
     Sum        4267    4267   1159               725421   725421  102343
 


     bravais-lattice index     =            0
     lattice parameter (alat)  =      16.0349  a.u.
     unit-cell volume          =   11548.4365 (a.u.)^3
     number of atoms/cell      =           42
     number of atomic types    =            4
     number of electrons       =       377.00
     number of Kohn-Sham states=          227
     kinetic-energy cutoff     =      60.0000  Ry
     charge density cutoff     =     240.0000  Ry
     scf convergence threshold =      1.0E-06
     mixing beta               =       0.7000
     number of iterations used =            8  local-TF  mixing
     Exchange-correlation= BEEF-VDW
                           (   1   4  43  14   2   0   0)

     celldm(1)=  16.034858  celldm(2)=   0.000000  celldm(3)=   0.000000
     celldm(4)=   0.000000  celldm(5)=   0.000000  celldm(6)=   0.000000

     crystal axes: (cart. coord. in units of alat)
               a(1) = (   1.000000   0.000000   0.000000 )  
               a(2) = (   0.500000   0.866025   0.000000 )  
               a(3) = (   0.000000   0.000000   3.234426 )  

     reciprocal axes: (cart. coord. in units 2 pi/alat)
               b(1) = (  1.000000 -0.577350  0.000000 )  
               b(2) = (  0.000000  1.154701  0.000000 )  
               b(3) = (  0.000000  0.000000  0.309174 )  


     PseudoPot. # 1 for Pt read from file:
     /users/bkreitz1/quantum-espresso/potentials/Pt.pbe-n-kjpaw_psl.1.0.0.UPF
     MD5 check sum: 04dc8a03c51ece93fc7b5889c2958091
     Pseudo is Projector augmented-wave + core cor, Zval = 10.0
     Generated using 'atomic' code by A. Dal Corso  v.6.7MaX
     Shape of augmentation charge: PSQ
     Using radial grid of 1277 points,  6 beta functions with: 
                l(1) =   0
                l(2) =   0
                l(3) =   1
                l(4) =   1
                l(5) =   2
                l(6) =   2
     Q(r) pseudized with 0 coefficients 


     PseudoPot. # 2 for O  read from file:
     /users/bkreitz1/quantum-espresso/potentials/O.pbe-nl-kjpaw_psl.1.0.0.UPF
     MD5 check sum: eef08af8b58d9ec80f8fdb78829eb7cf
     Pseudo is Projector augmented-wave + core cor, Zval =  6.0
     Generated using 'atomic' code by A. Dal Corso  v.6.7MaX
     Shape of augmentation charge: PSQ
     Using radial grid of 1095 points,  4 beta functions with: 
                l(1) =   0
                l(2) =   0
                l(3) =   1
                l(4) =   1
     Q(r) pseudized with 0 coefficients 


     PseudoPot. # 3 for C  read from file:
     /users/bkreitz1/quantum-espresso/potentials/C.pbe-n-kjpaw_psl.1.0.0.UPF
     MD5 check sum: a169b0ebad56f5ec0d79c4633f80bf22
     Pseudo is Projector augmented-wave + core cor, Zval =  4.0
     Generated using 'atomic' code by A. Dal Corso  v.6.7MaX
     Shape of augmentation charge: PSQ
     Using radial grid of 1073 points,  4 beta functions with: 
                l(1) =   0
                l(2) =   0
                l(3) =   1
                l(4) =   1
     Q(r) pseudized with 0 coefficients 


     PseudoPot. # 4 for H  read from file:
     /users/bkreitz1/quantum-espresso/potentials/H.pbe-kjpaw_psl.1.0.0.UPF
     MD5 check sum: ae98473e6dc62675f0d0baffdab24f65
     Pseudo is Projector augmented-wave, Zval =  1.0
     Generated using 'atomic' code by A. Dal Corso  v.6.7MaX
     Shape of augmentation charge: PSQ
     Using radial grid of  929 points,  2 beta functions with: 
                l(1) =   0
                l(2) =   0
     Q(r) pseudized with 0 coefficients 


     atomic species   valence    mass     pseudopotential
        Pt            10.00   195.08400     Pt( 1.00)
        O              6.00    15.99900     O ( 1.00)
        C              4.00    12.01100     C ( 1.00)
        H              1.00     1.00800     H ( 1.00)

     No symmetry found



   Cartesian axes

     site n.     atom                  positions (alat units)
         1           Pt  tau(   1) = (   0.0000000   0.0000000   1.0017346  )
         2           Pt  tau(   2) = (   0.3333333   0.0000000   1.0017346  )
         3           Pt  tau(   3) = (   0.6666667   0.0000000   1.0017346  )
         4           Pt  tau(   4) = (   0.1666667   0.2886751   1.0017346  )
         5           Pt  tau(   5) = (   0.5000000   0.2886751   1.0017346  )
         6           Pt  tau(   6) = (   0.8333333   0.2886751   1.0017346  )
         7           Pt  tau(   7) = (   0.3333333   0.5773503   1.0017346  )
         8           Pt  tau(   8) = (   0.6666667   0.5773503   1.0017346  )
         9           Pt  tau(   9) = (   1.0000000   0.5773503   1.0017346  )
        10           Pt  tau(  10) = (   0.1666667   0.0962250   1.2739001  )
        11           Pt  tau(  11) = (   0.5000000   0.0962250   1.2739001  )
        12           Pt  tau(  12) = (   0.8333333   0.0962250   1.2739001  )
        13           Pt  tau(  13) = (   0.3333333   0.3849002   1.2739001  )
        14           Pt  tau(  14) = (   0.6666667   0.3849002   1.2739001  )
        15           Pt  tau(  15) = (   1.0000000   0.3849002   1.2739001  )
        16           Pt  tau(  16) = (   0.5000000   0.6735753   1.2739001  )
        17           Pt  tau(  17) = (   0.8333333   0.6735753   1.2739001  )
        18           Pt  tau(  18) = (   1.1666667   0.6735753   1.2739001  )
        19           Pt  tau(  19) = (   0.0021724   0.1907918   1.5414718  )
        20           Pt  tau(  20) = (   0.3354422   0.1909886   1.5423953  )
        21           Pt  tau(  21) = (   0.6683777   0.1880074   1.5467489  )
        22           Pt  tau(  22) = (   0.1685199   0.4799837   1.5415083  )
        23           Pt  tau(  23) = (   0.5016671   0.4789573   1.5414548  )
        24           Pt  tau(  24) = (   0.8347618   0.4798758   1.5406189  )
        25           Pt  tau(  25) = (   0.3327236   0.7696809   1.5473851  )
        26           Pt  tau(  26) = (   0.6684154   0.7683252   1.5410460  )
        27           Pt  tau(  27) = (   1.0037765   0.7694445   1.5470044  )
        28           Pt  tau(  28) = (   0.0052351  -0.0036293   1.8144375  )
        29           Pt  tau(  29) = (   0.3365373  -0.0029404   1.8145135  )
        30           Pt  tau(  30) = (   0.6713066  -0.0041973   1.8425151  )
        31           Pt  tau(  31) = (   0.1705067   0.2850485   1.8146447  )
        32           Pt  tau(  32) = (   0.5037499   0.2853497   1.8174031  )
        33           Pt  tau(  33) = (   0.8376818   0.2869315   1.8130382  )
        34           Pt  tau(  34) = (   0.3381514   0.5726480   1.8142282  )
        35           Pt  tau(  35) = (   0.6702392   0.5737483   1.8138646  )
        36           Pt  tau(  36) = (   1.0036512   0.5726476   1.8139428  )
        37           O   tau(  37) = (   0.7850050   0.2013570   2.2326914  )
        38           C   tau(  38) = (   0.6728091   0.1499507   2.1571264  )
        39           C   tau(  39) = (   0.6632397  -0.0133547   2.0909817  )
        40           H   tau(  40) = (   0.5663676   0.2266433   2.1341616  )
        41           H   tau(  41) = (   0.5483909  -0.0672628   2.1199120  )
        42           H   tau(  42) = (   0.7619856  -0.0870043   2.1315267  )

     number of k points=    13  Marzari-Vanderbilt smearing, width (Ry)=  0.0200
                       cart. coord. in units 2pi/alat
        k(    1) = (   0.0000000   0.0000000   0.0000000), wk =   0.0800000
        k(    2) = (   0.0000000   0.2309401   0.0000000), wk =   0.1600000
        k(    3) = (   0.0000000   0.4618802   0.0000000), wk =   0.1600000
        k(    4) = (   0.2000000  -0.1154701   0.0000000), wk =   0.1600000
        k(    5) = (   0.2000000   0.1154701   0.0000000), wk =   0.1600000
        k(    6) = (   0.2000000   0.3464102   0.0000000), wk =   0.1600000
        k(    7) = (   0.2000000  -0.5773503   0.0000000), wk =   0.1600000
        k(    8) = (   0.2000000  -0.3464102   0.0000000), wk =   0.1600000
        k(    9) = (   0.4000000  -0.2309401   0.0000000), wk =   0.1600000
        k(   10) = (   0.4000000  -0.0000000   0.0000000), wk =   0.1600000
        k(   11) = (   0.4000000   0.2309401   0.0000000), wk =   0.1600000
        k(   12) = (   0.4000000  -0.6928203   0.0000000), wk =   0.1600000
        k(   13) = (   0.4000000  -0.4618802   0.0000000), wk =   0.1600000

     Dense  grid:   725421 G-vectors     FFT dimensions: (  80,  80, 256)

     Estimated max dynamical RAM per process >       8.84 GB

     Check: negative core charge=   -0.000002

     Initial potential from superposition of free atoms

     starting charge  376.99378, renormalised to  377.00000

     negative rho (up, down):  1.209E-02 0.000E+00


     %%%%%%%%%%%%%%%%%%%%%%%%%%%%%%%%%%%%%%%%%%%%%%%%%%%%%%%%%%%%%%%%%%%%%%%%
     %                                                                      %
     % You are using vdW-DF, which was implemented by the Thonhauser group. %
     % Please cite the following two papers that made this development      %
     % possible and the two reviews that describe the various versions:     %
     %                                                                      %
     %   T. Thonhauser et al., PRL 115, 136402 (2015).                      %
     %   T. Thonhauser et al., PRB 76, 125112 (2007).                       %
     %   K. Berland et al., Rep. Prog. Phys. 78, 066501 (2015).             %
     %   D.C. Langreth et al., J. Phys.: Condens. Matter 21, 084203 (2009). %
     %                                                                      %
     %                                                                      %
     % If you are calculating the stress with vdW-DF, please also cite:     %
     %                                                                      %
     %   R. Sabatini et al., J. Phys.: Condens. Matter 24, 424209 (2012).   %
     %                                                                      %
     %%%%%%%%%%%%%%%%%%%%%%%%%%%%%%%%%%%%%%%%%%%%%%%%%%%%%%%%%%%%%%%%%%%%%%%%


     Starting wfcs are  339 randomized atomic wfcs
     Checking if some PAW data can be deallocated... 

     total cpu time spent up to now is      350.9 secs

     Self-consistent Calculation

     iteration #  1     ecut=    60.00 Ry     beta= 0.70
     Davidson diagonalization with overlap
     ethr =  1.00E-02,  avg # of iterations =  2.3

     negative rho (up, down):  1.613E-02 0.000E+00

     total cpu time spent up to now is      987.8 secs

     total energy              =  -27837.67008531 Ry
     estimated scf accuracy    <       3.89201786 Ry

     iteration #  2     ecut=    60.00 Ry     beta= 0.70
     Davidson diagonalization with overlap
     ethr =  1.03E-03,  avg # of iterations =  2.2

     negative rho (up, down):  1.454E-02 0.000E+00

     total cpu time spent up to now is     1667.1 secs

     total energy              =  -27838.20376221 Ry
     estimated scf accuracy    <       1.02578136 Ry

     iteration #  3     ecut=    60.00 Ry     beta= 0.70
     Davidson diagonalization with overlap
     ethr =  2.72E-04,  avg # of iterations =  6.8

     negative rho (up, down):  1.200E-02 0.000E+00

     total cpu time spent up to now is     2431.2 secs

     total energy              =  -27838.31369837 Ry
     estimated scf accuracy    <       0.46110096 Ry

     iteration #  4     ecut=    60.00 Ry     beta= 0.70
     Davidson diagonalization with overlap
     ethr =  1.22E-04,  avg # of iterations =  6.7

     negative rho (up, down):  1.049E-02 0.000E+00

     total cpu time spent up to now is     3158.3 secs

     total energy              =  -27838.36813175 Ry
     estimated scf accuracy    <       0.10575402 Ry

     iteration #  5     ecut=    60.00 Ry     beta= 0.70
     Davidson diagonalization with overlap
     c_bands:  1 eigenvalues not converged
     ethr =  2.81E-05,  avg # of iterations =  9.0

     negative rho (up, down):  1.020E-02 0.000E+00

     total cpu time spent up to now is     4101.2 secs

     total energy              =  -27838.39247873 Ry
     estimated scf accuracy    <       0.03737869 Ry

     iteration #  6     ecut=    60.00 Ry     beta= 0.70
     Davidson diagonalization with overlap
     ethr =  9.91E-06,  avg # of iterations =  8.6

     negative rho (up, down):  1.141E-02 0.000E+00

     total cpu time spent up to now is     4865.7 secs

     total energy              =  -27838.39602964 Ry
     estimated scf accuracy    <       0.03708690 Ry

     iteration #  7     ecut=    60.00 Ry     beta= 0.70
     Davidson diagonalization with overlap
     c_bands:  1 eigenvalues not converged
     ethr =  9.84E-06,  avg # of iterations =  4.7

     negative rho (up, down):  1.363E-02 0.000E+00

     total cpu time spent up to now is     5499.8 secs

     total energy              =  -27838.39580144 Ry
     estimated scf accuracy    <       0.01552894 Ry

     iteration #  8     ecut=    60.00 Ry     beta= 0.70
     Davidson diagonalization with overlap
     c_bands:  1 eigenvalues not converged
     c_bands:  1 eigenvalues not converged
     ethr =  4.12E-06,  avg # of iterations = 11.1

     negative rho (up, down):  1.562E-02 0.000E+00

     total cpu time spent up to now is     6211.9 secs

     total energy              =  -27838.39631629 Ry
     estimated scf accuracy    <       0.01183845 Ry

     iteration #  9     ecut=    60.00 Ry     beta= 0.70
     Davidson diagonalization with overlap
     ethr =  3.14E-06,  avg # of iterations =  4.0

     negative rho (up, down):  1.724E-02 0.000E+00

     total cpu time spent up to now is     6827.8 secs

     total energy              =  -27838.39649375 Ry
     estimated scf accuracy    <       0.00440048 Ry

     iteration # 10     ecut=    60.00 Ry     beta= 0.70
     Davidson diagonalization with overlap
     c_bands:  1 eigenvalues not converged
     ethr =  1.17E-06,  avg # of iterations =  4.9

     negative rho (up, down):  1.807E-02 0.000E+00

     total cpu time spent up to now is     7480.0 secs

     total energy              =  -27838.39662284 Ry
     estimated scf accuracy    <       0.00152629 Ry

     iteration # 11     ecut=    60.00 Ry     beta= 0.70
     Davidson diagonalization with overlap
     ethr =  4.05E-07,  avg # of iterations =  4.1

     negative rho (up, down):  1.743E-02 0.000E+00

     total cpu time spent up to now is     8163.4 secs

     total energy              =  -27838.39680038 Ry
     estimated scf accuracy    <       0.00016972 Ry

     iteration # 12     ecut=    60.00 Ry     beta= 0.70
     Davidson diagonalization with overlap
     ethr =  4.50E-08,  avg # of iterations =  5.2

     negative rho (up, down):  1.690E-02 0.000E+00

     total cpu time spent up to now is     9244.4 secs

     total energy              =  -27838.39691797 Ry
     estimated scf accuracy    <       0.00011363 Ry

     iteration # 13     ecut=    60.00 Ry     beta= 0.70
     Davidson diagonalization with overlap
     ethr =  3.01E-08,  avg # of iterations =  3.5

     negative rho (up, down):  1.630E-02 0.000E+00

     total cpu time spent up to now is     9851.0 secs

     total energy              =  -27838.39691661 Ry
     estimated scf accuracy    <       0.00004370 Ry

     iteration # 14     ecut=    60.00 Ry     beta= 0.70
     Davidson diagonalization with overlap
     ethr =  1.16E-08,  avg # of iterations =  1.6

     negative rho (up, down):  1.558E-02 0.000E+00

     total cpu time spent up to now is    10437.5 secs

     total energy              =  -27838.39691310 Ry
     estimated scf accuracy    <       0.00002812 Ry

     iteration # 15     ecut=    60.00 Ry     beta= 0.70
     Davidson diagonalization with overlap
     ethr =  7.46E-09,  avg # of iterations =  2.0

     negative rho (up, down):  1.526E-02 0.000E+00

     total cpu time spent up to now is    11046.3 secs

     total energy              =  -27838.39691368 Ry
     estimated scf accuracy    <       0.00001101 Ry

     iteration # 16     ecut=    60.00 Ry     beta= 0.70
     Davidson diagonalization with overlap
     ethr =  2.92E-09,  avg # of iterations =  2.0

     negative rho (up, down):  1.484E-02 0.000E+00

     total cpu time spent up to now is    11663.8 secs

     total energy              =  -27838.39691270 Ry
     estimated scf accuracy    <       0.00001044 Ry

     iteration # 17     ecut=    60.00 Ry     beta= 0.70
     Davidson diagonalization with overlap
     ethr =  2.77E-09,  avg # of iterations =  1.9

     negative rho (up, down):  1.444E-02 0.000E+00

     total cpu time spent up to now is    12261.4 secs

     total energy              =  -27838.39691254 Ry
     estimated scf accuracy    <       0.00000761 Ry

     iteration # 18     ecut=    60.00 Ry     beta= 0.70
     Davidson diagonalization with overlap
     ethr =  2.02E-09,  avg # of iterations =  1.0

     negative rho (up, down):  1.379E-02 0.000E+00

     total cpu time spent up to now is    12819.9 secs

     total energy              =  -27838.39691272 Ry
     estimated scf accuracy    <       0.00000595 Ry

     iteration # 19     ecut=    60.00 Ry     beta= 0.70
     Davidson diagonalization with overlap
     ethr =  1.58E-09,  avg # of iterations =  1.0

     negative rho (up, down):  1.359E-02 0.000E+00

     total cpu time spent up to now is    13376.7 secs

     total energy              =  -27838.39691266 Ry
     estimated scf accuracy    <       0.00000212 Ry

     iteration # 20     ecut=    60.00 Ry     beta= 0.70
     Davidson diagonalization with overlap
     ethr =  5.64E-10,  avg # of iterations =  2.0

     negative rho (up, down):  1.324E-02 0.000E+00

     total cpu time spent up to now is    13988.4 secs

     total energy              =  -27838.39691316 Ry
     estimated scf accuracy    <       0.00000177 Ry

     iteration # 21     ecut=    60.00 Ry     beta= 0.70
     Davidson diagonalization with overlap
     ethr =  4.69E-10,  avg # of iterations =  1.0

     negative rho (up, down):  1.313E-02 0.000E+00

     total cpu time spent up to now is    14522.1 secs

     End of self-consistent calculation

          k = 0.0000 0.0000 0.0000 ( 90643 PWs)   bands (ev):

   -19.3591 -11.7335  -7.4420  -7.2863  -5.9986  -4.9854  -4.8941  -4.8913
    -4.8817  -4.8696  -4.8635  -4.8455  -4.8352  -4.8241  -4.3383  -4.3229
    -4.3191  -4.3160  -4.3018  -4.2984  -3.9180  -3.8950  -3.8559  -3.8527
    -3.8429  -3.8310  -3.8283  -3.7265  -3.6350  -3.6304  -3.6238  -3.6194
    -3.6182  -3.4793  -3.4058  -3.4038  -3.4031  -3.3929  -3.3886  -3.3872
    -3.3810  -3.3684  -3.3538  -3.3433  -3.3268  -3.3140  -2.9626  -2.7800
    -2.7775  -2.7636  -2.7584  -2.7456  -2.6981  -2.6954  -2.6894  -2.6746
    -2.6353  -2.5560  -2.5370  -2.4776  -2.4595  -2.0871  -1.9591  -1.9549
    -1.9468  -1.9255  -1.9115  -1.8968  -1.8264  -1.7936  -1.7863  -1.7814
    -1.7764  -1.7580  -1.7497  -1.7371  -1.7298  -1.7273  -1.7088  -1.7027
    -1.6977  -1.6761  -1.6715  -1.6250  -1.5499  -1.5453  -1.5403  -1.5300
    -1.5268  -1.3954  -1.3905  -1.3734  -1.3462  -1.3337  -1.3300  -1.2891
    -1.2834  -1.2350  -1.2205  -1.1983  -1.1759  -1.1729  -1.1070  -1.1067
    -1.0675  -1.0663  -1.0319  -1.0180  -0.9384  -0.9159  -0.9076  -0.8980
    -0.8863  -0.8741  -0.5311  -0.4770  -0.4706  -0.4403  -0.4281  -0.4246
    -0.4156  -0.4082  -0.3522  -0.3482  -0.3411  -0.2849  -0.2685  -0.2607
    -0.2476  -0.1366  -0.1105  -0.1060  -0.0515  -0.0282  -0.0117   0.0133
     0.0424   0.0505   0.0758   0.0820   0.0944   0.2792   0.3040   0.3113
     0.3159   0.3227   0.3466   0.3795   0.3889   0.5618   0.5748   0.5786
     0.5931   0.5984   0.6450   0.7004   0.7307   0.7342   0.7466   0.7544
     0.7643   0.7854   0.7950   0.7964   0.7990   0.8044   0.8256   0.8911
     0.9042   0.9163   0.9213   0.9278   0.9466   0.9753   0.9972   1.0131
     1.0208   1.0306   1.0399   1.0504   1.0610   1.0701   1.0867   1.1402
     1.1415   1.1589   1.1597   1.1661   1.1716   1.1878   1.2597   1.2635
     1.2655   1.2890   1.2979   1.3088   1.4606   1.4877   1.5660   1.5749
     1.6002   1.6107   1.6111   1.6226   1.8843   2.4632   2.4835   2.4941
     2.5054   2.5229   2.5356   3.6447   4.7493   4.7957   4.8046   4.8323
     4.8607   5.1979   5.8720   6.3547   6.3693   6.3958   6.4141   6.4305
     6.4383   6.5195   6.6087

          k = 0.0000 0.2309 0.0000 ( 90596 PWs)   bands (ev):

   -19.3591 -11.7334  -7.4425  -7.1398  -5.8543  -5.3855  -4.9969  -4.9763
    -4.9293  -4.7576  -4.7229  -4.6813  -4.6306  -4.6199  -4.4407  -4.4008
    -4.2698  -4.2505  -4.2458  -4.2314  -3.9551  -3.9114  -3.8388  -3.8183
    -3.8078  -3.7929  -3.7644  -3.7215  -3.6971  -3.6645  -3.6512  -3.6291
    -3.5926  -3.5603  -3.5355  -3.5026  -3.4300  -3.4216  -3.3837  -3.3691
    -3.3286  -3.2093  -3.1893  -3.1814  -3.1571  -3.1367  -2.9834  -2.9043
    -2.8927  -2.8622  -2.8265  -2.8151  -2.7812  -2.7321  -2.6151  -2.5758
    -2.5340  -2.5207  -2.4915  -2.4688  -2.4497  -2.2497  -2.1717  -2.1443
    -2.0933  -2.0505  -2.0334  -2.0106  -1.9684  -1.9436  -1.9294  -1.9156
    -1.9083  -1.8543  -1.8245  -1.7730  -1.7613  -1.7510  -1.7297  -1.6841
    -1.6720  -1.6432  -1.6016  -1.5820  -1.5618  -1.4983  -1.4882  -1.4758
    -1.4642  -1.4112  -1.3910  -1.3812  -1.3695  -1.3556  -1.3174  -1.3018
    -1.2745  -1.2475  -1.2345  -1.1934  -1.1912  -1.1512  -1.1445  -1.1272
    -1.1023  -1.0735  -1.0532  -0.9693  -0.9406  -0.9304  -0.9227  -0.9115
    -0.8847  -0.8562  -0.8465  -0.8194  -0.8101  -0.7892  -0.7056  -0.6919
    -0.5038  -0.4976  -0.4632  -0.4179  -0.4043  -0.3879  -0.3751  -0.3534
    -0.3294  -0.2100  -0.2028  -0.1378  -0.0734  -0.0563  -0.0220   0.0079
     0.0215   0.0605   0.0733   0.1027   0.1206   0.1693   0.1845   0.2086
     0.2196   0.2412   0.3784   0.3917   0.4275   0.4375   0.4640   0.4745
     0.5072   0.5353   0.5759   0.5913   0.6153   0.6242   0.6778   0.6995
     0.7063   0.7237   0.8034   0.8185   0.8379   0.8801   0.9231   0.9408
     0.9568   0.9708   1.0039   1.0128   1.0410   1.0467   1.1071   1.1380
     1.1409   1.1881   1.2004   1.2128   1.2425   1.2441   1.2534   1.2557
     1.2665   1.3150   1.3240   1.4528   1.4598   1.4997   1.5111   1.5150
     1.5337   1.5678   1.5885   1.5957   1.6167   1.6642   1.7116   1.7287
     1.7375   1.8903   1.8997   1.9183   1.9643   2.2260   2.3840   2.7111
     3.0987   3.1020   3.2346   3.6798   4.2069   4.5336   4.8403   5.1865
     5.2253   5.3225   5.3845   5.5606   5.9592   6.1847   6.2904   6.4766
     6.5856   6.6052   6.6593

          k = 0.0000 0.4619 0.0000 ( 90646 PWs)   bands (ev):

   -19.3591 -11.7333  -7.4434  -6.7178  -6.0837  -5.4507  -5.0279  -5.0113
    -4.9434  -4.8640  -4.6552  -4.4929  -4.3784  -4.3426  -4.2913  -4.2836
    -4.1548  -4.1275  -4.0899  -4.0715  -4.0579  -3.9692  -3.9226  -3.9063
    -3.8955  -3.8609  -3.8441  -3.8062  -3.7872  -3.7220  -3.7120  -3.6964
    -3.6064  -3.4545  -3.4474  -3.4411  -3.4358  -3.4086  -3.3839  -3.2035
    -3.1904  -3.1625  -3.1601  -3.1483  -3.1154  -2.9728  -2.9449  -2.8674
    -2.8553  -2.8403  -2.8298  -2.7861  -2.7614  -2.7138  -2.6986  -2.6906
    -2.6456  -2.6238  -2.5028  -2.4832  -2.4731  -2.4405  -2.3411  -2.3185
    -2.2840  -2.2647  -2.2488  -2.1249  -2.0768  -2.0569  -2.0388  -2.0219
    -1.9858  -1.9633  -1.9336  -1.8975  -1.8316  -1.8097  -1.7802  -1.7402
    -1.6788  -1.6634  -1.6529  -1.6469  -1.6243  -1.5762  -1.5614  -1.5566
    -1.5483  -1.5347  -1.5185  -1.5045  -1.4928  -1.4370  -1.3985  -1.3917
    -1.3669  -1.3539  -1.3267  -1.3032  -1.2265  -1.2251  -1.1742  -1.1410
    -1.1265  -1.0956  -1.0768  -1.0598  -1.0538  -0.9697  -0.9298  -0.9080
    -0.8610  -0.8344  -0.7985  -0.7531  -0.6689  -0.6638  -0.6238  -0.5835
    -0.5314  -0.5134  -0.4846  -0.4502  -0.4428  -0.4378  -0.4156  -0.3665
    -0.3614  -0.3466  -0.3227  -0.3159  -0.2954  -0.2582  -0.2316  -0.2241
    -0.1366  -0.1235  -0.0884  -0.0560  -0.0086   0.0601   0.0842   0.0863
     0.2016   0.2090   0.2925   0.3383   0.3718   0.3906   0.4042   0.4233
     0.4631   0.4889   0.5223   0.5408   0.5869   0.6056   0.6302   0.7015
     0.7160   0.7362   0.7519   0.7705   0.7905   0.8523   0.8829   0.9648
     0.9867   1.0107   1.0341   1.0420   1.0582   1.1374   1.1674   1.1846
     1.2455   1.2521   1.2672   1.3225   1.3345   1.3424   1.3656   1.4422
     1.4637   1.4901   1.5023   1.5263   1.5281   1.5351   1.5526   1.7106
     1.7252   1.7457   1.7651   1.7788   1.9237   1.9757   2.1083   2.3873
     2.4209   2.5349   2.7882   2.8027   3.0434   3.1897   3.2031   3.5403
     3.5868   4.0020   4.0150   4.0611   4.2311   4.2995   4.3166   4.4298
     4.6466   4.6723   4.8608   5.2641   5.4052   5.5649   5.8510   6.0262
     6.3365   6.5387   6.7917

          k = 0.2000-0.1155 0.0000 ( 90596 PWs)   bands (ev):

   -19.3591 -11.7334  -7.4421  -7.1398  -5.8546  -5.3787  -4.9971  -4.9838
    -4.9333  -4.7562  -4.7214  -4.6673  -4.6356  -4.6290  -4.4456  -4.4044
    -4.2639  -4.2479  -4.2385  -4.2283  -3.9665  -3.9009  -3.8505  -3.8184
    -3.8086  -3.7898  -3.7530  -3.7237  -3.6967  -3.6648  -3.6480  -3.6237
    -3.5911  -3.5588  -3.5433  -3.5064  -3.4220  -3.4189  -3.3832  -3.3741
    -3.3291  -3.2087  -3.1912  -3.1848  -3.1564  -3.1521  -3.0007  -2.9116
    -2.8994  -2.8342  -2.8241  -2.7885  -2.7770  -2.7469  -2.6239  -2.5855
    -2.5404  -2.5247  -2.4896  -2.4623  -2.4439  -2.2567  -2.1790  -2.1455
    -2.0953  -2.0744  -2.0491  -2.0098  -1.9650  -1.9374  -1.9272  -1.9073
    -1.9032  -1.8503  -1.8275  -1.7800  -1.7631  -1.7547  -1.7106  -1.6769
    -1.6413  -1.6260  -1.6054  -1.5906  -1.5620  -1.5086  -1.5043  -1.4902
    -1.4702  -1.4265  -1.3793  -1.3762  -1.3689  -1.3534  -1.3132  -1.3080
    -1.2672  -1.2321  -1.2261  -1.2089  -1.1912  -1.1531  -1.1434  -1.1248
    -1.0970  -1.0733  -1.0565  -0.9721  -0.9410  -0.9243  -0.9199  -0.9008
    -0.8863  -0.8534  -0.8467  -0.8209  -0.8117  -0.7799  -0.7264  -0.6685
    -0.5268  -0.5151  -0.4643  -0.4204  -0.3936  -0.3762  -0.3710  -0.3465
    -0.3240  -0.2039  -0.1982  -0.1495  -0.0664  -0.0466  -0.0363   0.0182
     0.0219   0.0570   0.0915   0.1040   0.1140   0.1663   0.1956   0.2050
     0.2174   0.2255   0.3808   0.4000   0.4264   0.4348   0.4586   0.4890
     0.5030   0.5583   0.5766   0.5945   0.6140   0.6238   0.6725   0.6926
     0.6998   0.7203   0.7660   0.8139   0.8389   0.8815   0.9103   0.9426
     0.9627   0.9797   1.0065   1.0207   1.0363   1.0541   1.1142   1.1360
     1.1669   1.1899   1.1994   1.2119   1.2418   1.2447   1.2514   1.2550
     1.2663   1.3204   1.3365   1.4531   1.4610   1.4973   1.5088   1.5124
     1.5232   1.5572   1.5790   1.5878   1.6085   1.6764   1.7129   1.7251
     1.7373   1.8847   1.9010   1.9109   1.9665   2.2218   2.3663   2.7109
     3.1003   3.1205   3.2261   3.6791   4.2443   4.5209   4.7908   5.2063
     5.2253   5.2763   5.4173   5.6236   5.9596   6.1961   6.2466   6.5423
     6.5771   6.5998   6.6246

          k = 0.2000 0.1155 0.0000 ( 90596 PWs)   bands (ev):

   -19.3591 -11.7334  -7.4412  -7.1404  -5.8551  -5.3856  -4.9915  -4.9766
    -4.9379  -4.7568  -4.7225  -4.6746  -4.6352  -4.6214  -4.4449  -4.4020
    -4.2632  -4.2525  -4.2422  -4.2302  -3.9586  -3.9141  -3.8472  -3.8160
    -3.8115  -3.7975  -3.7366  -3.7236  -3.6857  -3.6652  -3.6524  -3.6243
    -3.6016  -3.5648  -3.5360  -3.5042  -3.4305  -3.4180  -3.3886  -3.3708
    -3.3390  -3.2103  -3.1884  -3.1814  -3.1563  -3.1393  -2.9721  -2.9069
    -2.8862  -2.8629  -2.8314  -2.8049  -2.7817  -2.7438  -2.6103  -2.5848
    -2.5312  -2.5207  -2.4873  -2.4695  -2.4496  -2.2505  -2.1745  -2.1460
    -2.0913  -2.0599  -2.0358  -2.0002  -1.9693  -1.9468  -1.9315  -1.9120
    -1.9104  -1.8540  -1.8294  -1.7727  -1.7637  -1.7470  -1.7242  -1.6784
    -1.6682  -1.6400  -1.6020  -1.5890  -1.5572  -1.4982  -1.4870  -1.4789
    -1.4665  -1.4123  -1.3937  -1.3794  -1.3719  -1.3581  -1.3156  -1.3112
    -1.2699  -1.2436  -1.2296  -1.1969  -1.1894  -1.1539  -1.1446  -1.1237
    -1.0998  -1.0741  -1.0560  -0.9673  -0.9373  -0.9315  -0.9210  -0.9125
    -0.8841  -0.8511  -0.8443  -0.8184  -0.8130  -0.7793  -0.7245  -0.6842
    -0.5137  -0.5044  -0.4653  -0.4221  -0.3929  -0.3838  -0.3724  -0.3536
    -0.3273  -0.2096  -0.1925  -0.1512  -0.0740  -0.0545  -0.0250   0.0103
     0.0235   0.0574   0.0838   0.1049   0.1138   0.1695   0.1885   0.2041
     0.2164   0.2382   0.3733   0.3867   0.4298   0.4420   0.4572   0.4755
     0.5021   0.5573   0.5791   0.6040   0.6135   0.6234   0.6793   0.6950
     0.7051   0.7253   0.7993   0.8161   0.8293   0.8566   0.9163   0.9361
     0.9700   0.9779   1.0014   1.0133   1.0323   1.0511   1.1158   1.1350
     1.1678   1.1922   1.1997   1.2087   1.2424   1.2449   1.2528   1.2563
     1.2645   1.3161   1.3274   1.4536   1.4597   1.4979   1.5092   1.5121
     1.5342   1.5645   1.5846   1.5946   1.6136   1.6677   1.7074   1.7318
     1.7384   1.8919   1.8977   1.9169   1.9609   2.2386   2.3719   2.7135
     3.0827   3.1112   3.2282   3.6858   4.2536   4.5168   4.8012   5.1951
     5.2234   5.2637   5.4417   5.5998   5.9660   6.1952   6.2574   6.5387
     6.5745   6.6043   6.6502

          k = 0.2000 0.3464 0.0000 ( 90618 PWs)   bands (ev):

   -19.3591 -11.7334  -7.4420  -6.8554  -5.6388  -5.6238  -5.5800  -4.9309
    -4.5648  -4.5565  -4.5458  -4.5353  -4.4883  -4.4843  -4.4674  -4.4570
    -4.3655  -4.3540  -4.0152  -3.9929  -3.9769  -3.9678  -3.9392  -3.8899
    -3.8616  -3.7623  -3.7360  -3.7176  -3.7121  -3.6932  -3.6429  -3.5843
    -3.5705  -3.5496  -3.5389  -3.5259  -3.4764  -3.4464  -3.4283  -3.4000
    -3.3521  -3.3112  -3.0772  -2.9932  -2.9664  -2.9442  -2.9313  -2.9151
    -2.8989  -2.8809  -2.8589  -2.8334  -2.7996  -2.6780  -2.6667  -2.6235
    -2.5719  -2.5457  -2.4960  -2.4824  -2.4736  -2.4201  -2.3935  -2.2492
    -2.2014  -2.1926  -2.1291  -2.1115  -2.0916  -2.0847  -2.0649  -2.0190
    -2.0004  -1.9296  -1.8641  -1.8477  -1.8328  -1.7905  -1.7649  -1.7470
    -1.7103  -1.6925  -1.6802  -1.6529  -1.5466  -1.5361  -1.5284  -1.5133
    -1.5056  -1.4813  -1.4781  -1.4431  -1.4343  -1.3930  -1.3710  -1.3385
    -1.2807  -1.2752  -1.2665  -1.2180  -1.1895  -1.1837  -1.1516  -1.1422
    -1.1179  -1.1003  -1.0749  -1.0687  -1.0579  -1.0395  -1.0041  -0.9903
    -0.9681  -0.9022  -0.8789  -0.8422  -0.8178  -0.7709  -0.7567  -0.7375
    -0.6540  -0.5638  -0.5241  -0.4482  -0.4159  -0.3946  -0.3724  -0.3682
    -0.3434  -0.3140  -0.2901  -0.2768  -0.2711  -0.2080  -0.1763  -0.1346
    -0.0717   0.0104   0.0283   0.0472   0.0784   0.1043   0.1263   0.1478
     0.2324   0.2564   0.2763   0.3169   0.3311   0.3802   0.4343   0.4649
     0.4780   0.4991   0.5478   0.5635   0.5761   0.5824   0.5943   0.6066
     0.6132   0.6432   0.7005   0.7533   0.8262   0.8361   0.9159   0.9428
     1.0006   1.0522   1.1258   1.1417   1.1505   1.1844   1.2559   1.2707
     1.2798   1.2939   1.3131   1.3385   1.3410   1.3492   1.3643   1.3961
     1.4198   1.4375   1.4917   1.5210   1.5305   1.5617   1.5725   1.6153
     1.6957   1.7794   1.8182   1.8306   1.8704   1.8884   1.9025   2.0211
     2.0283   2.2623   2.5462   2.5629   2.8468   3.0939   3.1083   3.1478
     3.3476   3.8192   3.8435   4.0220   4.0526   4.0848   4.4876   4.7229
     5.2041   5.2231   5.3546   5.4603   5.5656   5.9621   5.9951   6.0461
     6.0679   6.1855   6.4263

          k = 0.2000-0.5774 0.0000 ( 90696 PWs)   bands (ev):

   -19.3591 -11.7333  -7.4431  -6.3334  -6.3077  -5.7127  -5.1070  -5.0801
    -4.9072  -4.5666  -4.5551  -4.4127  -4.3800  -4.2758  -4.2648  -4.1713
    -4.1583  -4.0684  -4.0562  -4.0303  -4.0075  -3.9969  -3.9852  -3.9676
    -3.8991  -3.8807  -3.8322  -3.8280  -3.7927  -3.7760  -3.6975  -3.6304
    -3.6077  -3.5614  -3.4859  -3.4333  -3.4193  -3.4060  -3.3970  -3.3432
    -3.2843  -3.2670  -3.1886  -3.1727  -3.0274  -2.9819  -2.9628  -2.9247
    -2.8445  -2.8169  -2.7808  -2.7540  -2.6672  -2.6312  -2.5947  -2.5799
    -2.5592  -2.5094  -2.4977  -2.4714  -2.3805  -2.3731  -2.3515  -2.3401
    -2.3326  -2.3195  -2.3138  -2.2820  -2.2341  -2.1375  -2.1152  -2.0745
    -2.0597  -1.9875  -1.9514  -1.9168  -1.8870  -1.8769  -1.8535  -1.8230
    -1.8054  -1.7160  -1.7068  -1.7028  -1.6705  -1.6498  -1.6273  -1.5646
    -1.5378  -1.5281  -1.4758  -1.4672  -1.4428  -1.3945  -1.3401  -1.2968
    -1.2787  -1.2703  -1.2578  -1.2255  -1.2171  -1.1892  -1.1733  -1.1586
    -1.1472  -1.1272  -1.1097  -1.0812  -1.0598  -1.0518  -1.0422  -1.0320
    -0.9991  -0.9893  -0.9540  -0.9181  -0.8263  -0.7394  -0.6776  -0.6421
    -0.6327  -0.5430  -0.5285  -0.4970  -0.4767  -0.4436  -0.4317  -0.4139
    -0.3854  -0.3728  -0.3141  -0.2848  -0.2730  -0.2279  -0.2156  -0.1637
    -0.1352  -0.1075  -0.0046   0.0465   0.0884   0.1241   0.1491   0.1616
     0.2049   0.2294   0.2568   0.2694   0.2778   0.3120   0.3400   0.3704
     0.4199   0.4389   0.4839   0.5104   0.5206   0.5320   0.5533   0.5678
     0.6419   0.6901   0.7737   0.8012   0.8341   0.8917   0.9682   0.9757
     1.0020   1.0591   1.1040   1.1224   1.1465   1.2123   1.2583   1.2808
     1.3042   1.3244   1.3311   1.3477   1.3800   1.4124   1.4815   1.4884
     1.4910   1.5116   1.5396   1.5541   1.5600   1.6107   1.7182   1.7355
     1.7557   1.7641   1.7811   1.8267   1.8736   1.9442   2.0715   2.5202
     2.9020   2.9059   3.1206   3.1924   3.2845   3.2956   3.3099   3.5128
     3.9064   3.9196   4.0268   4.3577   4.3985   4.4585   4.5106   4.5274
     4.7563   4.8292   4.9325   5.1100   5.2202   5.3371   5.4250   5.6937
     5.9850   6.0302   6.0888

          k = 0.2000-0.3464 0.0000 ( 90618 PWs)   bands (ev):

   -19.3591 -11.7333  -7.4432  -6.8543  -5.6422  -5.6179  -5.5784  -4.9310
    -4.5617  -4.5509  -4.5419  -4.5379  -4.5012  -4.4857  -4.4663  -4.4567
    -4.3659  -4.3559  -4.0052  -3.9864  -3.9796  -3.9665  -3.9106  -3.8992
    -3.8770  -3.7570  -3.7361  -3.7183  -3.7098  -3.6965  -3.6599  -3.6015
    -3.5763  -3.5417  -3.5410  -3.5248  -3.4817  -3.4413  -3.4255  -3.4022
    -3.3325  -3.2957  -3.0630  -3.0306  -2.9655  -2.9555  -2.9394  -2.9203
    -2.9035  -2.8879  -2.8549  -2.8312  -2.7625  -2.6811  -2.6695  -2.6516
    -2.5687  -2.5444  -2.4967  -2.4812  -2.4682  -2.4187  -2.3879  -2.2529
    -2.2093  -2.2034  -2.1472  -2.1185  -2.0973  -2.0876  -2.0679  -2.0198
    -2.0009  -1.9277  -1.8616  -1.8411  -1.8170  -1.7850  -1.7589  -1.7457
    -1.7159  -1.7012  -1.6668  -1.6447  -1.5642  -1.5381  -1.5272  -1.5118
    -1.5087  -1.4862  -1.4760  -1.4499  -1.4262  -1.3789  -1.3562  -1.3390
    -1.2860  -1.2747  -1.2571  -1.2238  -1.1825  -1.1781  -1.1468  -1.1383
    -1.1151  -1.0976  -1.0879  -1.0703  -1.0583  -1.0440  -1.0005  -0.9859
    -0.9690  -0.9003  -0.8799  -0.8474  -0.8102  -0.7690  -0.7512  -0.7301
    -0.6531  -0.5727  -0.5232  -0.4332  -0.4200  -0.3896  -0.3703  -0.3604
    -0.3445  -0.3131  -0.2964  -0.2838  -0.2662  -0.2080  -0.1817  -0.1562
    -0.0567   0.0098   0.0364   0.0474   0.0768   0.1060   0.1245   0.1506
     0.2402   0.2625   0.2783   0.3090   0.3372   0.3881   0.4351   0.4594
     0.4808   0.4958   0.5391   0.5626   0.5693   0.5786   0.5903   0.6070
     0.6141   0.6412   0.7077   0.7463   0.8239   0.8410   0.9306   0.9432
     0.9696   1.0629   1.1253   1.1429   1.1576   1.1823   1.2555   1.2673
     1.2746   1.2892   1.3198   1.3361   1.3422   1.3547   1.3715   1.3977
     1.4205   1.4312   1.4986   1.5197   1.5397   1.5610   1.5723   1.6183
     1.6952   1.7636   1.8062   1.8164   1.8700   1.8911   1.9003   2.0233
     2.0275   2.2663   2.5504   2.5678   2.8400   3.0839   3.1075   3.1502
     3.3469   3.8253   3.8372   4.0213   4.0438   4.0908   4.4843   4.7280
     5.1998   5.2314   5.3184   5.4574   5.5954   5.9575   6.0104   6.0354
     6.0843   6.1692   6.4459

          k = 0.4000-0.2309 0.0000 ( 90646 PWs)   bands (ev):

   -19.3591 -11.7333  -7.4427  -6.7172  -6.0815  -5.4522  -5.0280  -5.0152
    -4.9557  -4.8539  -4.6424  -4.4940  -4.3759  -4.3377  -4.2978  -4.2921
    -4.1438  -4.1240  -4.0895  -4.0715  -4.0532  -3.9637  -3.9273  -3.9072
    -3.8925  -3.8589  -3.8338  -3.8097  -3.7846  -3.7263  -3.7166  -3.7032
    -3.5864  -3.4563  -3.4510  -3.4450  -3.4397  -3.4190  -3.3871  -3.2089
    -3.1911  -3.1693  -3.1646  -3.1511  -3.1261  -3.0258  -2.8955  -2.8668
    -2.8540  -2.8330  -2.8107  -2.7827  -2.7789  -2.7256  -2.6972  -2.6916
    -2.6399  -2.6322  -2.5008  -2.4960  -2.4778  -2.4444  -2.3516  -2.3357
    -2.2854  -2.2775  -2.2590  -2.1269  -2.0784  -2.0514  -2.0369  -2.0139
    -1.9722  -1.9569  -1.9360  -1.8900  -1.8023  -1.7880  -1.7738  -1.7291
    -1.6882  -1.6689  -1.6578  -1.6499  -1.6258  -1.5813  -1.5701  -1.5549
    -1.5409  -1.5355  -1.5214  -1.5146  -1.4967  -1.4429  -1.4116  -1.3946
    -1.3692  -1.3617  -1.3489  -1.3003  -1.2181  -1.2116  -1.1745  -1.1229
    -1.1091  -1.0995  -1.0747  -1.0451  -1.0381  -0.9566  -0.9282  -0.9137
    -0.8579  -0.8217  -0.8003  -0.7625  -0.6681  -0.6623  -0.6277  -0.5847
    -0.5273  -0.5125  -0.4841  -0.4550  -0.4490  -0.4419  -0.3969  -0.3681
    -0.3592  -0.3439  -0.3295  -0.3132  -0.2750  -0.2564  -0.2427  -0.2245
    -0.1388  -0.1111  -0.0743  -0.0631  -0.0163   0.0667   0.0880   0.0971
     0.1999   0.2181   0.2850   0.3360   0.3625   0.4045   0.4098   0.4366
     0.4609   0.4798   0.5285   0.5357   0.5733   0.6025   0.6248   0.6795
     0.7148   0.7321   0.7415   0.7662   0.7893   0.8554   0.9165   0.9651
     0.9733   1.0075   1.0428   1.0490   1.0687   1.1362   1.1637   1.2023
     1.2529   1.2600   1.2694   1.3116   1.3350   1.3494   1.3761   1.4430
     1.4598   1.4886   1.5034   1.5156   1.5221   1.5326   1.5368   1.7109
     1.7125   1.7330   1.7547   1.7601   1.9265   1.9764   2.0958   2.3719
     2.4466   2.5466   2.7897   2.8025   3.0398   3.1908   3.2088   3.5202
     3.5928   4.0029   4.0135   4.0264   4.2571   4.2970   4.3387   4.4173
     4.6483   4.6694   4.8181   5.2670   5.4977   5.5733   5.8760   5.9742
     6.3486   6.5202   6.7591

          k = 0.4000-0.0000 0.0000 ( 90618 PWs)   bands (ev):

   -19.3591 -11.7333  -7.4415  -6.8552  -5.6406  -5.6190  -5.5808  -4.9314
    -4.5633  -4.5485  -4.5439  -4.5350  -4.5025  -4.4839  -4.4660  -4.4618
    -4.3663  -4.3561  -3.9960  -3.9888  -3.9808  -3.9652  -3.9294  -3.8947
    -3.8504  -3.7707  -3.7409  -3.7183  -3.7096  -3.6955  -3.6512  -3.5970
    -3.5726  -3.5531  -3.5381  -3.5197  -3.4734  -3.4443  -3.4216  -3.4067
    -3.3556  -3.2984  -3.0605  -3.0290  -2.9648  -2.9580  -2.9408  -2.9222
    -2.9057  -2.8843  -2.8502  -2.8231  -2.7605  -2.6804  -2.6687  -2.6559
    -2.5725  -2.5421  -2.4968  -2.4834  -2.4688  -2.4141  -2.3905  -2.2545
    -2.2214  -2.2051  -2.1518  -2.1101  -2.0946  -2.0893  -2.0697  -2.0186
    -2.0013  -1.9306  -1.8596  -1.8363  -1.8177  -1.7812  -1.7565  -1.7446
    -1.7136  -1.6986  -1.6683  -1.6454  -1.5700  -1.5344  -1.5306  -1.5129
    -1.5063  -1.4871  -1.4774  -1.4484  -1.4247  -1.3812  -1.3585  -1.3339
    -1.2841  -1.2769  -1.2604  -1.2239  -1.1820  -1.1725  -1.1486  -1.1369
    -1.1161  -1.0975  -1.0839  -1.0773  -1.0565  -1.0384  -1.0105  -0.9867
    -0.9599  -0.8971  -0.8756  -0.8487  -0.8194  -0.7619  -0.7487  -0.7347
    -0.6537  -0.5733  -0.5235  -0.4265  -0.4177  -0.3832  -0.3708  -0.3623
    -0.3445  -0.3137  -0.3038  -0.2878  -0.2679  -0.2097  -0.1820  -0.1650
    -0.0509   0.0114   0.0380   0.0472   0.0738   0.1033   0.1272   0.1506
     0.2418   0.2666   0.2799   0.3180   0.3345   0.3908   0.4388   0.4641
     0.4747   0.4915   0.5425   0.5632   0.5705   0.5873   0.5905   0.6038
     0.6123   0.6365   0.6839   0.7295   0.8234   0.8512   0.9074   0.9552
     1.0210   1.0586   1.1305   1.1417   1.1452   1.1837   1.2484   1.2660
     1.2809   1.2921   1.3151   1.3346   1.3482   1.3544   1.3725   1.3968
     1.4189   1.4313   1.4990   1.5208   1.5388   1.5616   1.5721   1.6198
     1.6905   1.7580   1.8015   1.8172   1.8680   1.8890   1.8978   2.0231
     2.0308   2.2669   2.5559   2.5698   2.8529   3.0844   3.1000   3.1464
     3.3256   3.8307   3.8370   4.0215   4.0565   4.0738   4.5145   4.7542
     5.1549   5.2171   5.2974   5.4571   5.7044   5.9361   6.0187   6.0435
     6.0725   6.1187   6.4351

          k = 0.4000 0.2309 0.0000 ( 90646 PWs)   bands (ev):

   -19.3591 -11.7334  -7.4408  -6.7188  -6.0844  -5.4540  -5.0249  -5.0112
    -4.9588  -4.8570  -4.6478  -4.4920  -4.3800  -4.3407  -4.2949  -4.2854
    -4.1459  -4.1296  -4.0903  -4.0701  -4.0594  -3.9640  -3.9348  -3.9095
    -3.8884  -3.8628  -3.8274  -3.8236  -3.7925  -3.7184  -3.7104  -3.7045
    -3.5658  -3.4535  -3.4482  -3.4438  -3.4335  -3.4132  -3.4025  -3.2116
    -3.1992  -3.1628  -3.1590  -3.1537  -3.1272  -2.9661  -2.9217  -2.8706
    -2.8538  -2.8370  -2.8308  -2.7898  -2.7594  -2.7135  -2.7043  -2.6839
    -2.6487  -2.6226  -2.4974  -2.4886  -2.4721  -2.4446  -2.3459  -2.3177
    -2.2830  -2.2656  -2.2560  -2.1267  -2.0777  -2.0546  -2.0375  -2.0265
    -1.9842  -1.9598  -1.9328  -1.8905  -1.8266  -1.7998  -1.7845  -1.7355
    -1.6800  -1.6708  -1.6532  -1.6498  -1.6205  -1.5769  -1.5656  -1.5540
    -1.5471  -1.5328  -1.5166  -1.5118  -1.4953  -1.4331  -1.4019  -1.3959
    -1.3675  -1.3574  -1.3379  -1.3011  -1.2266  -1.2207  -1.1762  -1.1428
    -1.1213  -1.0945  -1.0737  -1.0578  -1.0525  -0.9625  -0.9293  -0.9087
    -0.8603  -0.8277  -0.8006  -0.7624  -0.6688  -0.6621  -0.6220  -0.5839
    -0.5259  -0.5117  -0.4887  -0.4554  -0.4385  -0.4355  -0.4077  -0.3670
    -0.3585  -0.3391  -0.3242  -0.3194  -0.2914  -0.2587  -0.2536  -0.2140
    -0.1364  -0.1198  -0.0776  -0.0606  -0.0176   0.0583   0.0857   0.0895
     0.1981   0.2152   0.2959   0.3273   0.3635   0.3987   0.4007   0.4266
     0.4635   0.4872   0.5346   0.5393   0.5861   0.6078   0.6217   0.6967
     0.7219   0.7344   0.7559   0.7649   0.7930   0.8484   0.8867   0.9545
     0.9882   1.0105   1.0347   1.0467   1.0573   1.1391   1.1631   1.1985
     1.2421   1.2522   1.2724   1.3186   1.3245   1.3446   1.3683   1.4436
     1.4665   1.4914   1.5035   1.5220   1.5320   1.5327   1.5518   1.7115
     1.7212   1.7456   1.7579   1.7776   1.9231   1.9757   2.1132   2.3797
     2.4336   2.5331   2.7887   2.8001   3.0337   3.1823   3.2137   3.5374
     3.6028   4.0042   4.0116   4.0466   4.2439   4.2693   4.3651   4.4217
     4.6449   4.6737   4.8180   5.2853   5.4605   5.5807   5.8842   5.9875
     6.3470   6.5383   6.8168

          k = 0.4000-0.6928 0.0000 ( 90696 PWs)   bands (ev):

   -19.3591 -11.7333  -7.4416  -6.3354  -6.3070  -5.7119  -5.1151  -5.0852
    -4.8968  -4.5676  -4.5482  -4.4114  -4.3811  -4.2800  -4.2657  -4.1709
    -4.1574  -4.0798  -4.0541  -4.0247  -4.0108  -3.9998  -3.9821  -3.9680
    -3.9055  -3.8703  -3.8300  -3.8263  -3.7918  -3.7736  -3.7151  -3.6264
    -3.5821  -3.5555  -3.4856  -3.4308  -3.4209  -3.4146  -3.3913  -3.3669
    -3.2871  -3.2760  -3.1901  -3.1625  -3.0366  -2.9845  -2.9443  -2.9286
    -2.8441  -2.8137  -2.7900  -2.7465  -2.6622  -2.6294  -2.5953  -2.5798
    -2.5593  -2.5100  -2.5018  -2.4733  -2.3830  -2.3705  -2.3538  -2.3424
    -2.3345  -2.3245  -2.3132  -2.2845  -2.2285  -2.1398  -2.1152  -2.0770
    -2.0559  -1.9774  -1.9512  -1.9164  -1.8866  -1.8729  -1.8560  -1.8193
    -1.7987  -1.7160  -1.7083  -1.7052  -1.6760  -1.6542  -1.6314  -1.5619
    -1.5404  -1.5254  -1.4784  -1.4663  -1.4496  -1.3942  -1.3393  -1.3022
    -1.2762  -1.2696  -1.2589  -1.2255  -1.2167  -1.1917  -1.1699  -1.1618
    -1.1413  -1.1226  -1.1059  -1.0768  -1.0614  -1.0553  -1.0418  -1.0296
    -0.9995  -0.9849  -0.9511  -0.9247  -0.8259  -0.7423  -0.6808  -0.6429
    -0.6320  -0.5435  -0.5254  -0.4968  -0.4794  -0.4424  -0.4283  -0.4194
    -0.3817  -0.3690  -0.3165  -0.2853  -0.2711  -0.2254  -0.2073  -0.1645
    -0.1331  -0.1078  -0.0090   0.0423   0.0910   0.1227   0.1429   0.1635
     0.2151   0.2356   0.2542   0.2708   0.2839   0.3146   0.3351   0.3593
     0.4164   0.4418   0.4804   0.5084   0.5246   0.5296   0.5460   0.5632
     0.6352   0.7026   0.7679   0.8107   0.8307   0.8845   0.9632   0.9751
     1.0189   1.0702   1.1017   1.1134   1.1462   1.2133   1.2650   1.2811
     1.3025   1.3223   1.3324   1.3564   1.3830   1.4021   1.4791   1.4878
     1.4985   1.5163   1.5398   1.5486   1.5630   1.6097   1.7184   1.7328
     1.7553   1.7587   1.7793   1.8252   1.8706   1.9439   2.0702   2.5179
     2.9022   2.9052   3.1208   3.1927   3.2798   3.2965   3.3220   3.5297
     3.9043   3.9118   4.0057   4.3635   4.4024   4.4628   4.5156   4.5353
     4.7204   4.8119   4.9432   5.1230   5.2688   5.3587   5.3996   5.7134
     5.9793   6.0214   6.0747

          k = 0.4000-0.4619 0.0000 ( 90696 PWs)   bands (ev):

   -19.3591 -11.7333  -7.4427  -6.3286  -6.3106  -5.7142  -5.1134  -5.0823
    -4.8972  -4.5680  -4.5432  -4.4148  -4.3818  -4.2818  -4.2694  -4.1666
    -4.1552  -4.0597  -4.0537  -4.0373  -4.0136  -3.9942  -3.9850  -3.9743
    -3.8869  -3.8693  -3.8314  -3.8302  -3.7954  -3.7727  -3.7013  -3.6428
    -3.5915  -3.5629  -3.4884  -3.4339  -3.4212  -3.4140  -3.3929  -3.3461
    -3.2887  -3.2749  -3.1935  -3.1873  -3.0270  -2.9908  -2.9841  -2.8597
    -2.8424  -2.8268  -2.7771  -2.7699  -2.6598  -2.6268  -2.5885  -2.5802
    -2.5689  -2.5218  -2.5194  -2.4777  -2.3876  -2.3765  -2.3520  -2.3419
    -2.3349  -2.3235  -2.3160  -2.2755  -2.2333  -2.1416  -2.1170  -2.0700
    -2.0592  -1.9787  -1.9470  -1.9049  -1.8939  -1.8723  -1.8557  -1.7977
    -1.7880  -1.7183  -1.7123  -1.7096  -1.6711  -1.6524  -1.6347  -1.5762
    -1.5356  -1.5183  -1.4932  -1.4771  -1.4558  -1.3888  -1.3272  -1.2997
    -1.2795  -1.2716  -1.2618  -1.2268  -1.2141  -1.1744  -1.1677  -1.1511
    -1.1405  -1.1214  -1.1019  -1.0854  -1.0653  -1.0546  -1.0447  -1.0236
    -1.0052  -0.9830  -0.9444  -0.9214  -0.8162  -0.7400  -0.6787  -0.6397
    -0.6350  -0.5416  -0.5303  -0.4907  -0.4767  -0.4392  -0.4310  -0.4198
    -0.3961  -0.3686  -0.3165  -0.2779  -0.2616  -0.2364  -0.2106  -0.1650
    -0.1337  -0.0911  -0.0084   0.0456   0.0921   0.1202   0.1332   0.1556
     0.2217   0.2357   0.2596   0.2747   0.2791   0.3122   0.3377   0.3537
     0.4190   0.4330   0.4765   0.5126   0.5158   0.5278   0.5611   0.5650
     0.6388   0.6982   0.7633   0.8184   0.8465   0.8877   0.9572   0.9701
     1.0184   1.0503   1.1024   1.1148   1.1542   1.2168   1.2574   1.2855
     1.3133   1.3225   1.3349   1.3642   1.3756   1.3999   1.4761   1.4860
     1.4946   1.5288   1.5419   1.5447   1.5627   1.6123   1.7153   1.7270
     1.7508   1.7543   1.7654   1.8233   1.8625   1.9436   2.0728   2.5233
     2.9031   2.9049   3.1149   3.1877   3.2878   3.2997   3.3302   3.5236
     3.9069   3.9132   3.9993   4.3584   4.4026   4.4889   4.5193   4.5350
     4.6671   4.8098   4.9193   5.1212   5.2992   5.3565   5.4055   5.7060
     5.9866   6.0254   6.0727

     the Fermi energy is     1.5280 ev

!    total energy              =  -27838.39691326 Ry

     total all-electron energy =  -1326949.537410 Ry
     estimated scf accuracy    <       0.00000024 Ry
     smearing contrib. (-TS)   =       0.00288416 Ry
     internal energy E=F+TS    =  -27838.39979742 Ry

     The total energy is F=E-TS. E is the sum of the following terms:
     one-electron contribution =  -27880.49186700 Ry
     hartree contribution      =   14241.17265194 Ry
     xc contribution           =    -909.51203599 Ry
     ewald contribution        =   12207.63347273 Ry
     one-center paw contrib.   =  -25497.20201910 Ry

     convergence has been achieved in  21 iterations

     negative rho (up, down):  1.313E-02 0.000E+00

     Forces acting on atoms (cartesian axes, Ry/au):

     atom    1 type  1   force =    -0.00014034   -0.00023676   -0.00374712
     atom    2 type  1   force =    -0.00077447   -0.00055514   -0.00352713
     atom    3 type  1   force =    -0.00019481    0.00020553   -0.00332886
     atom    4 type  1   force =    -0.00019165    0.00020951   -0.00333223
     atom    5 type  1   force =     0.00002402    0.00094560   -0.00336663
     atom    6 type  1   force =    -0.00072085    0.00077221   -0.00343465
     atom    7 type  1   force =     0.00044872    0.00018263   -0.00350739
     atom    8 type  1   force =     0.00005458    0.00040270   -0.00736383
     atom    9 type  1   force =    -0.00106345    0.00027986   -0.00360838
     atom   10 type  1   force =     0.00108174   -0.00109390    0.00137838
     atom   11 type  1   force =     0.00256244   -0.00183314    0.01003747
     atom   12 type  1   force =    -0.00132168   -0.00225809    0.00948888
     atom   13 type  1   force =     0.00113981   -0.00051871    0.00175345
     atom   14 type  1   force =     0.00020868   -0.00093611   -0.00076753
     atom   15 type  1   force =     0.00045487   -0.00043920    0.00073440
     atom   16 type  1   force =    -0.00000933   -0.00079564    0.00033362
     atom   17 type  1   force =     0.00090353    0.00004540   -0.00041230
     atom   18 type  1   force =     0.00096966    0.00230668    0.00974334
     atom   19 type  1   force =    -0.00140146    0.00036494   -0.00071144
     atom   20 type  1   force =     0.00074517    0.00011238   -0.00176989
     atom   21 type  1   force =     0.00012070    0.00147944   -0.00077729
     atom   22 type  1   force =    -0.00042222   -0.00053641   -0.00048248
     atom   23 type  1   force =    -0.00035173   -0.00060599   -0.00070888
     atom   24 type  1   force =     0.00114107   -0.00083252   -0.00100439
     atom   25 type  1   force =     0.00030307   -0.00019283   -0.00136104
     atom   26 type  1   force =    -0.00017739    0.00062749   -0.00110646
     atom   27 type  1   force =    -0.00024977   -0.00038224   -0.00287482
     atom   28 type  1   force =    -0.00122385   -0.00001124    0.00267867
     atom   29 type  1   force =    -0.00043383   -0.00205503    0.00213167
     atom   30 type  1   force =    -0.00180746   -0.00008909   -0.00023987
     atom   31 type  1   force =     0.00023618    0.00066943    0.00238082
     atom   32 type  1   force =    -0.00088038    0.00152251   -0.00061011
     atom   33 type  1   force =    -0.00033020   -0.00228211    0.00320222
     atom   34 type  1   force =    -0.00039816    0.00075000    0.00249413
     atom   35 type  1   force =     0.00067428    0.00111238    0.00320187
     atom   36 type  1   force =    -0.00098363    0.00168812    0.00237505
     atom   37 type  2   force =    -0.01833797   -0.00978320   -0.01481353
     atom   38 type  3   force =     0.00753074    0.01434950    0.00582340
     atom   39 type  3   force =     0.00111468   -0.00603748    0.00983426
     atom   40 type  4   force =     0.01069786   -0.00890968    0.00350417
     atom   41 type  4   force =     0.01112053    0.00473906   -0.00437373
     atom   42 type  4   force =    -0.01011774    0.00761915   -0.00386580

     Total force =     0.041588     Total SCF correction =     0.000700

     negative rho (up, down):  1.313E-02 0.000E+00

     negative rho (up, down):  1.313E-02 0.000E+00

     negative rho (up, down):  1.313E-02 0.000E+00

     negative rho (up, down):  1.313E-02 0.000E+00

     negative rho (up, down):  1.313E-02 0.000E+00

     negative rho (up, down):  1.313E-02 0.000E+00

     negative rho (up, down):  1.313E-02 0.000E+00

     negative rho (up, down):  1.313E-02 0.000E+00

     negative rho (up, down):  1.313E-02 0.000E+00

     negative rho (up, down):  1.313E-02 0.000E+00

     negative rho (up, down):  1.313E-02 0.000E+00

     negative rho (up, down):  1.313E-02 0.000E+00

     negative rho (up, down):  1.313E-02 0.000E+00

     negative rho (up, down):  1.313E-02 0.000E+00

     negative rho (up, down):  1.313E-02 0.000E+00

     negative rho (up, down):  1.313E-02 0.000E+00

     negative rho (up, down):  1.313E-02 0.000E+00

     negative rho (up, down):  1.313E-02 0.000E+00

     negative rho (up, down):  1.313E-02 0.000E+00

     negative rho (up, down):  1.313E-02 0.000E+00

     negative rho (up, down):  1.313E-02 0.000E+00

     negative rho (up, down):  1.313E-02 0.000E+00

     negative rho (up, down):  1.313E-02 0.000E+00

     negative rho (up, down):  1.313E-02 0.000E+00

     negative rho (up, down):  1.313E-02 0.000E+00

     negative rho (up, down):  1.313E-02 0.000E+00

     negative rho (up, down):  1.313E-02 0.000E+00

     negative rho (up, down):  1.313E-02 0.000E+00

     negative rho (up, down):  1.313E-02 0.000E+00

     negative rho (up, down):  1.313E-02 0.000E+00

     negative rho (up, down):  1.313E-02 0.000E+00

     negative rho (up, down):  1.313E-02 0.000E+00

     negative rho (up, down):  1.313E-02 0.000E+00

     negative rho (up, down):  1.313E-02 0.000E+00
 BEEFens 2000 ensemble energies
             -0.608937526650855E+02
             -0.362115714556168E+01
             -0.158775717244264E+02
              0.430956707332443E+02
             -0.221953345440630E+02
             -0.205930251332443E+02
             -0.353936226267734E+02
             -0.868274663099047E+02
             -0.466565305035410E+02
             -0.474203735234122E+02
             -0.370542667493725E+02
              0.230456888051585E+01
              0.407556804972847E+01
              0.761792696398365E+01
              0.266727599814982E+01
              0.476582940331759E+02
             -0.209550945160487E+02
             -0.230692109449229E+02
              0.193525106087983E+02
             -0.112788952168342E+03
              0.538374300962168E+02
             -0.290542432016795E+02
             -0.335937455101908E+01
             -0.114513332641752E+02
             -0.883490948231781E+01
             -0.465771025080750E+01
              0.885911460357733E+02
             -0.187831043800780E+02
             -0.903635196177754E+01
             -0.520287012586095E+02
              0.818045597914813E+02
             -0.187594140756369E+02
             -0.376297839541636E+02
              0.250017955216205E+02
             -0.285465254356723E+01
              0.164840102217612E+02
             -0.485980498580756E+01
              0.108255457611946E+02
              0.289402890567782E+02
             -0.103629617158069E+03
              0.560388111214165E+02
              0.142854441851638E+02
             -0.175316416237825E+01
             -0.362644060914993E+02
              0.123569739980303E+02
             -0.147457587369589E+02
              0.399993530151442E+02
              0.366124297930544E+02
             -0.308909976306064E+02
             -0.276077886872221E+02
             -0.329303284909015E+02
             -0.353440419688489E+02
              0.136938388410426E+02
             -0.492670606911977E+02
              0.116149958327528E+02
              0.625337306136626E+02
              0.637875509042826E+02
              0.357115291240227E+02
              0.154754529336579E+02
              0.271648214072991E+02
              0.894715988148527E+02
              0.213257571754518E+02
             -0.550513005768793E+02
             -0.157530604246554E+02
             -0.236853346346441E+02
              0.631937958400024E+02
             -0.776134521826885E+02
             -0.673889679999651E+02
             -0.260550409955607E+02
             -0.654012069177656E+01
             -0.472264552962858E+02
              0.271671272248257E+02
              0.804910816852828E+01
              0.872633424841939E+01
             -0.398653991375667E+02
             -0.348066984701340E+02
             -0.543913011867925E+02
              0.391475167492918E+02
             -0.297129998471761E+02
              0.266323974405711E+02
             -0.718603682193575E+01
             -0.319021378784196E+02
             -0.578154603327619E+02
             -0.177122662499714E+02
             -0.909259513015809E+01
             -0.125246174814133E+02
              0.413702623029839E+02
              0.685466068918893E+02
             -0.387189996553114E+02
             -0.797484422279559E+02
             -0.220338046079214E+02
              0.111895462719186E+03
             -0.594475674167915E+02
              0.357187241387136E+02
             -0.961257811752012E+01
             -0.665391751892733E+02
              0.255379772472625E+02
              0.399302001584838E+02
             -0.199307955762069E+02
              0.401360151226644E+02
             -0.296851612442915E+02
             -0.480180072601926E+02
              0.869111181269673E+02
              0.455442289655092E+02
              0.337473836725497E+02
              0.146854039937350E+02
              0.206477831671217E+02
              0.859399745197567E+02
             -0.257718717129365E+02
              0.789700659985068E+01
             -0.142888068519289E+03
              0.181813002343710E+02
             -0.718551731906371E+02
              0.151487835234075E+02
              0.205399724496617E+02
             -0.334177520314574E+02
             -0.559012169494436E+02
              0.654279957269068E+01
             -0.305223927778391E+02
              0.309244399463325E+02
             -0.531561402846567E+02
              0.169941111251524E+01
             -0.358244169658888E+02
             -0.424767628954959E+01
             -0.103440222506987E+01
              0.181890590536904E+02
              0.141851296493383E+01
             -0.654036025643950E+01
              0.592677063622254E+02
              0.911510644174255E+02
              0.485813326149617E+02
              0.832894963906564E+02
             -0.115631395496772E+02
              0.143303001368083E+02
              0.543050290964280E+02
             -0.110924460389121E+02
             -0.738581828216741E+02
             -0.385582642137483E+02
             -0.523528827754516E+02
             -0.277767920034309E+02
              0.328191581679346E+02
             -0.117197535746566E+03
             -0.187715424129956E+02
              0.415568653971429E+02
             -0.387605503998787E+02
             -0.366430513336845E+02
              0.546176950258888E+02
              0.402332345666948E+02
             -0.355143109100162E+02
              0.138628663837080E+02
             -0.274138004698239E+02
              0.344436379180015E+02
              0.447357582334348E+01
              0.211603882605470E+02
             -0.887809466813652E+02
             -0.481928310267994E+02
             -0.999721607502011E+01
              0.320879559235400E+01
             -0.368256342313624E+02
              0.106400022200678E+03
             -0.231587656507179E+02
             -0.399812337651759E+02
              0.390135825675600E+02
             -0.495830763061178E+02
             -0.364518113156510E+02
              0.325930168208184E+02
              0.124873651230465E+02
              0.165155824106940E+02
              0.117018098844238E+02
             -0.133195632223955E+02
              0.225742291459276E+02
              0.592227793310892E+02
             -0.312634761973616E+02
              0.163111586742501E+02
              0.937670902419560E+02
              0.341842875383133E+02
             -0.731727805878404E+01
             -0.189224450139209E+02
              0.153888851638705E+03
             -0.164779641017773E+02
              0.364565392742368E+02
              0.195356052112984E+02
              0.362672605735941E+02
              0.895138613669278E+02
              0.544538667930568E+02
             -0.241094720398316E+01
              0.228529025545650E+02
              0.486474278050476E+02
              0.364804121817673E+02
             -0.527654964640365E+02
              0.939295842896796E+02
             -0.828720575728979E+02
             -0.198527444477024E+02
              0.584790895409082E+02
              0.680320336750653E+01
              0.790236325889987E+01
              0.341903012583731E+02
              0.299862151028042E+02
              0.354870796709689E+02
             -0.639744299508709E+02
              0.288122826879089E+01
             -0.298481030515177E+02
             -0.872392465159993E+01
             -0.146118015754996E+01
             -0.726372405500386E+01
             -0.417076100846219E+01
              0.862305286884841E+02
             -0.101341209999702E+02
             -0.277325914452088E+02
             -0.497148252037779E+01
              0.140367878866089E+02
             -0.566033733417302E+02
             -0.409009265595914E+02
             -0.383282944817956E+02
             -0.632346617381220E+02
             -0.170198298840312E+02
             -0.448878313788598E+02
              0.164026564385129E+02
             -0.238891225182687E+01
             -0.104887410568250E+02
             -0.936997197296378E+01
              0.809715783378340E+01
             -0.243354503376984E+02
              0.691684084364194E+02
             -0.810207732893707E+02
             -0.141591862634550E+02
             -0.174586982562896E+02
              0.182576546454618E+02
              0.215117592184273E+02
             -0.465370915198412E+02
             -0.202298804527667E+02
              0.442453686176306E+02
             -0.276941224589041E+02
              0.187503433705947E+02
              0.384140380543262E+02
             -0.322511612553967E+01
              0.114521953872982E+03
             -0.230499664143995E+02
             -0.342080724080572E+02
              0.579773260637290E+01
             -0.229107675696555E+02
              0.529434255239309E+02
             -0.338739534085477E+02
              0.106870242618239E+02
              0.642481462973987E+02
             -0.126859184343088E+02
              0.120645977790649E+03
              0.126318601516639E+03
             -0.652196754068880E+02
              0.592546489071028E+02
              0.167190450763298E+02
             -0.519698948958203E+02
              0.216728293638849E+02
              0.355340124487758E+02
              0.364218042921131E+02
              0.135569359432387E+01
              0.160227773944443E+02
              0.698458483130800E+02
             -0.247734795386340E+02
              0.181834970733399E+02
              0.741583541099048E+02
             -0.373856032014083E+02
             -0.130424295687974E+02
              0.510529230055507E+02
              0.298398533142651E+02
              0.782825252967721E+02
              0.223835136154149E+02
              0.629330409535527E+01
              0.281335307648971E+02
              0.384733068236997E+02
             -0.473653764593110E+02
              0.334128356271526E+01
              0.130630462101436E+02
              0.114066869198959E+02
              0.221363301763803E+02
             -0.577042383742685E+02
              0.367099240853722E+02
             -0.445347086984301E+02
             -0.348527181670604E+02
              0.178710265554811E+02
             -0.181861043472177E+02
              0.556958873355071E+02
             -0.256649628898283E+02
              0.267779433425460E+02
              0.369209079215359E+02
              0.831894148567936E+02
              0.576576503056142E+02
              0.463601694698392E+02
             -0.105728567986158E+02
             -0.393616441727090E+01
             -0.333287236981811E+02
              0.753432290860655E+02
              0.799928250690085E+02
              0.363211394559541E+02
             -0.192906095810718E+02
              0.513520566571829E+02
             -0.162965312460693E+02
              0.215473911682700E+02
              0.616813576813493E+02
              0.212488903040062E+01
             -0.104766350262888E+02
             -0.283675079456253E+02
             -0.513728501622894E+02
              0.948698483248628E+02
              0.441525601834112E+02
             -0.561141887039593E+02
             -0.969265074658699E+01
              0.250837149448765E+02
             -0.100090643924232E+02
              0.594343550735373E+02
              0.152545480949526E+02
              0.801915751424576E+02
              0.280669848289684E+02
             -0.264723212730521E+02
              0.249558033432648E+02
             -0.503636218758163E+01
             -0.324531658869501E+02
              0.133717690512324E+02
              0.206182138324264E+02
              0.936060533316168E+02
              0.800117077238367E+02
              0.552958706839332E+02
              0.733005383167879E+02
              0.803861796389862E+01
             -0.274608676978655E+02
              0.163600299565918E+02
             -0.369175167428383E+02
             -0.478250670280716E+02
             -0.565624868620649E+02
             -0.267649032332982E+02
             -0.110081680636347E+03
             -0.292600522453707E+02
             -0.840395229391030E+02
              0.210805776519672E+02
             -0.478707281669311E+02
              0.398458217283412E+02
             -0.944881157902230E+02
             -0.331100890599766E+02
              0.549996735989088E+02
              0.208370041600922E+02
             -0.833721383201170E+02
              0.632935003089980E+02
             -0.257776306309419E+02
              0.514378845014792E+02
             -0.243502154900684E+02
             -0.754130447468905E+02
              0.112506257425254E+02
             -0.613677901337838E+02
             -0.168498746610208E+02
             -0.149516826836540E+01
              0.419738448630845E+02
              0.127449494458342E+03
             -0.463241259318711E+02
             -0.363784023912365E+02
             -0.991702471108852E+00
             -0.130804131538304E+02
             -0.825342668934676E+02
             -0.598798542090082E+02
              0.518895932792145E+02
             -0.289775487727305E+02
              0.169885968756679E+02
             -0.491121476029971E+02
             -0.132489129824100E+02
             -0.438655336251671E+02
              0.567318218218004E+02
              0.151382138158226E+02
             -0.232442843047780E+02
             -0.127547619033630E+02
              0.671655580332281E+01
             -0.623277588777802E+01
              0.443057499633850E+02
             -0.252928301622222E+02
              0.281611519201601E+01
              0.340543898898041E+02
              0.171755602273362E+02
             -0.160616945720662E+02
              0.156807272091408E+03
              0.540120238864810E+02
              0.118752714958116E+01
              0.161781032221588E+02
             -0.617081456699549E+02
              0.316112067379472E+02
             -0.724405146533832E+02
             -0.253091750511160E+02
             -0.524670899249722E+02
             -0.220700861460424E+02
              0.571180232579093E+02
             -0.539067636747421E+02
              0.161703426737093E+02
             -0.409795719484066E+01
              0.388068561465030E+01
             -0.435077432809109E+02
             -0.479765659206457E+02
             -0.402502518335336E+01
             -0.426261763992294E+02
             -0.217898746838046E+02
             -0.439925127343174E+02
             -0.119553820538455E+02
             -0.360226031387422E+02
             -0.518312055408951E+02
              0.213629681639014E+02
             -0.209819244428057E+02
              0.188622323064042E+02
              0.978700975833937E+01
             -0.740653189770883E+02
             -0.549968483845934E+02
             -0.399822469812959E+02
              0.355513485078984E+02
              0.269602439636967E+01
             -0.628941668273949E+02
              0.587798653248851E+02
             -0.402606719741406E+02
              0.546812546163079E+02
             -0.290766410535094E+02
             -0.447735030583065E+02
              0.299264291859432E+02
             -0.660131472715834E+02
             -0.381254306557774E+02
              0.674986202919601E+02
              0.204704306579409E+02
             -0.361751193535853E+02
              0.491531318469999E+02
             -0.174702374216710E+02
             -0.324257621548804E+02
             -0.302937773551116E+02
             -0.502430427027197E+02
              0.250351804651291E+02
             -0.936235399106739E+02
             -0.843145380163231E+02
             -0.737578666834361E+01
             -0.307798128386383E+02
             -0.577758649691247E+02
              0.724429008594352E+02
              0.132006614299823E+03
             -0.361949626135299E+02
             -0.256219969960864E+01
             -0.639405986312590E+02
              0.652792542567926E+02
              0.171549215929346E+02
             -0.182583126398224E+02
             -0.411347603454560E+02
              0.149187663744431E+02
             -0.588303440004428E+02
             -0.198426474246436E+02
             -0.907862216076499E+02
              0.338314400905745E+02
              0.169430932863168E+02
              0.183225040516231E+01
             -0.709155688921658E+01
             -0.331154819139053E+02
             -0.762387948800369E+01
              0.126003519599407E+03
             -0.199522461888612E+02
             -0.439239146460413E+02
             -0.686368341348905E+02
              0.109775489546063E+02
             -0.343502358617531E+02
              0.594748746641935E+01
              0.262638446990396E+02
              0.102359885056374E+02
              0.279079721050977E+02
              0.120460173832108E+02
              0.631663124966836E+02
              0.317728370644168E+02
             -0.327823893985591E+02
              0.357332604496945E+02
              0.380761482974245E+02
              0.121303401454543E+02
              0.488619801826028E+02
             -0.225766505950023E+02
              0.768341769985732E+02
              0.173150230833334E+02
             -0.273330478248820E+02
             -0.726361677921913E+01
             -0.187039783747336E+02
              0.262524947245649E+02
             -0.235312301079696E+02
             -0.154749928579264E+00
             -0.854543933849686E+01
              0.812518915278873E+02
              0.502120419713589E+02
             -0.689456891722706E+02
             -0.479224458927860E+01
             -0.557329492185958E+02
             -0.159957953065760E+02
             -0.269189901422727E+02
              0.379624520226662E+01
              0.585611779465170E+00
             -0.258638544445271E+02
              0.819398378369527E+01
             -0.605789522992572E+01
             -0.128934323101829E+02
              0.862034816205593E+02
              0.182402833317562E+02
             -0.809881289057958E+02
             -0.459872884523791E+02
              0.948312183612160E+02
              0.278775596891784E+02
             -0.107106460465866E+02
              0.104954111410923E+03
             -0.195394781089296E+02
             -0.123337758877576E+02
             -0.542572209315540E+01
              0.108047928613807E+02
              0.273532787077111E+02
              0.782029748374390E+01
              0.306363037740632E+02
             -0.188342966953935E+02
             -0.305112291726791E+02
             -0.419353817021237E+02
             -0.478695325115186E+02
              0.465539017703040E+02
              0.127334926865192E+02
              0.389044899308528E+02
              0.134057853309939E+02
              0.858856594862743E+02
              0.157126264860169E+02
             -0.848843919396141E+02
             -0.335707931151736E+02
              0.134007201724866E+02
             -0.303845945298153E+02
              0.628855780136898E+02
             -0.892330617811558E+01
              0.149372115747197E+02
              0.499133753122063E+02
             -0.710066632427238E+02
              0.150276396463390E+03
              0.209430728482687E+02
              0.272156208712099E+02
              0.348969975775858E+02
              0.104095951175420E+02
             -0.156320537131438E+01
              0.359687843315149E+02
             -0.358535378319740E+02
              0.776302328105334E+02
              0.687520004841087E+02
             -0.407544762008956E+02
              0.150273775462240E+02
              0.672795980415037E+02
             -0.224687547129419E+02
              0.154965241767938E+02
              0.436502568218114E+02
              0.423737659281461E+02
             -0.787678485861317E+02
             -0.153101945915317E+02
             -0.357311399908354E+02
             -0.151135855640729E+01
             -0.769196416129808E+01
             -0.542969162082079E+01
             -0.181178479720280E+02
             -0.295046110088401E+02
              0.639046567456205E+01
              0.112026368995424E+02
              0.537657495182179E+02
             -0.391930741464475E+02
              0.376009115131050E+02
              0.440292288517174E+02
             -0.187082851922206E+02
              0.875254593953436E+02
             -0.700312390259605E+02
             -0.103560389028363E+03
             -0.661388608448021E+01
             -0.272351757476338E+01
              0.385691143103406E+01
              0.792340398322380E+02
             -0.107248848856219E+02
              0.418198727376189E+02
              0.445695659577518E+02
              0.386608844361701E+02
             -0.997796080453395E+01
              0.629750616434651E+02
             -0.134217242920457E+02
             -0.308776870232243E+02
             -0.481060519461583E+02
              0.590973166619241E+01
              0.370994973663733E+02
             -0.603737953095631E+01
              0.394296842317020E+02
             -0.174561528523594E+01
              0.657381456734068E+02
              0.187975054007989E+02
              0.100087790276106E+02
             -0.121856214157591E+02
              0.333348421784789E+02
              0.363953302236077E+02
              0.233298354312049E+02
             -0.517219306571320E+00
             -0.552557716140796E+02
              0.261810933533787E+02
              0.175910447518332E+02
              0.403934228776415E+02
              0.273381003163386E+02
              0.373721629280325E+02
             -0.606451577549998E+01
              0.252262140217805E+02
             -0.299490247640301E+02
             -0.198953402609209E+01
             -0.571193474522377E+02
             -0.309018379368572E+02
              0.380299407439894E+02
             -0.938922074312997E+02
              0.295420945176940E+02
              0.184627568576684E+02
              0.843286764793204E+02
             -0.301213100419444E+02
              0.330652916278809E+02
             -0.138068226047773E+02
             -0.465722041475605E+02
             -0.764061700274905E+02
             -0.530580717918193E+01
             -0.863340427743286E+02
              0.200147343959882E+02
             -0.248278482750598E+02
              0.306940646304682E+02
              0.237694541099154E+02
             -0.242206780987289E+02
             -0.266542140023823E+02
              0.392408500973584E+02
             -0.590492884992042E+02
             -0.117192246396080E+02
             -0.196784976281493E+02
              0.213712242997053E+02
             -0.890596494630711E+01
              0.363219692910872E+01
             -0.201348510442299E+02
              0.560741997013979E+02
             -0.441551189596399E+02
              0.791791229139653E+01
              0.587667246798558E+02
             -0.324696129617376E+02
              0.361532246019394E+01
             -0.881470606900064E+01
             -0.671927206377500E+02
             -0.484077494997486E+02
             -0.862771380042661E+01
              0.241804652541879E+02
              0.303499134675071E+02
              0.862277926360974E+01
             -0.417376683667965E+01
              0.152646203883486E+02
             -0.441483372112619E+02
              0.330872326936304E+01
             -0.533077646659916E+02
             -0.325705362646625E+02
              0.476493791311321E+02
             -0.296230032060948E+02
              0.624953490508675E+02
             -0.215624664850189E+02
              0.354964164690538E+02
              0.242719199396452E+02
             -0.646341728658761E+02
             -0.281429427275715E+02
              0.935059253527919E+01
             -0.373220456344426E+02
             -0.341051623060106E+02
             -0.833081007071080E+02
             -0.541412790900512E+02
             -0.512346622651594E+02
             -0.417197418397961E+02
             -0.978705496366445E+00
              0.100214053657475E+02
              0.106610809776990E+01
              0.154121356611707E+02
             -0.551462259829481E+02
              0.142434597986614E+02
              0.257723223636357E+02
             -0.669321117489456E+02
             -0.704220701579323E+02
             -0.432767959597064E+02
             -0.173074149634681E+02
              0.179158809786903E+02
              0.454464242836127E+01
             -0.427534292534973E+02
              0.367391438965066E+02
             -0.216959463765635E+02
              0.519335976141956E+02
             -0.890406645682961E+02
              0.599973535106682E+02
             -0.215217938833457E+01
             -0.370060912456690E+02
             -0.217291730670417E+02
              0.471467460798418E+01
              0.376330135196484E+02
             -0.759043111686610E+02
             -0.121198474465809E+02
             -0.217389957210736E+02
              0.512749296421916E+02
              0.867827172569380E+02
             -0.968899937399518E+02
              0.947410416543109E+02
              0.469230255870348E+02
             -0.728245073303576E+02
             -0.367801788424402E+02
              0.754849750775995E+02
              0.634126109395783E+02
             -0.182039460312742E+02
             -0.466076986423832E+01
              0.738528903318053E+01
              0.651912253187202E+02
             -0.510566033761753E+02
              0.158941523496454E+02
             -0.474923028113093E+01
              0.348777167481223E+02
             -0.749652943512341E+02
             -0.649756686372215E+01
             -0.352221272314959E+02
              0.462490838245825E+02
              0.470223503948234E+02
             -0.865047265172764E+02
[...]
              0.284319354223182E+02
              0.142276177467588E+03
              0.243511170622405E+02
              0.123199471043091E+02
             -0.466037297356113E+02
             -0.639838032466140E+02
             -0.189559984595928E+02
              0.330832360214775E+02
             -0.430011307539883E+01
              0.190876783030259E+02
              0.337337167575585E+02
             -0.588503136849064E+02
              0.223441159468256E+02
              0.583435550854723E+02
              0.554873451604029E+02
             -0.421662972554293E+01
             -0.135577531886372E+01
             -0.996787332571969E+01
             -0.484018262448729E+02
             -0.677370938109998E+02
              0.788272951226570E+02
             -0.525940715601718E+01
             -0.589852666019771E+02
              0.172382465209824E+01
             -0.206243726021376E+02
              0.941561857623806E+02
             -0.217278363034551E+02
             -0.354794150532548E+02
              0.336446219429899E+02
             -0.146315742651483E+02
              0.391193547628499E+02
             -0.237455619183788E+01
              0.101415315716134E+03
              0.491384089358908E+02
             -0.509396694007188E+01
             -0.323238439657921E+02
              0.233314124794962E+02
             -0.530423434142311E+02
             -0.128120230462521E+02
              0.587862131444816E+02
             -0.288621586203894E+02
             -0.439845143527027E+02
             -0.223926897588026E+02
              0.520369858624667E+02
              0.125217909852311E+02
             -0.851731224532730E+02
              0.305127856185441E+02
              0.152537826665622E+02
              0.580944747281626E+01
             -0.515130100330473E+02
             -0.375163560697956E+01
              0.324260750970242E+02
              0.514538975523769E+02
              0.634836271487410E+02
              0.230060731804660E+02
              0.773087924886397E+00
             -0.499858913694511E+02
             -0.511574799967005E+02
             -0.750257748095450E+02
             -0.619435578761318E+01
              0.310166273032286E+02
             -0.380823779163978E+01
              0.548582094340370E+02
             -0.319129619696650E+02
              0.166931294632352E+02
             -0.103319909888776E+02
             -0.290600157050006E+02
              0.587725483659607E+02
              0.794358111400766E+01
              0.606428818289335E+02
              0.511850632260916E+01
              0.265752603434265E+02
             -0.193220357833923E+02
              0.588243730701234E+02
             -0.112055575778835E+02
             -0.121866499019706E+00
             -0.792787933389852E+02
             -0.128644246146258E+02
              0.721524228987036E+02
              0.675427439624734E+02
              0.252677133566516E+02
             -0.130852132658083E+02
              0.345228140204790E+01
             -0.174184927094779E+02
             -0.210149793236076E+01
              0.910847781061342E+02
              0.125549739342807E+01
             -0.191343231409136E+02
             -0.111117830491299E+03
             -0.554269922645851E+02
             -0.376323507360682E+02
             -0.660795108531491E+02
             -0.557567333523094E+02
             -0.685061908295935E+02
             -0.448703057407288E+02
             -0.411931560771177E+02
             -0.453491174780659E+02
              0.485116011192667E+02
             -0.294822761226103E+02
             -0.998508604930342E+02
              0.420429598189275E+02
             -0.261101082257017E+02
             -0.793501046423885E+02
              0.947235408836478E+02
             -0.220551425008452E+02
              0.228616929560991E+02
              0.456503708783477E+02
             -0.131295810557526E+01
              0.255213169209960E+02
              0.470967812994897E+01
              0.410691785080118E+00
             -0.151141628806107E+02
             -0.718313108099131E+02
              0.133665899150495E+02
             -0.129812240238953E+03
              0.626518802591322E+02
             -0.442068523921066E+02
             -0.163375166501522E+02
             -0.158657140411600E+02
              0.720331014285567E+01
             -0.228267957558681E+02
              0.298071262570290E+02
             -0.522394615662302E+02
              0.368506694928818E+02
              0.372408204089903E+02
              0.168758190889493E+02
              0.100958980327806E+02
              0.198545359920855E+02
              0.624937479036424E+01
              0.311326050960151E+02
             -0.802761328484002E+01
             -0.594637221237936E+02
              0.761342496981376E+01
             -0.153631672553117E+02
             -0.195572545945220E+01
              0.508077952304268E+02
             -0.829609903425887E+02
             -0.147859598477743E+01
              0.579286797659790E+00
              0.998550773611726E+01
              0.319490909888234E+02
             -0.124019925497914E+02
              0.838437342297869E+02
              0.489132827891715E+02
             -0.183798218270897E+02
             -0.958863596633955E+01
              0.108197498943557E+01
              0.772156739153851E+02
             -0.587880965827883E+02
             -0.106113755534847E+03
              0.310249468544937E+02
             -0.163492389564999E+02
             -0.140086895559704E+02
              0.131099063694290E+02
              0.771159605924387E+02
              0.465733834351195E+02
             -0.153998267760306E+02
             -0.504728329117014E+02
             -0.552308727669103E+01
              0.307372203688177E+02
             -0.112143639408264E+02
             -0.758210823662669E+02
             -0.273525952642260E+01
             -0.893100758299277E+02
             -0.477207273673609E+02
              0.771290042369721E+02
             -0.485307170062479E+02
             -0.638910355322972E+02
             -0.516186069580747E+02
             -0.350979779971604E+02
              0.342226885030806E+02
              0.824468040265898E+02
             -0.359851099265541E+01
              0.277434231177072E+02
             -0.184444746703639E+02
             -0.696204859383814E+02
              0.466765564932949E+02
             -0.446659365982403E+02
              0.322651674329081E+02
              0.377325385805933E+02
             -0.660338422086727E+01
              0.391822885463795E+02
              0.439743175633790E+02
              0.101049877942221E+03
             -0.156412903078816E+02
             -0.457740407789118E+02
             -0.614888630201913E+02
             -0.124401988182858E+02
             -0.234163877835187E+02
              0.103344681082393E+03
             -0.450609321465259E+02
              0.105460527761380E+02
              0.972664019737101E+01
             -0.265359722496704E+02
             -0.801723815071284E+02
             -0.702004606941392E+01
              0.983187092375928E+02
              0.943820187832065E+01
              0.811506406627791E+01
             -0.528825486887150E+02
             -0.607204002505996E+02
             -0.567632431432904E+01
              0.501834201241322E+02
             -0.222784347223329E+02
              0.108313347752060E+03
             -0.437240022880177E+02
              0.146942639427269E+02
             -0.224631427774272E+02
             -0.720612430289205E+02
              0.169621786397533E+01
             -0.503409381052384E+02
             -0.763034067915387E+02
              0.619627294669613E+01
              0.235885752811868E+01
              0.515819718588697E+02
              0.188064229256953E+02
             -0.324771599536905E+02
              0.230829233996267E+02
             -0.813875836046267E+02
             -0.523329064879126E+02
              0.904838988981994E+02
              0.142547096037170E+02
             -0.188263550882366E+02
             -0.353350904033740E+02
             -0.271203708567907E+01
             -0.589773969330543E+01
              0.833367527387668E+02
              0.419182270308614E+02
             -0.166346211687822E+02
             -0.121946195864924E+02
             -0.428957798636148E+02
             -0.201254496812741E+02
             -0.672079878568449E+02
              0.461422296754522E+02
              0.549308867439797E+01
              0.145198810830684E+02
              0.156650885317574E+02
             -0.597141265570887E+00
             -0.169122223680330E+02
             -0.307017455871021E+01
             -0.100791149870870E+03
             -0.230413280519238E+02
             -0.768314145271273E+01
             -0.950516054087728E+01
              0.547999631204444E+02
              0.625989429178191E+02
              0.165312094478840E+02
             -0.973715391059220E+02
              0.649530092915254E+02
             -0.215682131997233E+02
             -0.378240339146682E+02
             -0.867104692209941E+02
             -0.387945767915660E+02
              0.566575960052760E+02
              0.245446111769370E+02
              0.519270226122802E+01
              0.293394042397808E+02
             -0.566775940780767E+02
             -0.423880163189657E+02
              0.517274816042097E+02
              0.388482443327932E+02
              0.520471193197940E+02
             -0.120452462204011E+01
              0.688740988640279E+01
              0.571231990619854E+02
              0.966066736883251E+02
             -0.300860126984276E+02
              0.324258080828495E+02
             -0.119431037551991E+02
             -0.413642462043110E+02
             -0.315531525200435E+02
             -0.301303002431828E+02
             -0.131775285552890E+02
             -0.524947752621306E+02
             -0.217890096463430E+02
             -0.141614865549532E+03
              0.370066634856149E+02
              0.207505387733960E+02
             -0.395080093388594E+01
             -0.381332935758060E+02
             -0.204891200970231E+02
             -0.528584977406920E+02
              0.151609757450426E+02
              0.822711556323401E+02
             -0.252773233484805E+02
             -0.163585962836290E+02
              0.238696156697974E+02
             -0.491104519378090E+02
              0.883395955868395E+02
              0.154953484758294E+02
              0.226647596464749E+02
              0.491856523857890E+02
              0.318899768291999E+01
              0.543898257867779E+02
              0.143584306606324E+02
             -0.106679868293230E+02
              0.734226666332421E+01
              0.749724644675098E+00
              0.729390564629730E+02
              0.101527152257101E+02
              0.121181439023272E+02
             -0.130428917059095E+02
              0.132826344842258E+02
             -0.914258637025144E+02
             -0.327121370893005E+02
             -0.458895270362842E+02
              0.486912288102382E+02
             -0.292150843199955E+02
             -0.660473645648214E+02
              0.540442516221391E+02
             -0.122457682021358E+02
              0.441435561805804E+02
             -0.901760652404064E+02
              0.232773133578152E+02
              0.858832025967050E+01
              0.583852869273596E+01
             -0.835377896639346E+01
             -0.906011728250564E+01
              0.481184886165100E+02
              0.200539356437082E+01
             -0.476699153245680E+02
             -0.176785768042110E+02
              0.277382265690772E+02
             -0.118322187206305E+03
             -0.932721911235799E+02
              0.396406370348660E+01
              0.118079819643172E+02
             -0.414795542618069E+02
             -0.390208936973289E+01
              0.112451627645755E+03
              0.307523664781221E+02
             -0.573353206287790E+02
              0.927920358304490E+01
             -0.967225702709018E+01
              0.106146424340225E+02
             -0.338815281459604E+02
              0.196124070474119E+02
              0.285419552716083E+02
             -0.300877471120174E+01
              0.108541428002064E+03
             -0.140557390313246E+02
             -0.317092667791842E+02
              0.143838220081849E+02
              0.467990580387409E+02
             -0.357060981098075E+02
             -0.317826684819145E+01
              0.968043356032608E+02
             -0.465422907071775E+01
              0.623437624677048E+02
              0.135990289196084E+02
             -0.903949846237880E+01
             -0.305931232122344E+02
              0.568259750810791E+02
             -0.516156125380611E+02
             -0.222171363035375E+01
             -0.170607404670561E+02
             -0.406625259494250E+02
              0.185418670563807E+02
              0.240094699447899E+02
              0.116254641277646E+02
              0.712869429979605E+00
             -0.385722038628588E+02
              0.215813079264147E+02
             -0.674887864650137E+01
             -0.247205848988491E+02
             -0.211289876193953E+02
              0.203895520882660E+02
             -0.599423675452374E+01
             -0.350425312831189E+02
             -0.106994023469347E+03
              0.103126348948632E+02
              0.249461156529988E+02
             -0.388872078158320E+02
             -0.211679155161980E+02
              0.809799763936257E+02
              0.654945678272054E+01
              0.312111064212203E+02
              0.393190485774656E+01
              0.323109533277888E+02
              0.648556031568052E+01
             -0.374256165270650E+02
             -0.235643407692203E+01
              0.878292327462930E+01
              0.274851729182388E+02
              0.784468999112779E+02
              0.509007677051197E+02
              0.197124896553987E+00
              0.169746792112832E+02
              0.615197066642456E+02
              0.236773816688767E+02
             -0.755175102439406E+02
             -0.274701319542420E+02
              0.151552123205037E+02
              0.564632974056650E+01
              0.255798828768757E+02
             -0.549509361345900E+02
              0.901398783498075E+01
              0.387360869064277E+02
              0.499600669648013E+02
             -0.436303846530997E+02
             -0.690225197931233E+01
             -0.209117231463324E+01
             -0.134371596591192E+02
             -0.366409597990852E+02
             -0.215774041604051E+02
             -0.205132227868216E+01
              0.796509743642861E+01
              0.422762945604206E+02
             -0.309222642818700E+02
              0.828783616613639E+02
              0.328629042108078E+02
              0.220702468268832E+02
              0.334299021735182E+02
              0.324089939143380E+02
              0.347321917900139E+02
              0.538955945761742E+02
             -0.435436251525794E+02
              0.621684978247551E+02
             -0.112646897164475E+03
              0.308419889703172E+02
             -0.106880547697236E+03
              0.857320767393512E+02
              0.693212030100991E+02
             -0.110171643288876E+02
             -0.494864779189260E+02
             -0.430961463499747E+02
             -0.625374966174376E+02
             -0.630816444210772E+02
              0.553731286876502E+02
              0.406859197732528E+02
              0.237569504383067E+02
              0.374738006521574E+02
              0.404495049259831E+02
             -0.383414202619088E+02
             -0.198417060761540E+02
              0.588379862573271E+02
             -0.116503481699562E+02
              0.553485285222029E+02
              0.701848184480504E+02
             -0.555818228168674E+01
             -0.708705632389516E+02
             -0.874629583490105E+00
             -0.246969502085567E+01
             -0.885917191380940E+01
             -0.179868642791160E+01
             -0.655139982302325E+02
             -0.211117702471481E+02
              0.543107394091656E+01
              0.903503217686605E+01
              0.470518064355262E+02
             -0.399054820353826E+02
              0.659319139112907E+02
             -0.426598514656480E+02
              0.211262173118512E+02
              0.351697800373195E+02
 
 BEEF-vdW xc energy contributions
           1 :   -785.298760532793     
           2 :    721.231035904087     
           3 :   -610.427151363395     
           4 :    480.139239922795     
           5 :   -357.911174749080     
           6 :    263.516452363823     
           7 :   -204.554904184495     
           8 :    176.480918994024     
           9 :   -166.624949161183     
          10 :    160.334257641903     
          11 :   -146.744986660192     
          12 :    122.019654183215     
          13 :   -89.2039316447970     
          14 :    55.3241683072977     
          15 :   -27.4103147826082     
          16 :    9.23810309766463     
          17 :  -3.719071560476550E-002
          18 :   -4.57151260655428     
          19 :    10.0999649382172     
          20 :   -20.4788988819681     
          21 :    36.3555260786518     
          22 :   -55.0816916476766     
          23 :    72.2270656297818     
          24 :   -83.7951897807387     
          25 :    88.0490772752321     
          26 :   -86.1403067065627     
          27 :    81.3515317521075     
          28 :   -77.4085164863158     
          29 :    76.7079030117281     
          30 :   -79.3041417984767     
          31 :   -86.1162204087832     
          32 :   -65.9512081841709     

     Writing output data file ./pwscf.save/
 
     init_run     :    345.75s CPU    350.63s WALL (       1 calls)
     electrons    :  14033.10s CPU  14171.31s WALL (       1 calls)
     forces       :    104.55s CPU    105.85s WALL (       1 calls)

     Called by init_run:
     wfcinit      :    296.83s CPU    300.65s WALL (       1 calls)
     potinit      :     45.39s CPU     45.72s WALL (       1 calls)
     hinit0       :      1.46s CPU      1.51s WALL (       1 calls)

     Called by electrons:
     c_bands      :  11538.36s CPU  11643.89s WALL (      21 calls)
     sum_band     :   1657.49s CPU   1671.65s WALL (      21 calls)
     v_of_rho     :    137.76s CPU    142.28s WALL (      22 calls)
     newd         :     35.92s CPU     50.00s WALL (      22 calls)
     PAW_pot      :    147.15s CPU    147.16s WALL (      22 calls)
     mix_rho      :    562.64s CPU    563.45s WALL (      21 calls)
     vdW_kernel   :     33.47s CPU     33.47s WALL (       1 calls)

     Called by c_bands:
     init_us_2    :     84.71s CPU     84.98s WALL (     572 calls)
     cegterg      :  10686.79s CPU  10792.00s WALL (     273 calls)

     Called by *egterg:
     cdiaghg      :     86.14s CPU     86.17s WALL (    1386 calls)
     h_psi        :   6895.99s CPU   6932.86s WALL (    1399 calls)
     s_psi        :   1131.59s CPU   1131.74s WALL (    1399 calls)
     g_psi        :     17.37s CPU     17.38s WALL (    1113 calls)

     Called by h_psi:
     h_psi:calbec :   1073.03s CPU   1073.44s WALL (    1399 calls)
     vloc_psi     :   4662.33s CPU   4664.08s WALL (    1399 calls)
     add_vuspsi   :   1132.90s CPU   1133.06s WALL (    1399 calls)

     General routines
     calbec       :   1583.71s CPU   1584.17s WALL (    1724 calls)
     fft          :     51.23s CPU     51.25s WALL (    3341 calls)
     ffts         :    175.67s CPU    175.71s WALL (   12225 calls)
     fftw         :   4765.05s CPU   4766.20s WALL (  351829 calls)
 
     Parallel routines
 
     PWSCF        :      4h 3m CPU      4h 6m WALL

 
   This run was terminated on:   2:45:40   4Jan2023            

=------------------------------------------------------------------------------=
   JOB DONE.
=------------------------------------------------------------------------------=
