
     Program PWSCF v.6.7MaX starts on 26Sep2022 at 21: 7:17 

     This program is part of the open-source Quantum ESPRESSO suite
     for quantum simulation of materials; please cite
         "P. Giannozzi et al., J. Phys.:Condens. Matter 21 395502 (2009);
         "P. Giannozzi et al., J. Phys.:Condens. Matter 29 465901 (2017);
          URL http://www.quantum-espresso.org", 
     in publications or presentations arising from this work. More details at
     http://www.quantum-espresso.org/quote

     Parallel version (MPI), running on     1 processors

     MPI processes distributed on     1 nodes
     Reading input from ch3-ensemble.in
Warning: card &CELL ignored
Warning: card / ignored

     Current dimensions of program PWSCF are:
     Max number of different atomic species (ntypx) = 10
     Max number of k-points (npk) =  40000
     Max angular momentum in pseudopotentials (lmaxx) =  3
     file Pt.pbe-n-kjpaw_psl.1.0.0.UPF: wavefunction(s)  6S 5D renormalized
     file C.pbe-n-kjpaw_psl.1.0.0.UPF: wavefunction(s)  2S 2P renormalized
     file H.pbe-kjpaw_psl.1.0.0.UPF: wavefunction(s)  1S renormalized

     **************************************************************************
     Initializing libbeef V0.1.2 with the BEEF-vdW functional.
     Citation: Wellendorff et al., PRB 85, 235149 (2012).
     **************************************************************************


     IMPORTANT: XC functional enforced from input :
     Exchange-correlation= BEEF-VDW
                           (   1   4  43  14   2   0   0)
     Any further DFT definition will be discarded
     Please, verify this is what you really want


     Subspace diagonalization in iterative solution of the eigenvalue problem:
     a serial algorithm will be used

 
     G-vector sticks info
     --------------------
     sticks:   dense  smooth     PW     G-vecs:    dense   smooth      PW
     Sum        4267    4267   1159               701953   701953   99063
 


     bravais-lattice index     =            0
     lattice parameter (alat)  =      16.0349  a.u.
     unit-cell volume          =   11173.4907 (a.u.)^3
     number of atoms/cell      =           40
     number of atomic types    =            3
     number of electrons       =       367.00
     number of Kohn-Sham states=          221
     kinetic-energy cutoff     =      60.0000  Ry
     charge density cutoff     =     240.0000  Ry
     scf convergence threshold =      1.0E-06
     mixing beta               =       0.7000
     number of iterations used =            8  local-TF  mixing
     Exchange-correlation= BEEF-VDW
                           (   1   4  43  14   2   0   0)

     celldm(1)=  16.034858  celldm(2)=   0.000000  celldm(3)=   0.000000
     celldm(4)=   0.000000  celldm(5)=   0.000000  celldm(6)=   0.000000

     crystal axes: (cart. coord. in units of alat)
               a(1) = (   1.000000   0.000000   0.000000 )  
               a(2) = (   0.500000   0.866025   0.000000 )  
               a(3) = (   0.000000   0.000000   3.129413 )  

     reciprocal axes: (cart. coord. in units 2 pi/alat)
               b(1) = (  1.000000 -0.577350  0.000000 )  
               b(2) = (  0.000000  1.154701  0.000000 )  
               b(3) = (  0.000000  0.000000  0.319549 )  


     PseudoPot. # 1 for Pt read from file:
     /users/bkreitz1/quantum-espresso/potentials/Pt.pbe-n-kjpaw_psl.1.0.0.UPF
     MD5 check sum: 04dc8a03c51ece93fc7b5889c2958091
     Pseudo is Projector augmented-wave + core cor, Zval = 10.0
     Generated using 'atomic' code by A. Dal Corso  v.6.7MaX
     Shape of augmentation charge: PSQ
     Using radial grid of 1277 points,  6 beta functions with: 
                l(1) =   0
                l(2) =   0
                l(3) =   1
                l(4) =   1
                l(5) =   2
                l(6) =   2
     Q(r) pseudized with 0 coefficients 


     PseudoPot. # 2 for C  read from file:
     /users/bkreitz1/quantum-espresso/potentials/C.pbe-n-kjpaw_psl.1.0.0.UPF
     MD5 check sum: a169b0ebad56f5ec0d79c4633f80bf22
     Pseudo is Projector augmented-wave + core cor, Zval =  4.0
     Generated using 'atomic' code by A. Dal Corso  v.6.7MaX
     Shape of augmentation charge: PSQ
     Using radial grid of 1073 points,  4 beta functions with: 
                l(1) =   0
                l(2) =   0
                l(3) =   1
                l(4) =   1
     Q(r) pseudized with 0 coefficients 


     PseudoPot. # 3 for H  read from file:
     /users/bkreitz1/quantum-espresso/potentials/H.pbe-kjpaw_psl.1.0.0.UPF
     MD5 check sum: ae98473e6dc62675f0d0baffdab24f65
     Pseudo is Projector augmented-wave, Zval =  1.0
     Generated using 'atomic' code by A. Dal Corso  v.6.7MaX
     Shape of augmentation charge: PSQ
     Using radial grid of  929 points,  2 beta functions with: 
                l(1) =   0
                l(2) =   0
     Q(r) pseudized with 0 coefficients 


     atomic species   valence    mass     pseudopotential
        Pt            10.00   195.08400     Pt( 1.00)
        C              4.00    12.01100     C ( 1.00)
        H              1.00     1.00800     H ( 1.00)

     No symmetry found



   Cartesian axes

     site n.     atom                  positions (alat units)
         1           Pt  tau(   1) = (   0.0000000   0.0000000   1.0017346  )
         2           Pt  tau(   2) = (   0.3333333   0.0000000   1.0017346  )
         3           Pt  tau(   3) = (   0.6666667   0.0000000   1.0017346  )
         4           Pt  tau(   4) = (   0.1666667   0.2886751   1.0017346  )
         5           Pt  tau(   5) = (   0.5000000   0.2886751   1.0017346  )
         6           Pt  tau(   6) = (   0.8333333   0.2886751   1.0017346  )
         7           Pt  tau(   7) = (   0.3333333   0.5773503   1.0017346  )
         8           Pt  tau(   8) = (   0.6666667   0.5773503   1.0017346  )
         9           Pt  tau(   9) = (   1.0000000   0.5773503   1.0017346  )
        10           Pt  tau(  10) = (   0.1666667   0.0962250   1.2739001  )
        11           Pt  tau(  11) = (   0.5000000   0.0962250   1.2739001  )
        12           Pt  tau(  12) = (   0.8333333   0.0962250   1.2739001  )
        13           Pt  tau(  13) = (   0.3333333   0.3849002   1.2739001  )
        14           Pt  tau(  14) = (   0.6666667   0.3849002   1.2739001  )
        15           Pt  tau(  15) = (   1.0000000   0.3849002   1.2739001  )
        16           Pt  tau(  16) = (   0.5000000   0.6735753   1.2739001  )
        17           Pt  tau(  17) = (   0.8333333   0.6735753   1.2739001  )
        18           Pt  tau(  18) = (   1.1666667   0.6735753   1.2739001  )
        19           Pt  tau(  19) = (  -0.0000203   0.1926570   1.5415176  )
        20           Pt  tau(  20) = (   0.3353125   0.1935970   1.5464858  )
        21           Pt  tau(  21) = (   0.6645386   0.1935883   1.5464609  )
        22           Pt  tau(  22) = (   0.1668834   0.4808522   1.5422204  )
        23           Pt  tau(  23) = (   0.4999419   0.4786901   1.5464655  )
        24           Pt  tau(  24) = (   0.8329326   0.4808901   1.5422260  )
        25           Pt  tau(  25) = (   0.3330320   0.7696710   1.5415629  )
        26           Pt  tau(  26) = (   0.6667898   0.7695863   1.5415303  )
        27           Pt  tau(  27) = (   0.9999208   0.7701037   1.5422234  )
        28           Pt  tau(  28) = (  -0.0001317  -0.0000959   1.8153167  )
        29           Pt  tau(  29) = (   0.3327633  -0.0004074   1.8155934  )
        30           Pt  tau(  30) = (   0.6668272  -0.0002562   1.8158544  )
        31           Pt  tau(  31) = (   0.1662422   0.2883593   1.8158048  )
        32           Pt  tau(  32) = (   0.5000310   0.2887123   1.8433939  )
        33           Pt  tau(  33) = (   0.8337267   0.2883549   1.8156275  )
        34           Pt  tau(  34) = (   0.3331174   0.5777587   1.8156522  )
        35           Pt  tau(  35) = (   0.6665131   0.5776369   1.8158558  )
        36           Pt  tau(  36) = (   0.9998369   0.5772239   1.8155234  )
        37           C   tau(  37) = (   0.4999758   0.2886472   2.0894481  )
        38           H   tau(  38) = (   0.4054944   0.2107497   2.1280744  )
        39           H   tau(  39) = (   0.6144771   0.2457854   2.1286989  )
        40           H   tau(  40) = (   0.4797439   0.4092228   2.1298744  )

     number of k points=    13  Marzari-Vanderbilt smearing, width (Ry)=  0.0200
                       cart. coord. in units 2pi/alat
        k(    1) = (   0.0000000   0.0000000   0.0000000), wk =   0.0800000
        k(    2) = (   0.0000000   0.2309401   0.0000000), wk =   0.1600000
        k(    3) = (   0.0000000   0.4618802   0.0000000), wk =   0.1600000
        k(    4) = (   0.2000000  -0.1154701   0.0000000), wk =   0.1600000
        k(    5) = (   0.2000000   0.1154701   0.0000000), wk =   0.1600000
        k(    6) = (   0.2000000   0.3464102   0.0000000), wk =   0.1600000
        k(    7) = (   0.2000000  -0.5773503   0.0000000), wk =   0.1600000
        k(    8) = (   0.2000000  -0.3464102   0.0000000), wk =   0.1600000
        k(    9) = (   0.4000000  -0.2309401   0.0000000), wk =   0.1600000
        k(   10) = (   0.4000000  -0.0000000   0.0000000), wk =   0.1600000
        k(   11) = (   0.4000000   0.2309401   0.0000000), wk =   0.1600000
        k(   12) = (   0.4000000  -0.6928203   0.0000000), wk =   0.1600000
        k(   13) = (   0.4000000  -0.4618802   0.0000000), wk =   0.1600000

     Dense  grid:   701953 G-vectors     FFT dimensions: (  80,  80, 250)

     Estimated max dynamical RAM per process >       8.41 GB

     Check: negative core charge=   -0.000001

     Initial potential from superposition of free atoms

     starting charge  366.99382, renormalised to  367.00000

     negative rho (up, down):  1.160E-02 0.000E+00


     %%%%%%%%%%%%%%%%%%%%%%%%%%%%%%%%%%%%%%%%%%%%%%%%%%%%%%%%%%%%%%%%%%%%%%%%
     %                                                                      %
     % You are using vdW-DF, which was implemented by the Thonhauser group. %
     % Please cite the following two papers that made this development      %
     % possible and the two reviews that describe the various versions:     %
     %                                                                      %
     %   T. Thonhauser et al., PRL 115, 136402 (2015).                      %
     %   T. Thonhauser et al., PRB 76, 125112 (2007).                       %
     %   K. Berland et al., Rep. Prog. Phys. 78, 066501 (2015).             %
     %   D.C. Langreth et al., J. Phys.: Condens. Matter 21, 084203 (2009). %
     %                                                                      %
     %                                                                      %
     % If you are calculating the stress with vdW-DF, please also cite:     %
     %                                                                      %
     %   R. Sabatini et al., J. Phys.: Condens. Matter 24, 424209 (2012).   %
     %                                                                      %
     %%%%%%%%%%%%%%%%%%%%%%%%%%%%%%%%%%%%%%%%%%%%%%%%%%%%%%%%%%%%%%%%%%%%%%%%


     Starting wfcs are  331 randomized atomic wfcs
     Checking if some PAW data can be deallocated... 

     total cpu time spent up to now is      318.7 secs

     Self-consistent Calculation

     iteration #  1     ecut=    60.00 Ry     beta= 0.70
     Davidson diagonalization with overlap
     ethr =  1.00E-02,  avg # of iterations =  2.4

     Threshold (ethr) on eigenvalues was too large:
     Diagonalizing with lowered threshold

     Davidson diagonalization with overlap
     ethr =  6.20E-04,  avg # of iterations =  3.5

     negative rho (up, down):  1.227E-02 0.000E+00

     total cpu time spent up to now is     1586.0 secs

     total energy              =  -27776.71135562 Ry
     estimated scf accuracy    <       2.51495292 Ry

     iteration #  2     ecut=    60.00 Ry     beta= 0.70
     Davidson diagonalization with overlap
     ethr =  6.85E-04,  avg # of iterations =  2.0

     negative rho (up, down):  1.058E-02 0.000E+00

     total cpu time spent up to now is     2150.2 secs

     total energy              =  -27776.83701675 Ry
     estimated scf accuracy    <       1.04139697 Ry

     iteration #  3     ecut=    60.00 Ry     beta= 0.70
     Davidson diagonalization with overlap
     ethr =  2.84E-04,  avg # of iterations =  2.6

     negative rho (up, down):  7.422E-03 0.000E+00

     total cpu time spent up to now is     2720.4 secs

     total energy              =  -27776.88790950 Ry
     estimated scf accuracy    <       0.28224415 Ry

     iteration #  4     ecut=    60.00 Ry     beta= 0.70
     Davidson diagonalization with overlap
     ethr =  7.69E-05,  avg # of iterations = 10.5

     negative rho (up, down):  6.283E-03 0.000E+00

     total cpu time spent up to now is     3524.7 secs

     total energy              =  -27776.94702868 Ry
     estimated scf accuracy    <       0.15678894 Ry

     iteration #  5     ecut=    60.00 Ry     beta= 0.70
     Davidson diagonalization with overlap
     ethr =  4.27E-05,  avg # of iterations =  2.0

     negative rho (up, down):  4.615E-03 0.000E+00

     total cpu time spent up to now is     4086.1 secs

     total energy              =  -27776.94924446 Ry
     estimated scf accuracy    <       0.03260814 Ry

     iteration #  6     ecut=    60.00 Ry     beta= 0.70
     Davidson diagonalization with overlap
     c_bands:  1 eigenvalues not converged
     c_bands:  1 eigenvalues not converged
     c_bands:  1 eigenvalues not converged
     ethr =  8.89E-06,  avg # of iterations =  9.7

     negative rho (up, down):  4.466E-03 0.000E+00

     total cpu time spent up to now is     4849.4 secs

     total energy              =  -27776.95541539 Ry
     estimated scf accuracy    <       0.01144178 Ry

     iteration #  7     ecut=    60.00 Ry     beta= 0.70
     Davidson diagonalization with overlap
     ethr =  3.12E-06,  avg # of iterations =  8.3

     negative rho (up, down):  4.820E-03 0.000E+00

     total cpu time spent up to now is     5481.6 secs

     total energy              =  -27776.95594141 Ry
     estimated scf accuracy    <       0.00604313 Ry

     iteration #  8     ecut=    60.00 Ry     beta= 0.70
     Davidson diagonalization with overlap
     ethr =  1.65E-06,  avg # of iterations =  9.5

     negative rho (up, down):  5.852E-03 0.000E+00

     total cpu time spent up to now is     6114.4 secs

     total energy              =  -27776.95641036 Ry
     estimated scf accuracy    <       0.00313861 Ry

     iteration #  9     ecut=    60.00 Ry     beta= 0.70
     Davidson diagonalization with overlap
     ethr =  8.55E-07,  avg # of iterations =  3.5

     negative rho (up, down):  7.001E-03 0.000E+00

     total cpu time spent up to now is     6690.0 secs

     total energy              =  -27776.95660285 Ry
     estimated scf accuracy    <       0.00072053 Ry

     iteration # 10     ecut=    60.00 Ry     beta= 0.70
     Davidson diagonalization with overlap
     ethr =  1.96E-07,  avg # of iterations =  6.2

     negative rho (up, down):  7.704E-03 0.000E+00

     total cpu time spent up to now is     7378.1 secs

     total energy              =  -27776.95675843 Ry
     estimated scf accuracy    <       0.00024518 Ry

     iteration # 11     ecut=    60.00 Ry     beta= 0.70
     Davidson diagonalization with overlap
     ethr =  6.68E-08,  avg # of iterations =  4.0

     negative rho (up, down):  8.239E-03 0.000E+00

     total cpu time spent up to now is     7999.1 secs

     total energy              =  -27776.95679626 Ry
     estimated scf accuracy    <       0.00018054 Ry

     iteration # 12     ecut=    60.00 Ry     beta= 0.70
     Davidson diagonalization with overlap
     ethr =  4.92E-08,  avg # of iterations =  2.0

     negative rho (up, down):  8.544E-03 0.000E+00

     total cpu time spent up to now is     8552.6 secs

     total energy              =  -27776.95680370 Ry
     estimated scf accuracy    <       0.00009951 Ry

     iteration # 13     ecut=    60.00 Ry     beta= 0.70
     Davidson diagonalization with overlap
     ethr =  2.71E-08,  avg # of iterations =  2.0

     negative rho (up, down):  1.027E-02 0.000E+00

     total cpu time spent up to now is     9102.9 secs

     total energy              =  -27776.95680014 Ry
     estimated scf accuracy    <       0.00007844 Ry

     iteration # 14     ecut=    60.00 Ry     beta= 0.70
     Davidson diagonalization with overlap
     ethr =  2.14E-08,  avg # of iterations =  2.0

     negative rho (up, down):  1.087E-02 0.000E+00

     total cpu time spent up to now is     9658.0 secs

     total energy              =  -27776.95679810 Ry
     estimated scf accuracy    <       0.00003246 Ry

     iteration # 15     ecut=    60.00 Ry     beta= 0.70
     Davidson diagonalization with overlap
     ethr =  8.84E-09,  avg # of iterations =  2.3

     negative rho (up, down):  1.169E-02 0.000E+00

     total cpu time spent up to now is    10227.3 secs

     total energy              =  -27776.95679518 Ry
     estimated scf accuracy    <       0.00001828 Ry

     iteration # 16     ecut=    60.00 Ry     beta= 0.70
     Davidson diagonalization with overlap
     ethr =  4.98E-09,  avg # of iterations =  2.0

     negative rho (up, down):  1.175E-02 0.000E+00

     total cpu time spent up to now is    10801.2 secs

     total energy              =  -27776.95679713 Ry
     estimated scf accuracy    <       0.00000827 Ry

     iteration # 17     ecut=    60.00 Ry     beta= 0.70
     Davidson diagonalization with overlap
     ethr =  2.25E-09,  avg # of iterations =  4.0

     negative rho (up, down):  1.201E-02 0.000E+00

     total cpu time spent up to now is    11465.3 secs

     total energy              =  -27776.95679766 Ry
     estimated scf accuracy    <       0.00000292 Ry

     iteration # 18     ecut=    60.00 Ry     beta= 0.70
     Davidson diagonalization with overlap
     ethr =  7.96E-10,  avg # of iterations =  4.3

     negative rho (up, down):  1.229E-02 0.000E+00

     total cpu time spent up to now is    12144.8 secs

     total energy              =  -27776.95679775 Ry
     estimated scf accuracy    <       0.00000150 Ry

     iteration # 19     ecut=    60.00 Ry     beta= 0.70
     Davidson diagonalization with overlap
     ethr =  4.10E-10,  avg # of iterations =  3.0

     negative rho (up, down):  1.245E-02 0.000E+00

     total cpu time spent up to now is    12748.1 secs

     End of self-consistent calculation

          k = 0.0000 0.0000 0.0000 ( 87819 PWs)   bands (ev):

   -10.2049  -6.9204  -5.6242  -4.5517  -4.5182  -4.5177  -4.5171  -4.4976
    -4.4860  -4.4784  -4.4782  -3.9602  -3.9545  -3.9543  -3.9455  -3.9380
    -3.9377  -3.4907  -3.4886  -3.4841  -3.4835  -3.4807  -3.4593  -3.4211
    -3.4062  -3.2776  -3.2580  -3.2550  -3.2549  -3.2332  -3.2298  -3.0387
    -3.0349  -3.0346  -3.0265  -3.0202  -3.0201  -3.0118  -3.0116  -2.9953
    -2.9755  -2.9749  -2.9696  -2.4460  -2.4174  -2.4173  -2.3851  -2.3849
    -2.3378  -2.3284  -2.3283  -2.2903  -2.2896  -2.2262  -2.1906  -2.1506
    -2.1068  -1.7999  -1.6005  -1.5967  -1.5965  -1.5687  -1.5524  -1.5522
    -1.5070  -1.4239  -1.4237  -1.4153  -1.4147  -1.3893  -1.3890  -1.3718
    -1.3648  -1.3647  -1.3467  -1.3413  -1.3412  -1.3099  -1.3098  -1.2711
    -1.1830  -1.1830  -1.1748  -1.1700  -1.1696  -1.0213  -1.0212  -1.0207
    -0.9870  -0.9699  -0.9696  -0.9230  -0.9228  -0.8816  -0.8625  -0.8625
    -0.8106  -0.8104  -0.7537  -0.7537  -0.7141  -0.7141  -0.6524  -0.6521
    -0.5768  -0.5520  -0.5514  -0.5420  -0.4958  -0.4957  -0.1343  -0.1006
    -0.1006  -0.0697  -0.0565  -0.0564  -0.0509  -0.0476   0.0104   0.0104
     0.0218   0.0980   0.0997   0.0999   0.1064   0.2231   0.2509   0.2509
     0.3218   0.3220   0.3643   0.4196   0.4205   0.4283   0.4290   0.4339
     0.4341   0.6687   0.6691   0.6720   0.6880   0.6881   0.7053   0.7499
     0.7499   0.9306   0.9311   0.9363   0.9484   0.9488   1.0068   1.0975
     1.0976   1.1045   1.1179   1.1182   1.1395   1.1397   1.1500   1.1508
     1.1639   1.1640   1.2359   1.2718   1.2720   1.2789   1.2935   1.2935
     1.3028   1.3290   1.3806   1.3807   1.3888   1.3890   1.4088   1.4173
     1.4259   1.4260   1.4962   1.4962   1.5011   1.5166   1.5223   1.5224
     1.5409   1.5861   1.6204   1.6220   1.6223   1.6458   1.6459   1.8284
     1.8292   1.9229   1.9232   1.9582   1.9618   1.9621   1.9723   2.2853
     2.7677   2.8326   2.8330   2.8485   2.8730   2.8735   4.1437   5.1339
     5.1343   5.1557   5.1561   5.1888   5.9389   6.5798   6.7193   6.7563
     6.7635   6.7643   6.7675   6.7780   6.7790

          k = 0.0000 0.2309 0.0000 ( 87688 PWs)   bands (ev):

   -10.2047  -6.7737  -5.4800  -5.0160  -4.6182  -4.6144  -4.4043  -4.3615
    -4.3102  -4.2651  -4.2635  -4.0726  -4.0392  -3.8917  -3.8869  -3.8680
    -3.8671  -3.5904  -3.4744  -3.4601  -3.4482  -3.4317  -3.4203  -3.3748
    -3.3506  -3.3455  -3.2956  -3.2909  -3.2788  -3.2463  -3.2097  -3.1716
    -3.1543  -3.0635  -3.0564  -3.0447  -3.0100  -3.0024  -2.8391  -2.8227
    -2.8217  -2.7965  -2.7790  -2.5542  -2.5425  -2.5102  -2.4568  -2.4484
    -2.4227  -2.3939  -2.2726  -2.2156  -2.1967  -2.1582  -2.1391  -2.1115
    -2.0977  -1.9303  -1.8376  -1.7814  -1.7369  -1.6987  -1.6928  -1.6549
    -1.6088  -1.5795  -1.5714  -1.5528  -1.5449  -1.4949  -1.4842  -1.4186
    -1.3980  -1.3956  -1.3772  -1.3161  -1.3003  -1.2854  -1.2379  -1.2253
    -1.1996  -1.1390  -1.1184  -1.1165  -1.1149  -1.0584  -1.0214  -1.0178
    -1.0086  -1.0005  -0.9667  -0.9406  -0.9086  -0.8730  -0.8724  -0.8398
    -0.8297  -0.7938  -0.7869  -0.7587  -0.7392  -0.7117  -0.7088  -0.6055
    -0.5747  -0.5636  -0.5599  -0.5481  -0.5308  -0.4900  -0.4848  -0.4623
    -0.4537  -0.4106  -0.3277  -0.2998  -0.1402  -0.1352  -0.0887  -0.0509
    -0.0262  -0.0111  -0.0065   0.0055   0.0419   0.1558   0.1699   0.2275
     0.2879   0.3088   0.3451   0.3594   0.3861   0.4162   0.4432   0.4747
     0.4867   0.5311   0.5563   0.5675   0.5778   0.5912   0.7555   0.7605
     0.7912   0.7993   0.8245   0.8501   0.8639   0.9265   0.9443   0.9614
     0.9736   0.9877   1.0443   1.0551   1.0659   1.0869   1.1702   1.1742
     1.2001   1.2624   1.2947   1.3131   1.3320   1.3614   1.3665   1.3762
     1.4043   1.4545   1.4891   1.4933   1.5417   1.5563   1.5573   1.5989
     1.6029   1.6056   1.6108   1.6176   1.6681   1.6807   1.8099   1.8137
     1.8529   1.8668   1.8684   1.8837   1.9157   1.9432   1.9496   1.9671
     2.0407   2.0689   2.0914   2.0957   2.2472   2.2557   2.2704   2.3019
     2.5820   2.7197   3.1220   3.4379   3.4458   3.5640   4.1161   4.5940
     4.8681   5.2293   5.5838   5.5845   5.7119   5.8843   6.1822   6.5441
     6.5510   6.6642   6.8806   6.9557   6.9572

          k = 0.0000 0.4619 0.0000 ( 87682 PWs)   bands (ev):

   -10.2044  -6.3513  -5.7165  -5.0754  -4.6520  -4.6476  -4.5220  -4.2843
    -4.1308  -4.0120  -3.9767  -3.9253  -3.9248  -3.7667  -3.7536  -3.7192
    -3.7044  -3.6980  -3.5948  -3.5474  -3.5422  -3.5056  -3.5030  -3.4512
    -3.4283  -3.3885  -3.3648  -3.3434  -3.3290  -3.2962  -3.0906  -3.0829
    -3.0790  -3.0768  -3.0614  -3.0463  -2.8490  -2.8367  -2.7978  -2.7921
    -2.7887  -2.7549  -2.5832  -2.5102  -2.5014  -2.4849  -2.4740  -2.4266
    -2.4139  -2.3693  -2.3502  -2.3354  -2.2807  -2.2743  -2.1386  -2.1255
    -2.1182  -2.0793  -2.0191  -1.9769  -1.9204  -1.9042  -1.8982  -1.7807
    -1.7554  -1.6889  -1.6765  -1.6593  -1.6451  -1.6024  -1.5733  -1.5304
    -1.4543  -1.4471  -1.4190  -1.3869  -1.3232  -1.3061  -1.2948  -1.2906
    -1.2675  -1.2197  -1.2024  -1.1915  -1.1861  -1.1740  -1.1605  -1.1382
    -1.1355  -1.0847  -1.0382  -1.0298  -1.0066  -1.0060  -0.9719  -0.9361
    -0.8662  -0.8547  -0.8189  -0.7700  -0.7566  -0.7359  -0.7199  -0.6956
    -0.6755  -0.6065  -0.5649  -0.5489  -0.4975  -0.4704  -0.4358  -0.4083
    -0.3021  -0.3011  -0.2545  -0.2197  -0.1657  -0.1485  -0.1205  -0.0873
    -0.0811  -0.0763  -0.0231  -0.0029   0.0026   0.0229   0.0317   0.0435
     0.0694   0.1032   0.1419   0.1478   0.2268   0.2423   0.2911   0.3089
     0.3564   0.4383   0.4509   0.4592   0.5625   0.5737   0.6597   0.6939
     0.7372   0.7641   0.7756   0.7894   0.8237   0.8386   0.8951   0.8974
     0.9383   0.9684   0.9906   1.0569   1.0771   1.0963   1.1101   1.1299
     1.1575   1.2372   1.3141   1.3296   1.3672   1.3907   1.4010   1.4153
     1.4876   1.5123   1.5218   1.5947   1.6087   1.6141   1.6687   1.6813
     1.6993   1.7217   1.7986   1.8171   1.8463   1.8566   1.8754   1.8763
     1.8883   1.8971   2.0691   2.0735   2.0951   2.1184   2.1207   2.2873
     2.3305   2.5145   2.7281   2.7932   2.9006   3.1490   3.1599   3.4624
     3.5487   3.5756   3.8922   3.9985   4.3659   4.3730   4.4108   4.5536
     4.6481   4.7028   4.7653   5.0282   5.0305   5.2822   5.6680   5.8054
     6.2013   6.2850   6.6700   6.8014   6.9595

          k = 0.2000-0.1155 0.0000 ( 87688 PWs)   bands (ev):

   -10.2047  -6.7737  -5.4800  -5.0160  -4.6182  -4.6145  -4.4043  -4.3615
    -4.3101  -4.2651  -4.2635  -4.0726  -4.0392  -3.8917  -3.8868  -3.8681
    -3.8670  -3.5907  -3.4729  -3.4622  -3.4491  -3.4318  -3.4138  -3.3806
    -3.3495  -3.3465  -3.2960  -3.2904  -3.2788  -3.2450  -3.2097  -3.1716
    -3.1547  -3.0635  -3.0564  -3.0443  -3.0100  -3.0024  -2.8391  -2.8226
    -2.8219  -2.7966  -2.7792  -2.5544  -2.5425  -2.5106  -2.4568  -2.4485
    -2.4225  -2.3936  -2.2722  -2.2155  -2.1966  -2.1583  -2.1394  -2.1115
    -2.0977  -1.9304  -1.8376  -1.7814  -1.7370  -1.6986  -1.6927  -1.6553
    -1.6089  -1.5794  -1.5714  -1.5529  -1.5449  -1.4946  -1.4837  -1.4186
    -1.3981  -1.3961  -1.3773  -1.3161  -1.3001  -1.2851  -1.2380  -1.2253
    -1.1998  -1.1390  -1.1187  -1.1163  -1.1149  -1.0587  -1.0212  -1.0178
    -1.0087  -1.0006  -0.9667  -0.9406  -0.9085  -0.8732  -0.8723  -0.8398
    -0.8297  -0.7938  -0.7869  -0.7587  -0.7392  -0.7113  -0.7089  -0.6056
    -0.5746  -0.5636  -0.5600  -0.5480  -0.5308  -0.4900  -0.4851  -0.4622
    -0.4538  -0.4109  -0.3276  -0.2982  -0.1409  -0.1353  -0.0887  -0.0509
    -0.0263  -0.0111  -0.0061   0.0055   0.0420   0.1558   0.1696   0.2275
     0.2880   0.3089   0.3450   0.3595   0.3861   0.4163   0.4433   0.4741
     0.4867   0.5311   0.5563   0.5675   0.5777   0.5912   0.7556   0.7606
     0.7912   0.7993   0.8245   0.8501   0.8639   0.9265   0.9443   0.9614
     0.9736   0.9876   1.0443   1.0550   1.0659   1.0869   1.1701   1.1742
     1.2001   1.2626   1.2947   1.3132   1.3320   1.3614   1.3665   1.3762
     1.4043   1.4546   1.4891   1.4933   1.5417   1.5563   1.5573   1.5989
     1.6029   1.6056   1.6108   1.6175   1.6681   1.6807   1.8099   1.8136
     1.8529   1.8668   1.8684   1.8837   1.9156   1.9432   1.9495   1.9671
     2.0410   2.0690   2.0914   2.0955   2.2471   2.2557   2.2704   2.3019
     2.5820   2.7196   3.1220   3.4379   3.4458   3.5641   4.1160   4.5940
     4.8681   5.2293   5.5839   5.5845   5.7119   5.8844   6.1820   6.5442
     6.5511   6.6639   6.8808   6.9558   6.9575

          k = 0.2000 0.1155 0.0000 ( 87688 PWs)   bands (ev):

   -10.2047  -6.7737  -5.4800  -5.0158  -4.6182  -4.6148  -4.4043  -4.3615
    -4.3097  -4.2652  -4.2638  -4.0728  -4.0393  -3.8916  -3.8866  -3.8681
    -3.8668  -3.5911  -3.4694  -3.4652  -3.4494  -3.4310  -3.4121  -3.3838
    -3.3506  -3.3447  -3.2956  -3.2910  -3.2789  -3.2441  -3.2097  -3.1718
    -3.1551  -3.0636  -3.0561  -3.0440  -3.0102  -3.0024  -2.8391  -2.8227
    -2.8218  -2.7966  -2.7795  -2.5546  -2.5426  -2.5106  -2.4567  -2.4485
    -2.4227  -2.3934  -2.2722  -2.2156  -2.1966  -2.1583  -2.1393  -2.1116
    -2.0976  -1.9306  -1.8377  -1.7813  -1.7370  -1.6992  -1.6929  -1.6555
    -1.6090  -1.5790  -1.5715  -1.5525  -1.5447  -1.4945  -1.4835  -1.4188
    -1.3982  -1.3964  -1.3773  -1.3160  -1.2991  -1.2842  -1.2381  -1.2256
    -1.2000  -1.1392  -1.1194  -1.1169  -1.1144  -1.0594  -1.0210  -1.0174
    -1.0089  -1.0006  -0.9666  -0.9408  -0.9082  -0.8733  -0.8716  -0.8404
    -0.8296  -0.7937  -0.7870  -0.7582  -0.7393  -0.7114  -0.7086  -0.6055
    -0.5746  -0.5638  -0.5598  -0.5478  -0.5309  -0.4901  -0.4854  -0.4623
    -0.4539  -0.4107  -0.3275  -0.2980  -0.1413  -0.1357  -0.0886  -0.0509
    -0.0262  -0.0110  -0.0062   0.0057   0.0425   0.1560   0.1696   0.2275
     0.2883   0.3092   0.3440   0.3602   0.3864   0.4165   0.4432   0.4741
     0.4867   0.5312   0.5565   0.5675   0.5775   0.5912   0.7558   0.7606
     0.7912   0.7993   0.8242   0.8502   0.8638   0.9264   0.9443   0.9612
     0.9735   0.9874   1.0444   1.0550   1.0657   1.0868   1.1701   1.1743
     1.1999   1.2629   1.2949   1.3133   1.3321   1.3612   1.3666   1.3764
     1.4044   1.4548   1.4892   1.4932   1.5417   1.5562   1.5573   1.5987
     1.6031   1.6056   1.6107   1.6174   1.6684   1.6811   1.8102   1.8135
     1.8528   1.8667   1.8683   1.8833   1.9152   1.9429   1.9493   1.9669
     2.0414   2.0690   2.0914   2.0955   2.2471   2.2556   2.2701   2.3022
     2.5817   2.7191   3.1222   3.4382   3.4457   3.5643   4.1161   4.5942
     4.8676   5.2291   5.5839   5.5845   5.7118   5.8845   6.1821   6.5441
     6.5513   6.6644   6.8809   6.9553   6.9572

          k = 0.2000 0.3464 0.0000 ( 87656 PWs)   bands (ev):

   -10.2045  -6.4884  -5.2722  -5.2550  -5.2031  -4.1939  -4.1868  -4.1761
    -4.1692  -4.1297  -4.1219  -4.1008  -4.0949  -4.0032  -3.9937  -3.6261
    -3.6173  -3.6094  -3.6034  -3.5538  -3.5179  -3.4297  -3.3959  -3.3678
    -3.3481  -3.3472  -3.3191  -3.3052  -3.2477  -3.2117  -3.1863  -3.1722
    -3.1703  -3.1189  -3.0803  -3.0686  -3.0453  -3.0316  -2.9433  -2.6868
    -2.6104  -2.5935  -2.5754  -2.5703  -2.5510  -2.5357  -2.5054  -2.4771
    -2.4625  -2.3128  -2.3023  -2.2956  -2.2069  -2.1775  -2.1536  -2.1315
    -2.1138  -2.0764  -2.0291  -1.9169  -1.8657  -1.8373  -1.7897  -1.7442
    -1.7356  -1.7280  -1.7124  -1.6550  -1.6384  -1.6128  -1.5013  -1.4768
    -1.4638  -1.4314  -1.4058  -1.3849  -1.3495  -1.3280  -1.3247  -1.3003
    -1.1964  -1.1739  -1.1688  -1.1473  -1.1447  -1.1236  -1.1173  -1.0851
    -1.0691  -1.0352  -1.0062  -0.9719  -0.9196  -0.9171  -0.9001  -0.8572
    -0.8242  -0.8171  -0.7891  -0.7787  -0.7540  -0.7391  -0.7221  -0.7193
    -0.7002  -0.6762  -0.6333  -0.6260  -0.5969  -0.5415  -0.5190  -0.4869
    -0.4445  -0.4082  -0.3805  -0.3520  -0.2896  -0.2065  -0.1627  -0.0717
    -0.0568  -0.0216  -0.0044   0.0002   0.0185   0.0502   0.0753   0.0874
     0.0988   0.1630   0.1799   0.2205   0.3050   0.3744   0.3898   0.4159
     0.4403   0.4678   0.4974   0.5053   0.6032   0.6313   0.6359   0.6795
     0.6945   0.7460   0.8117   0.8253   0.8475   0.8585   0.9062   0.9292
     0.9312   0.9444   0.9503   0.9652   0.9704   0.9949   1.0676   1.1580
     1.1883   1.2254   1.3020   1.3167   1.3991   1.4817   1.4943   1.4988
     1.5346   1.5996   1.6195   1.6330   1.6457   1.6670   1.6914   1.6979
     1.7035   1.7194   1.7521   1.7743   1.7813   1.8476   1.8803   1.8844
     1.9208   1.9291   1.9709   2.0575   2.1230   2.1641   2.1789   2.2277
     2.2451   2.2469   2.3855   2.3869   2.6576   2.9090   2.9267   3.2458
     3.4541   3.4623   3.5003   3.7630   4.1610   4.1763   4.3796   4.3941
     4.4336   4.9253   5.1159   5.5686   5.6149   5.8162   5.8222   6.2862
     6.3229   6.3786   6.4095   6.4168   6.6652

          k = 0.2000-0.5774 0.0000 ( 87698 PWs)   bands (ev):

   -10.2043  -5.9648  -5.9425  -5.3458  -4.7174  -4.7046  -4.1993  -4.1834
    -4.0507  -4.0136  -3.9109  -3.9021  -3.8061  -3.7957  -3.6987  -3.6843
    -3.6671  -3.6423  -3.6292  -3.6171  -3.6081  -3.4905  -3.4692  -3.4631
    -3.4458  -3.4345  -3.3660  -3.3617  -3.3002  -3.2407  -3.2063  -3.1498
    -3.0616  -3.0562  -3.0464  -3.0268  -3.0124  -2.9232  -2.9157  -2.8251
    -2.8164  -2.6458  -2.6224  -2.5715  -2.4833  -2.4605  -2.4348  -2.4162
    -2.3269  -2.2850  -2.2342  -2.2215  -2.2000  -2.1667  -2.1441  -2.1161
    -2.0354  -2.0093  -1.9964  -1.9806  -1.9724  -1.9605  -1.9509  -1.9172
    -1.8781  -1.7965  -1.7596  -1.7159  -1.7050  -1.6492  -1.5871  -1.5522
    -1.5300  -1.5185  -1.4911  -1.4515  -1.4410  -1.3709  -1.3485  -1.3443
    -1.3173  -1.2916  -1.2745  -1.2121  -1.1949  -1.1602  -1.1157  -1.1069
    -1.0809  -1.0338  -0.9740  -0.9315  -0.9194  -0.9086  -0.8957  -0.8660
    -0.8529  -0.8173  -0.8147  -0.7958  -0.7860  -0.7668  -0.7394  -0.7156
    -0.7025  -0.6916  -0.6857  -0.6702  -0.6412  -0.6281  -0.5890  -0.5521
    -0.4622  -0.3679  -0.3186  -0.2775  -0.2708  -0.1812  -0.1637  -0.1324
    -0.1142  -0.0706  -0.0693  -0.0624  -0.0218  -0.0077   0.0523   0.0818
     0.0962   0.1394   0.1707   0.1932   0.2253   0.2601   0.3706   0.4140
     0.4517   0.4896   0.5067   0.5239   0.5802   0.5970   0.6187   0.6307
     0.6407   0.6741   0.6974   0.7311   0.7867   0.7968   0.8436   0.8707
     0.8836   0.8941   0.9170   0.9241   1.0218   1.0637   1.1445   1.1772
     1.2373   1.2886   1.3238   1.3365   1.4159   1.4567   1.4592   1.5002
     1.5635   1.6104   1.6362   1.6573   1.6796   1.6822   1.7041   1.7316
     1.7544   1.8358   1.8410   1.8486   1.8727   1.8956   1.8972   1.9059
     1.9653   2.0765   2.0841   2.1085   2.1168   2.1253   2.1806   2.2212
     2.3014   2.4334   3.0158   3.2622   3.2651   3.4562   3.5317   3.6455
     3.6568   3.6843   3.9064   4.2656   4.2788   4.4146   4.7398   4.7589
     4.8738   4.8817   4.9108   5.0915   5.1805   5.2565   5.4192   5.6748
     5.7160   5.8673   6.2911   6.3627   6.3735

          k = 0.2000-0.3464 0.0000 ( 87656 PWs)   bands (ev):

   -10.2045  -6.4884  -5.2724  -5.2548  -5.2032  -4.1940  -4.1869  -4.1763
    -4.1690  -4.1294  -4.1219  -4.1008  -4.0947  -4.0032  -3.9936  -3.6264
    -3.6173  -3.6095  -3.6035  -3.5551  -3.5180  -3.4242  -3.4007  -3.3674
    -3.3482  -3.3473  -3.3176  -3.3074  -3.2469  -3.2117  -3.1863  -3.1722
    -3.1698  -3.1188  -3.0808  -3.0685  -3.0453  -3.0316  -2.9437  -2.6868
    -2.6104  -2.5934  -2.5754  -2.5701  -2.5508  -2.5357  -2.5053  -2.4773
    -2.4622  -2.3127  -2.3021  -2.2960  -2.2068  -2.1775  -2.1535  -2.1313
    -2.1139  -2.0764  -2.0291  -1.9169  -1.8655  -1.8372  -1.7895  -1.7438
    -1.7353  -1.7278  -1.7122  -1.6549  -1.6384  -1.6130  -1.5012  -1.4772
    -1.4641  -1.4315  -1.4059  -1.3848  -1.3496  -1.3280  -1.3251  -1.3006
    -1.1961  -1.1739  -1.1690  -1.1472  -1.1446  -1.1235  -1.1171  -1.0852
    -1.0694  -1.0352  -1.0065  -0.9720  -0.9196  -0.9171  -0.9001  -0.8571
    -0.8243  -0.8176  -0.7889  -0.7789  -0.7540  -0.7389  -0.7217  -0.7193
    -0.7002  -0.6763  -0.6332  -0.6261  -0.5969  -0.5414  -0.5191  -0.4868
    -0.4447  -0.4084  -0.3808  -0.3519  -0.2897  -0.2063  -0.1628  -0.0722
    -0.0568  -0.0215  -0.0044   0.0004   0.0182   0.0501   0.0754   0.0875
     0.0986   0.1629   0.1802   0.2212   0.3044   0.3743   0.3897   0.4158
     0.4404   0.4675   0.4973   0.5051   0.6033   0.6311   0.6361   0.6794
     0.6944   0.7458   0.8121   0.8253   0.8477   0.8584   0.9063   0.9294
     0.9314   0.9443   0.9505   0.9653   0.9705   0.9951   1.0674   1.1579
     1.1883   1.2255   1.3018   1.3165   1.3990   1.4817   1.4942   1.4989
     1.5346   1.5995   1.6196   1.6330   1.6458   1.6669   1.6914   1.6978
     1.7032   1.7192   1.7520   1.7741   1.7817   1.8474   1.8802   1.8843
     1.9208   1.9291   1.9708   2.0579   2.1235   2.1645   2.1792   2.2278
     2.2452   2.2469   2.3854   2.3869   2.6574   2.9089   2.9265   3.2459
     3.4544   3.4626   3.5005   3.7631   4.1609   4.1762   4.3796   4.3939
     4.4337   4.9252   5.1160   5.5687   5.6153   5.8159   5.8224   6.2860
     6.3227   6.3786   6.4095   6.4170   6.6653

          k = 0.4000-0.2309 0.0000 ( 87682 PWs)   bands (ev):

   -10.2044  -6.3513  -5.7164  -5.0754  -4.6520  -4.6477  -4.5220  -4.2843
    -4.1309  -4.0120  -3.9767  -3.9253  -3.9249  -3.7666  -3.7535  -3.7193
    -3.7046  -3.6977  -3.5953  -3.5469  -3.5422  -3.5060  -3.5026  -3.4523
    -3.4287  -3.3831  -3.3675  -3.3433  -3.3275  -3.2989  -3.0907  -3.0829
    -3.0790  -3.0768  -3.0614  -3.0462  -2.8490  -2.8366  -2.7978  -2.7921
    -2.7888  -2.7549  -2.5840  -2.5101  -2.5014  -2.4849  -2.4740  -2.4262
    -2.4139  -2.3695  -2.3502  -2.3353  -2.2804  -2.2742  -2.1387  -2.1255
    -2.1181  -2.0793  -2.0192  -1.9771  -1.9206  -1.9045  -1.8983  -1.7799
    -1.7552  -1.6888  -1.6763  -1.6593  -1.6452  -1.6024  -1.5733  -1.5308
    -1.4540  -1.4470  -1.4189  -1.3875  -1.3233  -1.3061  -1.2948  -1.2906
    -1.2676  -1.2197  -1.2025  -1.1916  -1.1860  -1.1741  -1.1607  -1.1383
    -1.1354  -1.0851  -1.0382  -1.0299  -1.0066  -1.0059  -0.9720  -0.9362
    -0.8662  -0.8546  -0.8189  -0.7699  -0.7564  -0.7359  -0.7199  -0.6954
    -0.6755  -0.6065  -0.5649  -0.5489  -0.4975  -0.4700  -0.4358  -0.4078
    -0.3024  -0.3007  -0.2545  -0.2197  -0.1657  -0.1485  -0.1205  -0.0873
    -0.0812  -0.0764  -0.0224  -0.0029   0.0026   0.0229   0.0317   0.0436
     0.0695   0.1032   0.1420   0.1476   0.2267   0.2424   0.2906   0.3090
     0.3564   0.4381   0.4510   0.4589   0.5625   0.5737   0.6598   0.6939
     0.7372   0.7641   0.7754   0.7895   0.8237   0.8385   0.8950   0.8974
     0.9383   0.9685   0.9906   1.0569   1.0771   1.0963   1.1101   1.1299
     1.1573   1.2376   1.3141   1.3296   1.3672   1.3907   1.4011   1.4153
     1.4876   1.5123   1.5218   1.5947   1.6088   1.6141   1.6688   1.6813
     1.6993   1.7217   1.7985   1.8170   1.8462   1.8566   1.8755   1.8763
     1.8882   1.8971   2.0691   2.0735   2.0950   2.1184   2.1207   2.2873
     2.3305   2.5142   2.7280   2.7932   2.9007   3.1490   3.1599   3.4624
     3.5487   3.5757   3.8922   3.9986   4.3659   4.3730   4.4107   4.5536
     4.6480   4.7028   4.7653   5.0283   5.0304   5.2823   5.6678   5.8054
     6.2013   6.2850   6.6700   6.8012   6.9596

          k = 0.4000-0.0000 0.0000 ( 87656 PWs)   bands (ev):

   -10.2045  -6.4884  -5.2720  -5.2551  -5.2031  -4.1939  -4.1868  -4.1760
    -4.1694  -4.1298  -4.1219  -4.1008  -4.0949  -4.0032  -3.9937  -3.6261
    -3.6175  -3.6095  -3.6032  -3.5527  -3.5177  -3.4350  -3.3906  -3.3685
    -3.3482  -3.3472  -3.3172  -3.3069  -3.2485  -3.2115  -3.1861  -3.1724
    -3.1703  -3.1190  -3.0800  -3.0688  -3.0449  -3.0317  -2.9434  -2.6866
    -2.6108  -2.5935  -2.5756  -2.5706  -2.5510  -2.5358  -2.5056  -2.4770
    -2.4625  -2.3128  -2.3023  -2.2947  -2.2071  -2.1775  -2.1536  -2.1316
    -2.1139  -2.0766  -2.0291  -1.9165  -1.8658  -1.8372  -1.7896  -1.7444
    -1.7359  -1.7281  -1.7123  -1.6550  -1.6384  -1.6127  -1.5013  -1.4768
    -1.4638  -1.4316  -1.4058  -1.3850  -1.3496  -1.3285  -1.3245  -1.3002
    -1.1964  -1.1740  -1.1688  -1.1473  -1.1447  -1.1239  -1.1173  -1.0851
    -1.0691  -1.0348  -1.0062  -0.9719  -0.9194  -0.9172  -0.9000  -0.8574
    -0.8241  -0.8170  -0.7891  -0.7786  -0.7540  -0.7392  -0.7223  -0.7192
    -0.7002  -0.6762  -0.6333  -0.6260  -0.5969  -0.5412  -0.5190  -0.4869
    -0.4440  -0.4082  -0.3801  -0.3520  -0.2898  -0.2065  -0.1627  -0.0716
    -0.0569  -0.0216  -0.0044   0.0001   0.0186   0.0503   0.0754   0.0873
     0.0988   0.1634   0.1798   0.2197   0.3051   0.3745   0.3896   0.4159
     0.4403   0.4679   0.4973   0.5052   0.6032   0.6313   0.6358   0.6796
     0.6945   0.7460   0.8117   0.8253   0.8475   0.8585   0.9062   0.9291
     0.9311   0.9444   0.9503   0.9652   0.9703   0.9949   1.0678   1.1579
     1.1883   1.2255   1.3021   1.3167   1.3991   1.4817   1.4943   1.4988
     1.5345   1.5995   1.6195   1.6330   1.6457   1.6670   1.6914   1.6980
     1.7035   1.7194   1.7521   1.7743   1.7813   1.8476   1.8803   1.8845
     1.9207   1.9291   1.9710   2.0575   2.1229   2.1640   2.1788   2.2277
     2.2451   2.2469   2.3855   2.3869   2.6575   2.9090   2.9267   3.2459
     3.4541   3.4622   3.5004   3.7630   4.1610   4.1763   4.3796   4.3941
     4.4336   4.9253   5.1159   5.5686   5.6149   5.8164   5.8220   6.2863
     6.3230   6.3786   6.4094   6.4167   6.6644

          k = 0.4000 0.2309 0.0000 ( 87682 PWs)   bands (ev):

   -10.2044  -6.3513  -5.7163  -5.0754  -4.6520  -4.6479  -4.5220  -4.2839
    -4.1309  -4.0120  -3.9766  -3.9254  -3.9251  -3.7663  -3.7534  -3.7194
    -3.7047  -3.6973  -3.5955  -3.5462  -3.5426  -3.5063  -3.5019  -3.4527
    -3.4294  -3.3805  -3.3686  -3.3439  -3.3221  -3.3046  -3.0907  -3.0830
    -3.0793  -3.0769  -3.0613  -3.0464  -2.8490  -2.8367  -2.7978  -2.7921
    -2.7891  -2.7550  -2.5843  -2.5099  -2.5013  -2.4848  -2.4741  -2.4262
    -2.4138  -2.3698  -2.3504  -2.3351  -2.2803  -2.2741  -2.1388  -2.1257
    -2.1180  -2.0796  -2.0194  -1.9775  -1.9209  -1.9050  -1.8988  -1.7800
    -1.7552  -1.6888  -1.6760  -1.6592  -1.6449  -1.6021  -1.5736  -1.5309
    -1.4535  -1.4460  -1.4185  -1.3871  -1.3235  -1.3062  -1.2949  -1.2904
    -1.2676  -1.2200  -1.2029  -1.1917  -1.1855  -1.1741  -1.1608  -1.1384
    -1.1354  -1.0853  -1.0384  -1.0301  -1.0066  -1.0061  -0.9725  -0.9362
    -0.8659  -0.8541  -0.8188  -0.7694  -0.7558  -0.7363  -0.7199  -0.6951
    -0.6752  -0.6064  -0.5649  -0.5491  -0.4975  -0.4697  -0.4359  -0.4076
    -0.3020  -0.3009  -0.2548  -0.2197  -0.1654  -0.1483  -0.1206  -0.0874
    -0.0813  -0.0766  -0.0221  -0.0028   0.0027   0.0229   0.0317   0.0438
     0.0699   0.1035   0.1418   0.1472   0.2269   0.2428   0.2906   0.3089
     0.3564   0.4385   0.4514   0.4590   0.5626   0.5737   0.6595   0.6938
     0.7372   0.7640   0.7752   0.7897   0.8235   0.8383   0.8949   0.8973
     0.9381   0.9684   0.9905   1.0567   1.0770   1.0964   1.1101   1.1297
     1.1573   1.2381   1.3143   1.3295   1.3675   1.3909   1.4012   1.4154
     1.4878   1.5124   1.5217   1.5947   1.6090   1.6142   1.6688   1.6816
     1.6996   1.7219   1.7985   1.8170   1.8462   1.8567   1.8756   1.8759
     1.8878   1.8966   2.0691   2.0731   2.0946   2.1180   2.1202   2.2874
     2.3306   2.5138   2.7274   2.7940   2.9009   3.1491   3.1599   3.4625
     3.5486   3.5759   3.8916   3.9988   4.3660   4.3730   4.4103   4.5540
     4.6480   4.7029   4.7648   5.0285   5.0303   5.2823   5.6674   5.8056
     6.2013   6.2853   6.6700   6.8011   6.9600

          k = 0.4000-0.6928 0.0000 ( 87698 PWs)   bands (ev):

   -10.2043  -5.9651  -5.9422  -5.3459  -4.7178  -4.7042  -4.1992  -4.1831
    -4.0510  -4.0138  -3.9111  -3.9021  -3.8060  -3.7953  -3.6996  -3.6840
    -3.6671  -3.6425  -3.6301  -3.6167  -3.6077  -3.4898  -3.4677  -3.4638
    -3.4426  -3.4376  -3.3695  -3.3524  -3.3069  -3.2411  -3.2064  -3.1494
    -3.0614  -3.0561  -3.0465  -3.0272  -3.0120  -2.9233  -2.9157  -2.8256
    -2.8166  -2.6454  -2.6226  -2.5724  -2.4829  -2.4602  -2.4343  -2.4163
    -2.3264  -2.2850  -2.2340  -2.2216  -2.2000  -2.1669  -2.1448  -2.1161
    -2.0356  -2.0095  -1.9969  -1.9807  -1.9725  -1.9607  -1.9512  -1.9171
    -1.8783  -1.7950  -1.7599  -1.7161  -1.7053  -1.6497  -1.5870  -1.5519
    -1.5311  -1.5181  -1.4909  -1.4508  -1.4402  -1.3708  -1.3483  -1.3448
    -1.3173  -1.2914  -1.2744  -1.2126  -1.1947  -1.1599  -1.1164  -1.1069
    -1.0816  -1.0335  -0.9736  -0.9315  -0.9195  -0.9087  -0.8961  -0.8659
    -0.8531  -0.8169  -0.8144  -0.7954  -0.7857  -0.7665  -0.7395  -0.7159
    -0.7027  -0.6915  -0.6857  -0.6701  -0.6413  -0.6282  -0.5889  -0.5522
    -0.4606  -0.3678  -0.3185  -0.2772  -0.2713  -0.1812  -0.1636  -0.1321
    -0.1139  -0.0705  -0.0694  -0.0626  -0.0220  -0.0078   0.0523   0.0821
     0.0966   0.1391   0.1705   0.1933   0.2254   0.2603   0.3705   0.4141
     0.4514   0.4894   0.5068   0.5241   0.5801   0.5971   0.6188   0.6308
     0.6407   0.6738   0.6974   0.7310   0.7864   0.7968   0.8434   0.8706
     0.8834   0.8941   0.9170   0.9240   1.0215   1.0636   1.1452   1.1774
     1.2374   1.2887   1.3236   1.3366   1.4160   1.4567   1.4590   1.5002
     1.5635   1.6107   1.6363   1.6577   1.6796   1.6822   1.7043   1.7315
     1.7542   1.8356   1.8410   1.8487   1.8732   1.8957   1.8971   1.9058
     1.9654   2.0763   2.0840   2.1084   2.1164   2.1248   2.1805   2.2208
     2.3014   2.4334   3.0159   3.2622   3.2650   3.4562   3.5314   3.6455
     3.6570   3.6847   3.9065   4.2655   4.2788   4.4144   4.7395   4.7590
     4.8734   4.8820   4.9117   5.0896   5.1804   5.2567   5.4192   5.6746
     5.7164   5.8673   6.2909   6.3633   6.3738

          k = 0.4000-0.4619 0.0000 ( 87698 PWs)   bands (ev):

   -10.2043  -5.9649  -5.9424  -5.3458  -4.7175  -4.7045  -4.1993  -4.1834
    -4.0508  -4.0137  -3.9109  -3.9021  -3.8060  -3.7956  -3.6991  -3.6842
    -3.6671  -3.6423  -3.6297  -3.6170  -3.6079  -3.4902  -3.4684  -3.4635
    -3.4444  -3.4360  -3.3709  -3.3526  -3.3053  -3.2404  -3.2063  -3.1494
    -3.0617  -3.0561  -3.0464  -3.0268  -3.0121  -2.9234  -2.9158  -2.8252
    -2.8165  -2.6458  -2.6224  -2.5722  -2.4828  -2.4603  -2.4346  -2.4162
    -2.3268  -2.2850  -2.2341  -2.2216  -2.1999  -2.1668  -2.1442  -2.1161
    -2.0355  -2.0093  -1.9967  -1.9805  -1.9724  -1.9605  -1.9510  -1.9172
    -1.8782  -1.7952  -1.7598  -1.7161  -1.7051  -1.6499  -1.5871  -1.5522
    -1.5304  -1.5183  -1.4910  -1.4515  -1.4407  -1.3709  -1.3484  -1.3444
    -1.3173  -1.2916  -1.2745  -1.2123  -1.1948  -1.1603  -1.1158  -1.1069
    -1.0811  -1.0338  -0.9739  -0.9314  -0.9194  -0.9086  -0.8958  -0.8660
    -0.8530  -0.8174  -0.8145  -0.7957  -0.7862  -0.7668  -0.7396  -0.7156
    -0.7025  -0.6916  -0.6856  -0.6702  -0.6412  -0.6282  -0.5890  -0.5523
    -0.4610  -0.3679  -0.3188  -0.2774  -0.2709  -0.1812  -0.1637  -0.1323
    -0.1138  -0.0706  -0.0694  -0.0625  -0.0217  -0.0080   0.0524   0.0819
     0.0964   0.1394   0.1705   0.1932   0.2253   0.2601   0.3704   0.4139
     0.4516   0.4895   0.5067   0.5240   0.5802   0.5971   0.6188   0.6307
     0.6407   0.6740   0.6974   0.7310   0.7867   0.7968   0.8435   0.8708
     0.8836   0.8941   0.9169   0.9241   1.0215   1.0637   1.1447   1.1773
     1.2373   1.2887   1.3238   1.3365   1.4159   1.4567   1.4591   1.5002
     1.5635   1.6104   1.6362   1.6573   1.6796   1.6822   1.7041   1.7316
     1.7544   1.8358   1.8410   1.8486   1.8728   1.8956   1.8972   1.9058
     1.9653   2.0764   2.0842   2.1085   2.1168   2.1252   2.1806   2.2212
     2.3014   2.4334   3.0158   3.2622   3.2651   3.4562   3.5316   3.6455
     3.6569   3.6842   3.9065   4.2657   4.2788   4.4145   4.7398   4.7589
     4.8736   4.8818   4.9113   5.0911   5.1804   5.2565   5.4191   5.6747
     5.7160   5.8674   6.2912   6.3629   6.3735

     the Fermi energy is     1.8819 ev

!    total energy              =  -27776.95679738 Ry

     total all-electron energy =  -1326721.486302 Ry
     estimated scf accuracy    <       0.00000043 Ry
     smearing contrib. (-TS)   =       0.00246915 Ry
     internal energy E=F+TS    =  -27776.95926654 Ry

     The total energy is F=E-TS. E is the sum of the following terms:
     one-electron contribution =  -26000.74546332 Ry
     hartree contribution      =   13301.44020017 Ry
     xc contribution           =    -897.04096111 Ry
     ewald contribution        =   11299.88804226 Ry
     one-center paw contrib.   =  -25480.50108453 Ry

     convergence has been achieved in  19 iterations

     negative rho (up, down):  1.245E-02 0.000E+00

     Forces acting on atoms (cartesian axes, Ry/au):

     atom    1 type  1   force =     0.00006642    0.00002757   -0.00668017
     atom    2 type  1   force =    -0.00056455    0.00003310   -0.00336105
     atom    3 type  1   force =     0.00052610    0.00000971   -0.00341258
     atom    4 type  1   force =    -0.00023636   -0.00050604   -0.00335639
     atom    5 type  1   force =    -0.00004011   -0.00002716   -0.00340130
     atom    6 type  1   force =     0.00032043   -0.00046544   -0.00341139
     atom    7 type  1   force =     0.00027564    0.00047549   -0.00343877
     atom    8 type  1   force =    -0.00023924    0.00051401   -0.00340114
     atom    9 type  1   force =     0.00000510    0.00001338   -0.00331842
     atom   10 type  1   force =    -0.00009787   -0.00013207   -0.00042288
     atom   11 type  1   force =    -0.00015050    0.00210118    0.00944630
     atom   12 type  1   force =     0.00019949   -0.00004606   -0.00041676
     atom   13 type  1   force =     0.00177924   -0.00116902    0.00941784
     atom   14 type  1   force =    -0.00184366   -0.00110364    0.00941857
     atom   15 type  1   force =    -0.00002713   -0.00013419    0.00199953
     atom   16 type  1   force =    -0.00002431    0.00019379   -0.00042117
     atom   17 type  1   force =    -0.00010711    0.00008176    0.00203208
     atom   18 type  1   force =     0.00000063    0.00000023    0.00204040
     atom   19 type  1   force =     0.00002141   -0.00022362    0.00013794
     atom   20 type  1   force =    -0.00050521   -0.00034826   -0.00002966
     atom   21 type  1   force =     0.00051222   -0.00038129    0.00005614
     atom   22 type  1   force =    -0.00056085    0.00040137    0.00000780
     atom   23 type  1   force =     0.00000227    0.00070151   -0.00000387
     atom   24 type  1   force =     0.00060831    0.00042116   -0.00000259
     atom   25 type  1   force =     0.00014748    0.00005924    0.00012237
     atom   26 type  1   force =    -0.00010947    0.00012632    0.00010866
     atom   27 type  1   force =     0.00002922   -0.00065396   -0.00000839
     atom   28 type  1   force =     0.00003808    0.00002541    0.00085466
     atom   29 type  1   force =    -0.00014446    0.00004575    0.00005283
     atom   30 type  1   force =     0.00026597   -0.00003715   -0.00002773
     atom   31 type  1   force =    -0.00011957   -0.00018002    0.00006615
     atom   32 type  1   force =    -0.00018664    0.00028231    0.00099346
     atom   33 type  1   force =     0.00010767   -0.00017580    0.00005025
     atom   34 type  1   force =     0.00015358    0.00019245    0.00004596
     atom   35 type  1   force =    -0.00005309    0.00027184    0.00002171
     atom   36 type  1   force =     0.00004294    0.00006518    0.00051336
     atom   37 type  2   force =    -0.00062833    0.00328606    0.00099579
     atom   38 type  3   force =     0.00074506    0.00025980   -0.00007946
     atom   39 type  3   force =    -0.00073193   -0.00013707   -0.00055799
     atom   40 type  3   force =     0.00052313   -0.00386783   -0.00263010

     Total force =     0.006415     Total SCF correction =     0.001119
     SCF correction compared to forces is large: reduce conv_thr to get better values

     negative rho (up, down):  1.245E-02 0.000E+00

     negative rho (up, down):  1.245E-02 0.000E+00

     negative rho (up, down):  1.245E-02 0.000E+00

     negative rho (up, down):  1.245E-02 0.000E+00

     negative rho (up, down):  1.245E-02 0.000E+00

     negative rho (up, down):  1.245E-02 0.000E+00

     negative rho (up, down):  1.245E-02 0.000E+00

     negative rho (up, down):  1.245E-02 0.000E+00

     negative rho (up, down):  1.245E-02 0.000E+00

     negative rho (up, down):  1.245E-02 0.000E+00

     negative rho (up, down):  1.245E-02 0.000E+00

     negative rho (up, down):  1.245E-02 0.000E+00

     negative rho (up, down):  1.245E-02 0.000E+00

     negative rho (up, down):  1.245E-02 0.000E+00

     negative rho (up, down):  1.245E-02 0.000E+00

     negative rho (up, down):  1.245E-02 0.000E+00

     negative rho (up, down):  1.245E-02 0.000E+00

     negative rho (up, down):  1.245E-02 0.000E+00

     negative rho (up, down):  1.245E-02 0.000E+00

     negative rho (up, down):  1.245E-02 0.000E+00

     negative rho (up, down):  1.245E-02 0.000E+00

     negative rho (up, down):  1.245E-02 0.000E+00

     negative rho (up, down):  1.245E-02 0.000E+00

     negative rho (up, down):  1.245E-02 0.000E+00

     negative rho (up, down):  1.245E-02 0.000E+00

     negative rho (up, down):  1.245E-02 0.000E+00

     negative rho (up, down):  1.245E-02 0.000E+00

     negative rho (up, down):  1.245E-02 0.000E+00

     negative rho (up, down):  1.245E-02 0.000E+00

     negative rho (up, down):  1.245E-02 0.000E+00

     negative rho (up, down):  1.245E-02 0.000E+00

     negative rho (up, down):  1.245E-02 0.000E+00

     negative rho (up, down):  1.245E-02 0.000E+00

     negative rho (up, down):  1.245E-02 0.000E+00
 BEEFens 2000 ensemble energies
             -0.599841136144812E+02
             -0.357481031091217E+01
             -0.156816013946542E+02
              0.424654167869950E+02
             -0.219033734475997E+02
             -0.203533917963535E+02
             -0.347252567104797E+02
             -0.854484796157465E+02
             -0.461184844307326E+02
             -0.468592878278740E+02
             -0.365286045360092E+02
              0.221829903215458E+01
              0.402153040641292E+01
              0.767653555711087E+01
              0.260754488477809E+01
              0.469839285924963E+02
             -0.206635670475716E+02
             -0.228890544350263E+02
              0.190464378480563E+02
             -0.111193930056228E+03
              0.530124014121581E+02
             -0.287742467586602E+02
             -0.327624988930384E+01
             -0.113178388159974E+02
             -0.884542832203226E+01
             -0.456030861542649E+01
              0.873332150906283E+02
             -0.184711362979541E+02
             -0.889884806322732E+01
             -0.512235824078522E+02
              0.807925338378229E+02
             -0.186617150133922E+02
             -0.370398922800043E+02
              0.247082530003514E+02
             -0.281577266460044E+01
              0.161062610533139E+02
             -0.487614288330690E+01
              0.108076218645189E+02
              0.284532307504648E+02
             -0.102176036703646E+03
              0.552623664338470E+02
              0.141050900656313E+02
             -0.160282634046393E+01
             -0.358042242494191E+02
              0.121954375274968E+02
             -0.144980307750059E+02
              0.392941188335581E+02
              0.361002888117970E+02
             -0.305989124397219E+02
             -0.271543313933811E+02
             -0.325114600187890E+02
             -0.348256083568848E+02
              0.134310487501688E+02
             -0.485061294172137E+02
              0.113859885483157E+02
              0.616500811673418E+02
              0.627253153156299E+02
              0.352537075915692E+02
              0.152209613827304E+02
              0.267153355132858E+02
              0.881851798178232E+02
              0.210663266651688E+02
             -0.542598017933931E+02
             -0.156074136851032E+02
             -0.232872274201428E+02
              0.622938535535443E+02
             -0.765541013562889E+02
             -0.665555611379923E+02
             -0.256124536043621E+02
             -0.629871407313431E+01
             -0.466269155303586E+02
              0.267797676911658E+02
              0.787849099540858E+01
              0.849666795172681E+01
             -0.393339605500579E+02
             -0.342952531781544E+02
             -0.535530114390076E+02
              0.386808734050329E+02
             -0.292334787463588E+02
              0.262140276622865E+02
             -0.708858583716228E+01
             -0.314953193743967E+02
             -0.570527017580444E+02
             -0.174879990176254E+02
             -0.886284400446823E+01
             -0.122882591561982E+02
              0.408210106026790E+02
              0.674610982147928E+02
             -0.380607867136318E+02
             -0.785842125607233E+02
             -0.217642430473098E+02
              0.110320510361319E+03
             -0.586661890724401E+02
              0.352801540831657E+02
             -0.943087730124284E+01
             -0.656726906724927E+02
              0.251438202573746E+02
              0.394591283920489E+02
             -0.197235519771043E+02
              0.397197413792803E+02
             -0.293287144496906E+02
             -0.471641042738200E+02
              0.855125997988314E+02
              0.448792367665451E+02
              0.334134515656322E+02
              0.144847629729184E+02
              0.203040505799872E+02
              0.847667982840753E+02
             -0.253990442810673E+02
              0.785704921634394E+01
             -0.140897029616990E+03
              0.179160819845940E+02
             -0.709028652837562E+02
              0.149699658736540E+02
              0.202274467691513E+02
             -0.328859433500658E+02
             -0.551801132601365E+02
              0.649823224384238E+01
             -0.300979860413805E+02
              0.303070376860115E+02
             -0.524927364098594E+02
              0.179661113978636E+01
             -0.352792091282527E+02
             -0.418124139416761E+01
             -0.108255032463049E+01
              0.178899446085817E+02
              0.143563362691748E+01
             -0.644932242143682E+01
              0.583350856488962E+02
              0.898370699988367E+02
              0.478848275823420E+02
              0.823098910514367E+02
             -0.113736774519442E+02
              0.141915372535316E+02
              0.535463907620217E+02
             -0.111226219298364E+02
             -0.727710811325154E+02
             -0.379650431241598E+02
             -0.516671960847299E+02
             -0.273595405855408E+02
              0.324603439412733E+02
             -0.115457475734446E+03
             -0.185916016166888E+02
              0.408924863773301E+02
             -0.381950685165612E+02
             -0.362309730660495E+02
              0.537971942531574E+02
              0.395419390696924E+02
             -0.351061135172677E+02
              0.134396409853140E+02
             -0.270725719941491E+02
              0.339102509546223E+02
              0.436643738973021E+01
              0.209872434680076E+02
             -0.875986951275829E+02
             -0.474967523136636E+02
             -0.988023886279996E+01
              0.321861867415107E+01
             -0.362100176833504E+02
              0.104833186847414E+03
             -0.229558751100111E+02
             -0.395942622615000E+02
              0.384428208835350E+02
             -0.489221739402554E+02
             -0.359305697230867E+02
              0.321312681799435E+02
              0.123169558687140E+02
              0.163536759041203E+02
              0.114881396968680E+02
             -0.131682433984612E+02
              0.224068056180286E+02
              0.583707306109289E+02
             -0.308595985285667E+02
              0.159964096702657E+02
              0.924962892284574E+02
              0.337387627730388E+02
             -0.723013200477828E+01
             -0.186397370819371E+02
              0.151656111154237E+03
             -0.161489455242348E+02
              0.359215295361823E+02
              0.191198434793246E+02
              0.358417058555737E+02
              0.881845134250758E+02
              0.537823131734978E+02
             -0.231942135509297E+01
              0.225012350471827E+02
              0.479299358363264E+02
              0.359140774563011E+02
             -0.518949329561261E+02
              0.925895246051258E+02
             -0.816604634470497E+02
             -0.196788144852976E+02
              0.576610394841404E+02
              0.659416845784657E+01
              0.781561149826280E+01
              0.337726874193713E+02
              0.297536204337500E+02
              0.350007046285076E+02
             -0.630671273613769E+02
              0.282503414704888E+01
             -0.295073728860242E+02
             -0.860782338038544E+01
             -0.142354824725010E+01
             -0.710334803393410E+01
             -0.408369258479314E+01
              0.850496649253241E+02
             -0.100475238354213E+02
             -0.273247395712866E+02
             -0.495515186862533E+01
              0.138392467140494E+02
             -0.556943324089668E+02
             -0.401482569327828E+02
             -0.378282077621057E+02
             -0.623447934233566E+02
             -0.167510826056771E+02
             -0.443068361090212E+02
              0.161241284007083E+02
             -0.241540668306286E+01
             -0.103054262643184E+02
             -0.925047942993837E+01
              0.802584879807000E+01
             -0.241223250283211E+02
              0.682439484263629E+02
             -0.797831114596955E+02
             -0.139556879056173E+02
             -0.172508744588842E+02
              0.180355804929462E+02
              0.212306554146129E+02
             -0.458180889943731E+02
             -0.200368180523624E+02
              0.436149990927255E+02
             -0.274133018663659E+02
              0.185631602942641E+02
              0.379221028210025E+02
             -0.320973055620789E+01
              0.112876189081084E+03
             -0.228538051111481E+02
             -0.337263393746014E+02
              0.576257563383086E+01
             -0.225383189934567E+02
              0.521451052526648E+02
             -0.332284220403226E+02
              0.105166347118097E+02
              0.634731995819670E+02
             -0.124918336769520E+02
              0.118963821917231E+03
              0.124481960275066E+03
             -0.642408484861521E+02
              0.584417977324507E+02
              0.164022670669384E+02
             -0.511693387533543E+02
              0.214176871759545E+02
              0.349526342001246E+02
              0.357712904239523E+02
              0.129142129904372E+01
              0.158117885778214E+02
              0.687913828767673E+02
             -0.244469745961714E+02
              0.180389629479056E+02
              0.731419776517303E+02
             -0.368511456812267E+02
             -0.127295619535379E+02
              0.502362786891313E+02
              0.294160706778485E+02
              0.771692291316718E+02
              0.219254151653899E+02
              0.612391798917463E+01
              0.277542447587267E+02
              0.378819363229892E+02
             -0.466420817920026E+02
              0.324295655679430E+01
              0.127147777013523E+02
              0.112443670980193E+02
              0.218046229693736E+02
             -0.568397069983674E+02
              0.362497289735686E+02
             -0.439105186121669E+02
             -0.344198746098905E+02
              0.176141111810384E+02
             -0.180456323522795E+02
              0.548654749630642E+02
             -0.254336037329019E+02
              0.263535956766073E+02
              0.364849113188756E+02
              0.820805661909705E+02
              0.569089168129896E+02
              0.456405608953433E+02
             -0.105016502681434E+02
             -0.379197832579246E+01
             -0.329062543916597E+02
              0.741910731972205E+02
              0.788174663175789E+02
              0.357572328743168E+02
             -0.188980096055453E+02
              0.506412146742011E+02
             -0.162700576213591E+02
              0.212854943020563E+02
              0.607085974062123E+02
              0.215505588608480E+01
             -0.103364230538061E+02
             -0.280651557212071E+02
             -0.505376104422984E+02
              0.934983350844118E+02
              0.434460960352067E+02
             -0.552195545058027E+02
             -0.939502853619933E+01
              0.246958262741963E+02
             -0.985316056809990E+01
              0.584935785275294E+02
              0.150417294947113E+02
              0.790265050752831E+02
              0.276327698066901E+02
             -0.261068522101999E+02
              0.246646119102159E+02
             -0.493780564043607E+01
             -0.320606434414140E+02
              0.131243936708369E+02
              0.203816333457886E+02
              0.923328272583513E+02
              0.789040945458050E+02
              0.545011076711824E+02
              0.723397660016726E+02
              0.795556884954627E+01
             -0.271075348759180E+02
              0.161667490727698E+02
             -0.364284754146059E+02
             -0.470345525355057E+02
             -0.557306599014598E+02
             -0.263101568157572E+02
             -0.108539471767614E+03
             -0.287544949068780E+02
             -0.828001741623825E+02
              0.207877567639483E+02
             -0.472222177785189E+02
              0.391483712384386E+02
             -0.930859909040686E+02
             -0.326885968925403E+02
              0.544018246480117E+02
              0.205200076325208E+02
             -0.820897626555685E+02
              0.624990644422924E+02
             -0.253824920204444E+02
              0.506451020897268E+02
             -0.239365254631395E+02
             -0.742724830536100E+02
              0.109920266793410E+02
             -0.604029557852728E+02
             -0.167632640180250E+02
             -0.149065961553299E+01
              0.413588176436295E+02
              0.125652618287545E+03
             -0.456991777068185E+02
             -0.358374630264351E+02
             -0.924891343740853E+00
             -0.129422176611441E+02
             -0.813818614283853E+02
             -0.590705474021178E+02
              0.511811936916617E+02
             -0.286859456139084E+02
              0.166939928823023E+02
             -0.483960618598044E+02
             -0.130135883969037E+02
             -0.432713993568080E+02
              0.560278527354231E+02
              0.149394165014525E+02
             -0.229116481994128E+02
             -0.125127405126296E+02
              0.654011951494149E+01
             -0.610499574013448E+01
              0.437001166593715E+02
             -0.249143548928552E+02
              0.268363690852948E+01
              0.335905802193543E+02
              0.169691986777466E+02
             -0.157497784035950E+02
              0.154590787944864E+03
              0.531897117826632E+02
              0.105784012318279E+01
              0.160710282084841E+02
             -0.608407485177665E+02
              0.311427222878706E+02
             -0.713231201786153E+02
             -0.248415450725015E+02
             -0.516375814720156E+02
             -0.218198869392829E+02
              0.562996605905064E+02
             -0.530841588736066E+02
              0.158161551213476E+02
             -0.406251518370505E+01
              0.384545651803393E+01
             -0.430406347553015E+02
             -0.473791736102049E+02
             -0.398155014766178E+01
             -0.421064917585732E+02
             -0.214513480847055E+02
             -0.434161208628765E+02
             -0.118575977349599E+02
             -0.355479345015345E+02
             -0.511182517011209E+02
              0.210407281523201E+02
             -0.207706298326071E+02
              0.185334730815304E+02
              0.966051178534460E+01
             -0.729925492959031E+02
             -0.542495142510963E+02
             -0.393112826209705E+02
              0.350569944932686E+02
              0.277063317445246E+01
             -0.619816873583274E+02
              0.579789534557652E+02
             -0.396645835608769E+02
              0.538593025504064E+02
             -0.286364463315066E+02
             -0.440608939540913E+02
              0.295523372053692E+02
             -0.649740668898155E+02
             -0.376537605510625E+02
              0.666468150242204E+02
              0.202067550874784E+02
             -0.355715378574304E+02
              0.483746063019742E+02
             -0.172318213005793E+02
             -0.318942892532291E+02
             -0.298544065881085E+02
             -0.495136142128603E+02
              0.246867047709505E+02
             -0.923854264368950E+02
             -0.831949056722508E+02
             -0.725480357131516E+01
             -0.303662448686786E+02
             -0.569324018641380E+02
              0.713544247654082E+02
              0.130052446736810E+03
             -0.358443884135461E+02
             -0.251481298648162E+01
             -0.630672423449707E+02
              0.643385649779917E+02
              0.168417070447368E+02
             -0.179645889200823E+02
             -0.406131810150628E+02
              0.146902718411832E+02
             -0.579541035961079E+02
             -0.196588672152851E+02
             -0.895211526934305E+02
              0.333255326767056E+02
              0.167740961475211E+02
              0.190910566037121E+01
             -0.695921321966421E+01
             -0.325388317620591E+02
             -0.746751430902287E+01
              0.124089193148814E+03
             -0.197178271015025E+02
             -0.432506885965931E+02
             -0.676520870587612E+02
              0.107874569957270E+02
             -0.338176791099038E+02
              0.580756305932672E+01
              0.257923014065288E+02
              0.101758303745260E+02
              0.274246591491164E+02
              0.118151748500697E+02
              0.623332963381566E+02
              0.313908282062941E+02
             -0.322765297194433E+02
              0.349980625262198E+02
              0.375807330756498E+02
              0.119475075491156E+02
              0.483196759084236E+02
             -0.221555337348365E+02
              0.757984483867916E+02
              0.169621203879991E+02
             -0.268428546384884E+02
             -0.719425788018882E+01
             -0.184682805115023E+02
              0.260040351079004E+02
             -0.231418703570003E+02
             -0.193294647455389E-01
             -0.835568400573072E+01
              0.800804376674636E+02
              0.493867760684933E+02
             -0.679843585620478E+02
             -0.469249672779580E+01
             -0.549905647171039E+02
             -0.157829850579504E+02
             -0.266172760049723E+02
              0.364108707106902E+01
              0.644045979551368E+00
             -0.254698575670898E+02
              0.796069569561669E+01
             -0.592850695264912E+01
             -0.127724050273340E+02
              0.849444170898942E+02
              0.180085554985882E+02
             -0.798251479287598E+02
             -0.454377202132429E+02
              0.934806239431534E+02
              0.275263085375947E+02
             -0.105936325337482E+02
              0.103385357176058E+03
             -0.192712611636668E+02
             -0.122164444299996E+02
             -0.528952894619863E+01
              0.105795733743902E+02
              0.269080040704882E+02
              0.778274810448454E+01
              0.302309121014537E+02
             -0.186616546339656E+02
             -0.299812409177788E+02
             -0.413773203602290E+02
             -0.471678525868375E+02
              0.459746575252967E+02
              0.125228197898882E+02
              0.383635018336905E+02
              0.131915516368749E+02
              0.845980293759018E+02
              0.154179831757461E+02
             -0.837805714224623E+02
             -0.330964805975887E+02
              0.133233337516432E+02
             -0.299785807031762E+02
              0.619765684824245E+02
             -0.868093140380029E+01
              0.146676071817309E+02
              0.491285224581134E+02
             -0.698650289866082E+02
              0.148141753849200E+03
              0.206700330984942E+02
              0.268733905026965E+02
              0.343652507885269E+02
              0.103290638211022E+02
             -0.153388755037611E+01
              0.354779401359621E+02
             -0.353620328625274E+02
              0.764122998429887E+02
              0.676939551634864E+02
             -0.401885686316737E+02
              0.147845221556187E+02
              0.662346358679245E+02
             -0.221473796014081E+02
              0.152305150128377E+02
              0.431340359831871E+02
              0.417644861234903E+02
             -0.776808661396752E+02
             -0.152002273371641E+02
             -0.352966188207078E+02
             -0.142872495411655E+01
             -0.761126383243644E+01
             -0.548029005182002E+01
             -0.179169608929492E+02
             -0.290773416353891E+02
              0.619105038459240E+01
              0.111000904563901E+02
              0.529984309647871E+02
             -0.385457260064407E+02
              0.369789475170545E+02
              0.433371567735963E+02
             -0.185244905549643E+02
              0.863855371763351E+02
             -0.690616811065473E+02
             -0.102072586724493E+03
             -0.651341279126473E+01
             -0.261289296283451E+01
              0.386431069221544E+01
              0.781289493807111E+02
             -0.106813943687531E+02
              0.412182270566465E+02
              0.437506085503636E+02
              0.381108622626298E+02
             -0.988543168677825E+01
              0.620939760487726E+02
             -0.131860907482972E+02
             -0.303317380358617E+02
             -0.475464350229442E+02
              0.576980900369780E+01
              0.365564993883593E+02
             -0.599543208139676E+01
              0.389176046996718E+02
             -0.174844879180773E+01
              0.648984875536284E+02
              0.185287102780303E+02
              0.990098675401671E+01
             -0.121936295537546E+02
              0.328894762579446E+02
              0.358101146982671E+02
              0.230936161366541E+02
             -0.468833026509344E+00
             -0.544762968079952E+02
              0.257458244391095E+02
              0.172931962583353E+02
              0.398918267910126E+02
              0.268883040243103E+02
              0.368526183751321E+02
             -0.592524095987525E+01
              0.247696818437713E+02
             -0.295681725371846E+02
             -0.196528975465810E+01
             -0.563544955697632E+02
             -0.304015156016932E+02
              0.374132141599729E+02
             -0.926232146235831E+02
              0.291705181512225E+02
              0.182612366242744E+02
              0.831260090241666E+02
             -0.298685748263318E+02
              0.326161180850341E+02
             -0.136520287607697E+02
             -0.458660825254444E+02
             -0.754262313163048E+02
             -0.512520433847597E+01
             -0.850442961849007E+02
              0.198701722172610E+02
             -0.245310065413628E+02
              0.302362603072369E+02
              0.234710264960082E+02
             -0.238244361527279E+02
             -0.262502978450080E+02
              0.386343182518344E+02
             -0.582335398500317E+02
             -0.115453409124904E+02
             -0.194273142146318E+02
              0.209950485196924E+02
             -0.893413629630072E+01
              0.357609392274554E+01
             -0.198878005204858E+02
              0.552999055564127E+02
             -0.433737153474754E+02
              0.780398665165933E+01
              0.579162535159924E+02
             -0.319482331975655E+02
              0.357604832606282E+01
             -0.882719403529109E+01
             -0.662321686122617E+02
             -0.478150341839286E+02
             -0.857351992981711E+01
              0.237617575573601E+02
              0.298740015773027E+02
              0.856556247398720E+01
             -0.401773567324619E+01
              0.149860247573866E+02
             -0.435390592428512E+02
              0.336279273262750E+01
             -0.525617867946670E+02
             -0.322076366432936E+02
              0.469392634534905E+02
             -0.291906145301458E+02
              0.615179403070846E+02
             -0.212510480225426E+02
              0.349876383299686E+02
              0.239130483111617E+02
             -0.637684281576365E+02
             -0.277512260111526E+02
              0.922343171947057E+01
             -0.367514718981814E+02
             -0.335237847057364E+02
             -0.820527980803308E+02
             -0.533364383425067E+02
             -0.505091009013358E+02
             -0.410643222856106E+02
             -0.997145295661028E+00
              0.971127531070815E+01
              0.960404002664916E+00
              0.150455305833477E+02
             -0.543137283157002E+02
              0.140569677604586E+02
              0.254289787594889E+02
             -0.659421007911702E+02
             -0.695773166864295E+02
             -0.427332038689700E+02
             -0.168766752854804E+02
              0.176782924079612E+02
              0.459022631689948E+01
             -0.420996903107632E+02
              0.362999377993059E+02
             -0.213774123912988E+02
              0.511924827561166E+02
             -0.877770046662888E+02
              0.591105120235640E+02
             -0.203101175251346E+01
             -0.364085256937885E+02
             -0.213152871729636E+02
              0.470861862787373E+01
              0.369279152602596E+02
             -0.748837476253424E+02
             -0.119256426064491E+02
             -0.214971763529890E+02
              0.506609970018624E+02
              0.856310041493637E+02
             -0.954831108649920E+02
              0.934115086982293E+02
              0.463180351803700E+02
             -0.717276140171616E+02
             -0.363106038271944E+02
              0.743626695045582E+02
              0.625916958226222E+02
             -0.179246876450318E+02
             -0.455626156554956E+01
              0.714434122450136E+01
              0.640939959396982E+02
             -0.502179511384094E+02
              0.156941020768780E+02
             -0.463970371410099E+01
              0.344739243276075E+02
             -0.739487590267467E+02
             -0.644216174566180E+01
             -0.348042632002695E+02
              0.455470689478139E+02
              0.464455711711787E+02
             -0.852604353225643E+02
             -0.481985025258419E+02
             -0.253959823803586E+02
             -0.334919173852576E+02
             -0.107864005726600E+02
             -0.240551992521874E+02
              0.422636506692592E+02
              0.396227144885701E+02
             -0.561212262058120E+01
             -0.411622899199197E+02
             -0.841620967025572E+02
              0.437870944191501E+02
             -0.518198744617554E+02
             -0.309218618502026E+02
              0.539129758126379E+01
             -0.318813822333706E+02
             -0.393559797444461E+02
             -0.237110284438840E+02
             -0.380416571128778E+02
             -0.267998208291751E+02
             -0.477101854105033E+02
              0.557867498464088E+02
              0.631626236602605E+02
             -0.161254286182418E+01
             -0.258893290479554E+02
             -0.630127709459566E+01
              0.436774611855592E+02
             -0.858723731249729E+02
             -0.143733831960430E+02
              0.518251075439179E+02
              0.656536162460180E+02
             -0.243275035689808E+02
              0.901794535367014E+01
              0.518173674042881E+02
              0.196658328323005E+02
             -0.824887939560836E+01
             -0.449070150763127E+02
              0.279001208703622E+02
             -0.348981105073137E+02
             -0.163665118808073E+02
             -0.150697959997019E+02
             -0.198597672951149E+02
              0.192535844574301E+02
              0.791944451905517E+02
              0.193683655684336E+01
              0.531442418666956E+01
             -0.877888574808450E+02
             -0.174052524575186E+02
             -0.348590364675684E+02
              0.272243253207341E+01
             -0.404848942464688E+02
              0.721189766999421E+02
              0.775445851793982E+02
              0.122047731829272E+02
             -0.139457183756117E+02
              0.142216773886926E+02
              0.258078815319265E+02
             -0.477163725633179E+02
             -0.867185440960702E+01
              0.136420565692462E+02
              0.163156803696192E+02
              0.557968413113950E+02
              0.417316274350858E+02
             -0.195505155913593E+02
[...]
              0.281219668903162E+02
              0.140317226461454E+03
              0.239170062082674E+02
              0.120616183680961E+02
             -0.458985806344706E+02
             -0.631161427351071E+02
             -0.187719560111406E+02
              0.326778328089962E+02
             -0.421411395062967E+01
              0.187635899135535E+02
              0.332470408864192E+02
             -0.579402415986334E+02
              0.219568891454180E+02
              0.577781991679619E+02
              0.546414098873114E+02
             -0.408364234161689E+01
             -0.141577105452518E+01
             -0.986082837279923E+01
             -0.477397420300700E+02
             -0.667050377914808E+02
              0.776904302579131E+02
             -0.511044899955067E+01
             -0.581891910098016E+02
              0.163732926366794E+01
             -0.202150820528709E+02
              0.929156368479921E+02
             -0.214171534323407E+02
             -0.349536939394854E+02
              0.331568130807486E+02
             -0.144108427560434E+02
              0.384501916226861E+02
             -0.234683824615962E+01
              0.100045400647570E+03
              0.483940673569502E+02
             -0.520336372878744E+01
             -0.317692903029704E+02
              0.229231565765724E+02
             -0.522558831240434E+02
             -0.127243469080211E+02
              0.578792595521259E+02
             -0.284946305333274E+02
             -0.433438707992748E+02
             -0.220729578536822E+02
              0.512957195335772E+02
              0.123257243196802E+02
             -0.839838661745362E+02
              0.300283178705898E+02
              0.151261046412039E+02
              0.566863529287934E+01
             -0.508246144187495E+02
             -0.387014165285956E+01
              0.319266567005791E+02
              0.507575705362628E+02
              0.625733159617672E+02
              0.225400439722610E+02
              0.655385846527025E+00
             -0.492209276799380E+02
             -0.505479805592636E+02
             -0.740439795460984E+02
             -0.602498683386682E+01
              0.305465013498624E+02
             -0.379151618698646E+01
              0.541219126605646E+02
             -0.314536742911233E+02
              0.164380964682272E+02
             -0.100584010206132E+02
             -0.286712518058529E+02
              0.579323130601329E+02
              0.786338242465774E+01
              0.597607254476903E+02
              0.503739206954754E+01
              0.262743169590338E+02
             -0.190867138430878E+02
              0.579393620363567E+02
             -0.110022153881247E+02
             -0.100379787561462E+00
             -0.781632681299135E+02
             -0.127503898440868E+02
              0.711385767171249E+02
              0.665947910332652E+02
              0.249190818634268E+02
             -0.128468592685670E+02
              0.340766796925777E+01
             -0.171155572712883E+02
             -0.187884925768657E+01
              0.898099185475737E+02
              0.118404373808676E+01
             -0.187301603386165E+02
             -0.109566050780677E+03
             -0.547507776046241E+02
             -0.370985531937636E+02
             -0.651537879099448E+02
             -0.549219280053642E+02
             -0.674757281422710E+02
             -0.442276246098929E+02
             -0.407706263347011E+02
             -0.446563274901905E+02
              0.478709848502058E+02
             -0.292023161061423E+02
             -0.985473443365669E+02
              0.414475574183703E+02
             -0.256553999044228E+02
             -0.781987400458488E+02
              0.932790628215476E+02
             -0.216967903430478E+02
              0.226295892453664E+02
              0.450899817880530E+02
             -0.144313502858154E+01
              0.251651416431139E+02
              0.469052403286895E+01
              0.400504341130640E+00
             -0.149483498466905E+02
             -0.707910134881212E+02
              0.132039421485358E+02
             -0.128049668205436E+03
              0.616614450248564E+02
             -0.436233109589015E+02
             -0.160927692987149E+02
             -0.155821536243903E+02
              0.693630314098116E+01
             -0.225950381135425E+02
              0.293783451721068E+02
             -0.514078784248558E+02
              0.363204381412671E+02
              0.366513088912202E+02
              0.167092862003354E+02
              0.997805193585663E+01
              0.195476744706714E+02
              0.611536608613892E+01
              0.306944381409363E+02
             -0.793616700414768E+01
             -0.584550088862221E+02
              0.746860206458734E+01
             -0.149045441026613E+02
             -0.189992792930531E+01
              0.500486433912640E+02
             -0.818138379466902E+02
             -0.148709926112343E+01
              0.545177724259759E+00
              0.985994209785281E+01
              0.314966612629449E+02
             -0.122235124494649E+02
              0.826369239883373E+02
              0.483175617484435E+02
             -0.181419322171830E+02
             -0.943293271784290E+01
              0.100110029847974E+01
              0.760807781216103E+02
             -0.580594690608905E+02
             -0.104649066863725E+03
              0.306197200564240E+02
             -0.162398458783895E+02
             -0.138068113669329E+02
              0.128393060434695E+02
              0.760032823351057E+02
              0.459463103201873E+02
             -0.151559403488197E+02
             -0.497187390463819E+02
             -0.536958566340142E+01
              0.303339597726492E+02
             -0.109701889923861E+02
             -0.747491073441711E+02
             -0.263683239041899E+01
             -0.879306546424638E+02
             -0.469879691771163E+02
              0.759253965699282E+02
             -0.477911634383709E+02
             -0.628755283763513E+02
             -0.508625054329648E+02
             -0.345503392867864E+02
              0.337489305356004E+02
              0.812281912245335E+02
             -0.349780345041768E+01
              0.273619510637687E+02
             -0.181657651427671E+02
             -0.686439750557253E+02
              0.459608959965492E+02
             -0.439814156220829E+02
              0.318844499529332E+02
              0.372802115019561E+02
             -0.639567157347653E+01
              0.386020243336216E+02
              0.433873183925358E+02
              0.993750462854914E+02
             -0.154720839713231E+02
             -0.450256915239824E+02
             -0.605443613266737E+02
             -0.121782605947801E+02
             -0.228755466596610E+02
              0.101979065930165E+03
             -0.444320936216910E+02
              0.103936167808349E+02
              0.967138751574947E+01
             -0.262366960979908E+02
             -0.789643843049188E+02
             -0.692705274546813E+01
              0.968906600475479E+02
              0.915837820252995E+01
              0.799524107876471E+01
             -0.520727989784756E+02
             -0.599276607864665E+02
             -0.544532292336237E+01
              0.495388630810212E+02
             -0.219066547487386E+02
              0.106848192689098E+03
             -0.430780568924241E+02
              0.144137556851516E+02
             -0.222371940183571E+02
             -0.711707400557247E+02
              0.160679737458429E+01
             -0.495532715995307E+02
             -0.752438290706955E+02
              0.604839706278949E+01
              0.233616945961074E+01
              0.508693567705642E+02
              0.184315451722640E+02
             -0.319904757872758E+02
              0.227485720796777E+02
             -0.801528193339227E+02
             -0.516315165169785E+02
              0.891530282786493E+02
              0.141503014789432E+02
             -0.187270107980945E+02
             -0.349439941168475E+02
             -0.269335089057256E+01
             -0.574617482789631E+01
              0.820593079763033E+02
              0.413388245183606E+02
             -0.164840772684341E+02
             -0.121634397917043E+02
             -0.423300103050359E+02
             -0.198923616246029E+02
             -0.662918655821894E+02
              0.454214017385537E+02
              0.540232928673026E+01
              0.143952902546234E+02
              0.154194416623837E+02
             -0.430816235913511E+00
             -0.166021206343830E+02
             -0.313958075338274E+01
             -0.992055535727330E+02
             -0.228718386943879E+02
             -0.756872458263393E+01
             -0.941001225950654E+01
              0.540589089030118E+02
              0.616866386596148E+02
              0.162880207588394E+02
             -0.960229068892844E+02
              0.640355794933824E+02
             -0.212302089746523E+02
             -0.372832784690558E+02
             -0.854451858077478E+02
             -0.383793450078029E+02
              0.557838887764847E+02
              0.240918656509629E+02
              0.498260224518850E+01
              0.288407149365314E+02
             -0.558692641569196E+02
             -0.416899554213950E+02
              0.508600831159421E+02
              0.382545211253077E+02
              0.513486301897179E+02
             -0.125818257388394E+01
              0.675841187608029E+01
              0.563566279191109E+02
              0.951699946338607E+02
             -0.298089291323236E+02
              0.318516534353805E+02
             -0.115889380700190E+02
             -0.407283591494306E+02
             -0.310613480809459E+02
             -0.296705176537887E+02
             -0.129793450845733E+02
             -0.517918298329277E+02
             -0.214878775051550E+02
             -0.139720789020160E+03
              0.365629811923500E+02
              0.203679948019498E+02
             -0.390856738586047E+01
             -0.375750333531397E+02
             -0.201907758566022E+02
             -0.520661775227519E+02
              0.150610703811025E+02
              0.811200259539847E+02
             -0.250098311678781E+02
             -0.161017952180069E+02
              0.235942184725363E+02
             -0.484061610115784E+02
              0.870892327495974E+02
              0.152582132177251E+02
              0.225311034788327E+02
              0.484272375611138E+02
              0.323570594896154E+01
              0.535462112372710E+02
              0.140879242629059E+02
             -0.106201396405688E+02
              0.716128617707861E+01
              0.853788327200732E+00
              0.719545979646666E+02
              0.100479244090558E+02
              0.118411351458686E+02
             -0.129245814290525E+02
              0.131183343313849E+02
             -0.900681248523652E+02
             -0.321758137523979E+02
             -0.451924468770475E+02
              0.479411679602126E+02
             -0.287265620122381E+02
             -0.652047066717215E+02
              0.531777052331842E+02
             -0.120385400696711E+02
              0.435461603052348E+02
             -0.888589246992627E+02
              0.229911332638676E+02
              0.850575270095283E+01
              0.576936584954797E+01
             -0.818282996801474E+01
             -0.896834450186816E+01
              0.473914670978525E+02
              0.196247718916550E+01
             -0.469329591403706E+02
             -0.173980102235840E+02
              0.274253934333042E+02
             -0.116661101099879E+03
             -0.919940867563114E+02
              0.394768994905763E+01
              0.115942207374098E+02
             -0.407957549790918E+02
             -0.389186161088276E+01
              0.110951355263887E+03
              0.302849920157742E+02
             -0.565640486461765E+02
              0.915390154912473E+01
             -0.951674198849726E+01
              0.104475398772231E+02
             -0.333915153564861E+02
              0.193080189828304E+02
              0.281921108742906E+02
             -0.287796352367042E+01
              0.106919786906355E+03
             -0.139805476076706E+02
             -0.312393171449285E+02
              0.139545473314544E+02
              0.461880194090934E+02
             -0.352223928284997E+02
             -0.315862630355094E+01
              0.954111565078010E+02
             -0.461911531382373E+01
              0.615795317726680E+02
              0.133663292686910E+02
             -0.891831359408819E+01
             -0.303489976170066E+02
              0.560918808446451E+02
             -0.507504843448375E+02
             -0.218291462069743E+01
             -0.167860244706374E+02
             -0.400697600192712E+02
              0.183766554056039E+02
              0.236782158873438E+02
              0.116115542153083E+02
              0.740347400192036E+00
             -0.379939731345885E+02
              0.213382412988514E+02
             -0.673552784136794E+01
             -0.243839219596219E+02
             -0.208255877006798E+02
              0.201141224652750E+02
             -0.597884179654011E+01
             -0.344920738737159E+02
             -0.105453144207661E+03
              0.102230285372056E+02
              0.246902823196860E+02
             -0.381903661360469E+02
             -0.208298236939748E+02
              0.798006411716333E+02
              0.639115117001208E+01
              0.305958784189440E+02
              0.379354792359049E+01
              0.317360367660416E+02
              0.644180641087792E+01
             -0.368460786307407E+02
             -0.222841128777091E+01
              0.870154014186357E+01
              0.270407740092241E+02
              0.773242917717856E+02
              0.501899629065036E+02
              0.150634494151120E+00
              0.168127539651627E+02
              0.606574638904129E+02
              0.232750100615031E+02
             -0.744993734527937E+02
             -0.270654484218037E+02
              0.149808787181375E+02
              0.550389242342982E+01
              0.252091314073174E+02
             -0.541997297604533E+02
              0.890895782253980E+01
              0.381552974298893E+02
              0.492466285399898E+02
             -0.430055020830300E+02
             -0.692122717351856E+01
             -0.204821363530675E+01
             -0.131411097098635E+02
             -0.362406897162374E+02
             -0.213833477538926E+02
             -0.192429770667229E+01
              0.781490458453823E+01
              0.416737049297800E+02
             -0.304503410439700E+02
              0.817260059642920E+02
              0.323559442646462E+02
              0.216979982874003E+02
              0.329220885419623E+02
              0.320202137382909E+02
              0.342595494687353E+02
              0.530960344020613E+02
             -0.428644222906991E+02
              0.612689083859350E+02
             -0.111021880854623E+03
              0.303773374410628E+02
             -0.105344526578612E+03
              0.845576407381261E+02
              0.681986644739145E+02
             -0.108869699792018E+02
             -0.487900849017981E+02
             -0.424931620928850E+02
             -0.617452368525943E+02
             -0.621560218061212E+02
              0.545829799247039E+02
              0.400650246047813E+02
              0.234011314231556E+02
              0.370776035757151E+02
              0.398295590695844E+02
             -0.377612873902458E+02
             -0.196145183428790E+02
              0.580775114906811E+02
             -0.114884254316468E+02
              0.546435895235456E+02
              0.690887477286616E+02
             -0.552312287222458E+01
             -0.697999410455044E+02
             -0.916241775205094E+00
             -0.249161928875522E+01
             -0.870235741146894E+01
             -0.185577595403305E+01
             -0.645737781756978E+02
             -0.209465022712870E+02
              0.526398311656787E+01
              0.886321247166910E+01
              0.463393241189409E+02
             -0.393041476265312E+02
              0.651410427834128E+02
             -0.421025629270258E+02
              0.207542531133792E+02
              0.345506602851733E+02
 
 BEEF-vdW xc energy contributions
           1 :   -774.805313548418     
           2 :    712.226044584271     
           3 :   -603.723432871193     
           4 :    475.776642373379     
           5 :   -355.455657271838     
           6 :    262.382708847302     
           7 :   -204.214346039545     
           8 :    176.555033036537     
           9 :   -166.893861953832     
          10 :    160.694152770630     
          11 :   -147.150779208981     
          12 :    122.439705605276     
          13 :   -89.6052363604839     
          14 :    55.6874229512346     
          15 :   -27.7400761441501     
          16 :    9.54889149844087     
          17 :  -0.331346589773830     
          18 :   -4.31112197724974     
          19 :    9.89742145936407     
          20 :   -20.3458743325357     
          21 :    36.2801149847254     
          22 :   -55.0313473740538     
          23 :    72.1637792078644     
          24 :   -83.6925205947118     
          25 :    87.9034145826045     
          26 :   -85.9713748012763     
          27 :    81.1889107898298     
          28 :   -77.2737246489170     
          29 :    76.6085959150973     
          30 :   -79.2414185969913     
          31 :   -84.8292455765549     
          32 :   -65.0969568585961     

     Writing output data file ./pwscf.save/
 
     init_run     :    314.36s CPU    318.56s WALL (       1 calls)
     electrons    :  12308.60s CPU  12484.27s WALL (       1 calls)
     forces       :     94.91s CPU     96.10s WALL (       1 calls)

     Called by init_run:
     wfcinit      :    267.67s CPU    270.94s WALL (       1 calls)
     potinit      :     43.89s CPU     44.21s WALL (       1 calls)
     hinit0       :      1.09s CPU      1.12s WALL (       1 calls)

     Called by electrons:
     c_bands      :  10282.34s CPU  10376.71s WALL (      20 calls)
     sum_band     :   1420.64s CPU   1432.65s WALL (      20 calls)
     v_of_rho     :    102.79s CPU    106.61s WALL (      20 calls)
     newd         :     28.25s CPU     38.88s WALL (      20 calls)
     PAW_pot      :    132.45s CPU    132.47s WALL (      20 calls)
     mix_rho      :    386.70s CPU    387.47s WALL (      20 calls)
     vdW_kernel   :     33.46s CPU     33.47s WALL (       1 calls)

     Called by c_bands:
     init_us_2    :     71.58s CPU     71.89s WALL (     546 calls)
     cegterg      :   9514.01s CPU   9607.94s WALL (     260 calls)

     Called by *egterg:
     cdiaghg      :     85.93s CPU     85.99s WALL (    1365 calls)
     h_psi        :   6065.20s CPU   6098.45s WALL (    1391 calls)
     s_psi        :   1017.49s CPU   1017.69s WALL (    1391 calls)
     g_psi        :     15.25s CPU     15.26s WALL (    1118 calls)

     Called by h_psi:
     h_psi:calbec :    953.01s CPU    953.31s WALL (    1391 calls)
     vloc_psi     :   4070.87s CPU   4073.16s WALL (    1391 calls)
     add_vuspsi   :   1016.79s CPU   1017.06s WALL (    1391 calls)

     General routines
     calbec       :   1402.57s CPU   1403.02s WALL (    1703 calls)
     fft          :     46.91s CPU     46.94s WALL (    3220 calls)
     ffts         :    122.63s CPU    122.70s WALL (    9124 calls)
     fftw         :   4151.86s CPU   4153.71s WALL (  329982 calls)
 
     Parallel routines
 
     PWSCF        :      3h33m CPU      3h39m WALL

 
   This run was terminated on:   0:47:14  27Sep2022            

=------------------------------------------------------------------------------=
   JOB DONE.
=------------------------------------------------------------------------------=
