
     Program PWSCF v.6.7MaX starts on 20May2022 at 16:46:13 

     This program is part of the open-source Quantum ESPRESSO suite
     for quantum simulation of materials; please cite
         "P. Giannozzi et al., J. Phys.:Condens. Matter 21 395502 (2009);
         "P. Giannozzi et al., J. Phys.:Condens. Matter 29 465901 (2017);
          URL http://www.quantum-espresso.org", 
     in publications or presentations arising from this work. More details at
     http://www.quantum-espresso.org/quote

     Parallel version (MPI), running on     1 processors

     MPI processes distributed on     1 nodes
     Reading input from ch3cho-ensemble.in
Warning: card &CELL ignored
Warning: card / ignored

     Current dimensions of program PWSCF are:
     Max number of different atomic species (ntypx) = 10
     Max number of k-points (npk) =  40000
     Max angular momentum in pseudopotentials (lmaxx) =  3
     file Pt.pbe-n-kjpaw_psl.1.0.0.UPF: wavefunction(s)  6S 5D renormalized
     file C.pbe-n-kjpaw_psl.1.0.0.UPF: wavefunction(s)  2S 2P renormalized
     file O.pbe-nl-kjpaw_psl.1.0.0.UPF: wavefunction(s)  2S 2P renormalized
     file H.pbe-kjpaw_psl.1.0.0.UPF: wavefunction(s)  1S renormalized

     **************************************************************************
     Initializing libbeef V0.1.2 with the BEEF-vdW functional.
     Citation: Wellendorff et al., PRB 85, 235149 (2012).
     **************************************************************************


     IMPORTANT: XC functional enforced from input :
     Exchange-correlation= BEEF-VDW
                           (   1   4  43  14   2   0   0)
     Any further DFT definition will be discarded
     Please, verify this is what you really want


     Subspace diagonalization in iterative solution of the eigenvalue problem:
     a serial algorithm will be used

 
     G-vector sticks info
     --------------------
     sticks:   dense  smooth     PW     G-vecs:    dense   smooth      PW
     Sum        4267    4267   1159               764207   764207  107619
 


     bravais-lattice index     =            0
     lattice parameter (alat)  =      16.0349  a.u.
     unit-cell volume          =   12166.1972 (a.u.)^3
     number of atoms/cell      =           43
     number of atomic types    =            4
     number of electrons       =       378.00
     number of Kohn-Sham states=          227
     kinetic-energy cutoff     =      60.0000  Ry
     charge density cutoff     =     240.0000  Ry
     scf convergence threshold =      1.0E-06
     mixing beta               =       0.7000
     number of iterations used =            8  local-TF  mixing
     Exchange-correlation= BEEF-VDW
                           (   1   4  43  14   2   0   0)

     celldm(1)=  16.034858  celldm(2)=   0.000000  celldm(3)=   0.000000
     celldm(4)=   0.000000  celldm(5)=   0.000000  celldm(6)=   0.000000

     crystal axes: (cart. coord. in units of alat)
               a(1) = (   1.000000   0.000000   0.000000 )  
               a(2) = (   0.500000   0.866025   0.000000 )  
               a(3) = (   0.000000   0.000000   3.407445 )  

     reciprocal axes: (cart. coord. in units 2 pi/alat)
               b(1) = (  1.000000 -0.577350  0.000000 )  
               b(2) = (  0.000000  1.154701  0.000000 )  
               b(3) = (  0.000000  0.000000  0.293475 )  


     PseudoPot. # 1 for Pt read from file:
     /users/bkreitz1/quantum-espresso/potentials/Pt.pbe-n-kjpaw_psl.1.0.0.UPF
     MD5 check sum: 04dc8a03c51ece93fc7b5889c2958091
     Pseudo is Projector augmented-wave + core cor, Zval = 10.0
     Generated using 'atomic' code by A. Dal Corso  v.6.7MaX
     Shape of augmentation charge: PSQ
     Using radial grid of 1277 points,  6 beta functions with: 
                l(1) =   0
                l(2) =   0
                l(3) =   1
                l(4) =   1
                l(5) =   2
                l(6) =   2
     Q(r) pseudized with 0 coefficients 


     PseudoPot. # 2 for C  read from file:
     /users/bkreitz1/quantum-espresso/potentials/C.pbe-n-kjpaw_psl.1.0.0.UPF
     MD5 check sum: a169b0ebad56f5ec0d79c4633f80bf22
     Pseudo is Projector augmented-wave + core cor, Zval =  4.0
     Generated using 'atomic' code by A. Dal Corso  v.6.7MaX
     Shape of augmentation charge: PSQ
     Using radial grid of 1073 points,  4 beta functions with: 
                l(1) =   0
                l(2) =   0
                l(3) =   1
                l(4) =   1
     Q(r) pseudized with 0 coefficients 


     PseudoPot. # 3 for O  read from file:
     /users/bkreitz1/quantum-espresso/potentials/O.pbe-nl-kjpaw_psl.1.0.0.UPF
     MD5 check sum: eef08af8b58d9ec80f8fdb78829eb7cf
     Pseudo is Projector augmented-wave + core cor, Zval =  6.0
     Generated using 'atomic' code by A. Dal Corso  v.6.7MaX
     Shape of augmentation charge: PSQ
     Using radial grid of 1095 points,  4 beta functions with: 
                l(1) =   0
                l(2) =   0
                l(3) =   1
                l(4) =   1
     Q(r) pseudized with 0 coefficients 


     PseudoPot. # 4 for H  read from file:
     /users/bkreitz1/quantum-espresso/potentials/H.pbe-kjpaw_psl.1.0.0.UPF
     MD5 check sum: ae98473e6dc62675f0d0baffdab24f65
     Pseudo is Projector augmented-wave, Zval =  1.0
     Generated using 'atomic' code by A. Dal Corso  v.6.7MaX
     Shape of augmentation charge: PSQ
     Using radial grid of  929 points,  2 beta functions with: 
                l(1) =   0
                l(2) =   0
     Q(r) pseudized with 0 coefficients 


     atomic species   valence    mass     pseudopotential
        Pt            10.00   195.08400     Pt( 1.00)
        C              4.00    12.01100     C ( 1.00)
        O              6.00    15.99900     O ( 1.00)
        H              1.00     1.00800     H ( 1.00)

     No symmetry found



   Cartesian axes

     site n.     atom                  positions (alat units)
         1           Pt  tau(   1) = (   0.0000000   0.0000000   1.0017346  )
         2           Pt  tau(   2) = (   0.3333333   0.0000000   1.0017346  )
         3           Pt  tau(   3) = (   0.6666667   0.0000000   1.0017346  )
         4           Pt  tau(   4) = (   0.1666667   0.2886751   1.0017346  )
         5           Pt  tau(   5) = (   0.5000000   0.2886751   1.0017346  )
         6           Pt  tau(   6) = (   0.8333333   0.2886751   1.0017346  )
         7           Pt  tau(   7) = (   0.3333333   0.5773503   1.0017346  )
         8           Pt  tau(   8) = (   0.6666667   0.5773503   1.0017346  )
         9           Pt  tau(   9) = (   1.0000000   0.5773503   1.0017346  )
        10           Pt  tau(  10) = (   0.1666667   0.0962250   1.2739001  )
        11           Pt  tau(  11) = (   0.5000000   0.0962250   1.2739001  )
        12           Pt  tau(  12) = (   0.8333333   0.0962250   1.2739001  )
        13           Pt  tau(  13) = (   0.3333333   0.3849002   1.2739001  )
        14           Pt  tau(  14) = (   0.6666667   0.3849002   1.2739001  )
        15           Pt  tau(  15) = (   1.0000000   0.3849002   1.2739001  )
        16           Pt  tau(  16) = (   0.5000000   0.6735753   1.2739001  )
        17           Pt  tau(  17) = (   0.8333333   0.6735753   1.2739001  )
        18           Pt  tau(  18) = (   1.1666667   0.6735753   1.2739001  )
        19           Pt  tau(  19) = (  -0.0000576   0.1926865   1.5428928  )
        20           Pt  tau(  20) = (   0.3331735   0.1926177   1.5428721  )
        21           Pt  tau(  21) = (   0.6667878   0.1926032   1.5427729  )
        22           Pt  tau(  22) = (   0.1667441   0.4813948   1.5431677  )
        23           Pt  tau(  23) = (   0.4998419   0.4814303   1.5427760  )
        24           Pt  tau(  24) = (   0.8334270   0.4812262   1.5427378  )
        25           Pt  tau(  25) = (   0.3332798   0.7699587   1.5431654  )
        26           Pt  tau(  26) = (   0.6666419   0.7701027   1.5429234  )
        27           Pt  tau(  27) = (   0.9999751   0.7700359   1.5431533  )
        28           Pt  tau(  28) = (  -0.0000219   0.0008707   1.8172006  )
        29           Pt  tau(  29) = (   0.3331802   0.0006181   1.8174791  )
        30           Pt  tau(  30) = (   0.6663790   0.0008011   1.8174860  )
        31           Pt  tau(  31) = (   0.1664759   0.2890005   1.8171670  )
        32           Pt  tau(  32) = (   0.4998758   0.2888124   1.8162634  )
        33           Pt  tau(  33) = (   0.8331313   0.2891916   1.8173899  )
        34           Pt  tau(  34) = (   0.3327279   0.5782951   1.8174426  )
        35           Pt  tau(  35) = (   0.6671718   0.5780515   1.8164601  )
        36           Pt  tau(  36) = (   0.9996475   0.5779177   1.8173047  )
        37           C   tau(  37) = (   0.5564855   0.3705052   2.3107164  )
        38           C   tau(  38) = (   0.5027091   0.5078869   2.2132651  )
        39           O   tau(  39) = (   0.3653341   0.5413964   2.1873929  )
        40           H   tau(  40) = (   0.6372338   0.4114838   2.4025714  )
        41           H   tau(  41) = (   0.4568457   0.3083425   2.3623968  )
        42           H   tau(  42) = (   0.6243795   0.2907067   2.2350490  )
        43           H   tau(  43) = (   0.5987097   0.5797170   2.1612678  )

     number of k points=    13  Marzari-Vanderbilt smearing, width (Ry)=  0.0200
                       cart. coord. in units 2pi/alat
        k(    1) = (   0.0000000   0.0000000   0.0000000), wk =   0.0800000
        k(    2) = (   0.0000000   0.2309401   0.0000000), wk =   0.1600000
        k(    3) = (   0.0000000   0.4618802   0.0000000), wk =   0.1600000
        k(    4) = (   0.2000000  -0.1154701   0.0000000), wk =   0.1600000
        k(    5) = (   0.2000000   0.1154701   0.0000000), wk =   0.1600000
        k(    6) = (   0.2000000   0.3464102   0.0000000), wk =   0.1600000
        k(    7) = (   0.2000000  -0.5773503   0.0000000), wk =   0.1600000
        k(    8) = (   0.2000000  -0.3464102   0.0000000), wk =   0.1600000
        k(    9) = (   0.4000000  -0.2309401   0.0000000), wk =   0.1600000
        k(   10) = (   0.4000000  -0.0000000   0.0000000), wk =   0.1600000
        k(   11) = (   0.4000000   0.2309401   0.0000000), wk =   0.1600000
        k(   12) = (   0.4000000  -0.6928203   0.0000000), wk =   0.1600000
        k(   13) = (   0.4000000  -0.4618802   0.0000000), wk =   0.1600000

     Dense  grid:   764207 G-vectors     FFT dimensions: (  80,  80, 270)

     Estimated max dynamical RAM per process >       9.32 GB

     Check: negative core charge=   -0.000002

     Initial potential from superposition of free atoms

     starting charge  377.99377, renormalised to  378.00000

     negative rho (up, down):  1.110E-02 0.000E+00


     %%%%%%%%%%%%%%%%%%%%%%%%%%%%%%%%%%%%%%%%%%%%%%%%%%%%%%%%%%%%%%%%%%%%%%%%
     %                                                                      %
     % You are using vdW-DF, which was implemented by the Thonhauser group. %
     % Please cite the following two papers that made this development      %
     % possible and the two reviews that describe the various versions:     %
     %                                                                      %
     %   T. Thonhauser et al., PRL 115, 136402 (2015).                      %
     %   T. Thonhauser et al., PRB 76, 125112 (2007).                       %
     %   K. Berland et al., Rep. Prog. Phys. 78, 066501 (2015).             %
     %   D.C. Langreth et al., J. Phys.: Condens. Matter 21, 084203 (2009). %
     %                                                                      %
     %                                                                      %
     % If you are calculating the stress with vdW-DF, please also cite:     %
     %                                                                      %
     %   R. Sabatini et al., J. Phys.: Condens. Matter 24, 424209 (2012).   %
     %                                                                      %
     %%%%%%%%%%%%%%%%%%%%%%%%%%%%%%%%%%%%%%%%%%%%%%%%%%%%%%%%%%%%%%%%%%%%%%%%


     Starting wfcs are  340 randomized atomic wfcs
     Checking if some PAW data can be deallocated... 

     total cpu time spent up to now is      299.0 secs

     Self-consistent Calculation

     iteration #  1     ecut=    60.00 Ry     beta= 0.70
     Davidson diagonalization with overlap
     ethr =  1.00E-02,  avg # of iterations =  2.8

     negative rho (up, down):  1.243E-02 0.000E+00

     total cpu time spent up to now is      869.5 secs

     total energy              =  -27838.64323851 Ry
     estimated scf accuracy    <       5.81004169 Ry

     iteration #  2     ecut=    60.00 Ry     beta= 0.70
     Davidson diagonalization with overlap
     ethr =  1.54E-03,  avg # of iterations =  2.0

     negative rho (up, down):  1.038E-02 0.000E+00

     total cpu time spent up to now is     1430.3 secs

     total energy              =  -27839.40306770 Ry
     estimated scf accuracy    <       1.15323718 Ry

     iteration #  3     ecut=    60.00 Ry     beta= 0.70
     Davidson diagonalization with overlap
     ethr =  3.05E-04,  avg # of iterations =  6.8

     negative rho (up, down):  7.447E-03 0.000E+00

     total cpu time spent up to now is     2091.7 secs

     total energy              =  -27839.55866463 Ry
     estimated scf accuracy    <       0.36921146 Ry

     iteration #  4     ecut=    60.00 Ry     beta= 0.70
     Davidson diagonalization with overlap
     ethr =  9.77E-05,  avg # of iterations =  7.8

     negative rho (up, down):  3.898E-03 0.000E+00

     total cpu time spent up to now is     2827.0 secs

     total energy              =  -27839.61610417 Ry
     estimated scf accuracy    <       0.11530511 Ry

     iteration #  5     ecut=    60.00 Ry     beta= 0.70
     Davidson diagonalization with overlap
     ethr =  3.05E-05,  avg # of iterations =  7.7

     negative rho (up, down):  3.068E-03 0.000E+00

     total cpu time spent up to now is     3538.3 secs

     total energy              =  -27839.63550503 Ry
     estimated scf accuracy    <       0.02440241 Ry

     iteration #  6     ecut=    60.00 Ry     beta= 0.70
     Davidson diagonalization with overlap
     c_bands:  1 eigenvalues not converged
     c_bands:  1 eigenvalues not converged
     c_bands:  2 eigenvalues not converged
     ethr =  6.46E-06,  avg # of iterations = 12.2

     negative rho (up, down):  2.672E-03 0.000E+00

     total cpu time spent up to now is     4301.8 secs

     total energy              =  -27839.64000695 Ry
     estimated scf accuracy    <       0.01580751 Ry

     iteration #  7     ecut=    60.00 Ry     beta= 0.70
     Davidson diagonalization with overlap
     c_bands:  1 eigenvalues not converged
     c_bands:  1 eigenvalues not converged
     ethr =  4.18E-06,  avg # of iterations =  9.9

     negative rho (up, down):  2.719E-03 0.000E+00

     total cpu time spent up to now is     4888.2 secs

     total energy              =  -27839.64128932 Ry
     estimated scf accuracy    <       0.00502973 Ry

     iteration #  8     ecut=    60.00 Ry     beta= 0.70
     Davidson diagonalization with overlap
     c_bands:  1 eigenvalues not converged
     c_bands:  1 eigenvalues not converged
     c_bands:  2 eigenvalues not converged
     c_bands:  1 eigenvalues not converged
     ethr =  1.33E-06,  avg # of iterations = 11.2

     negative rho (up, down):  3.899E-03 0.000E+00

     total cpu time spent up to now is     5537.5 secs

     total energy              =  -27839.64160170 Ry
     estimated scf accuracy    <       0.00204856 Ry

     iteration #  9     ecut=    60.00 Ry     beta= 0.70
     Davidson diagonalization with overlap
     c_bands:  1 eigenvalues not converged
     ethr =  5.42E-07,  avg # of iterations = 12.9

     negative rho (up, down):  5.730E-03 0.000E+00

     total cpu time spent up to now is     6251.1 secs

     total energy              =  -27839.64182059 Ry
     estimated scf accuracy    <       0.00330400 Ry

     iteration # 10     ecut=    60.00 Ry     beta= 0.70
     Davidson diagonalization with overlap
     ethr =  5.42E-07,  avg # of iterations =  2.4

     negative rho (up, down):  9.491E-03 0.000E+00

     total cpu time spent up to now is     6769.3 secs

     total energy              =  -27839.64182698 Ry
     estimated scf accuracy    <       0.00134824 Ry

     iteration # 11     ecut=    60.00 Ry     beta= 0.70
     Davidson diagonalization with overlap
     ethr =  3.57E-07,  avg # of iterations =  3.1

     negative rho (up, down):  1.062E-02 0.000E+00

     total cpu time spent up to now is     7314.4 secs

     total energy              =  -27839.64189529 Ry
     estimated scf accuracy    <       0.00065553 Ry

     iteration # 12     ecut=    60.00 Ry     beta= 0.70
     Davidson diagonalization with overlap
     ethr =  1.73E-07,  avg # of iterations =  2.0

     negative rho (up, down):  1.093E-02 0.000E+00

     total cpu time spent up to now is     7841.6 secs

     total energy              =  -27839.64194395 Ry
     estimated scf accuracy    <       0.00020574 Ry

     iteration # 13     ecut=    60.00 Ry     beta= 0.70
     Davidson diagonalization with overlap
     ethr =  5.44E-08,  avg # of iterations =  4.2

     negative rho (up, down):  1.101E-02 0.000E+00

     total cpu time spent up to now is     8467.0 secs

     total energy              =  -27839.64198430 Ry
     estimated scf accuracy    <       0.00008849 Ry

     iteration # 14     ecut=    60.00 Ry     beta= 0.70
     Davidson diagonalization with overlap
     ethr =  2.34E-08,  avg # of iterations =  3.2

     negative rho (up, down):  1.109E-02 0.000E+00

     total cpu time spent up to now is     9023.0 secs

     total energy              =  -27839.64199105 Ry
     estimated scf accuracy    <       0.00002388 Ry

     iteration # 15     ecut=    60.00 Ry     beta= 0.70
     Davidson diagonalization with overlap
     ethr =  6.32E-09,  avg # of iterations =  4.2

     negative rho (up, down):  1.135E-02 0.000E+00

     total cpu time spent up to now is     9676.9 secs

     total energy              =  -27839.64199527 Ry
     estimated scf accuracy    <       0.00001721 Ry

     iteration # 16     ecut=    60.00 Ry     beta= 0.70
     Davidson diagonalization with overlap
     ethr =  4.55E-09,  avg # of iterations =  1.4

     negative rho (up, down):  1.136E-02 0.000E+00

     total cpu time spent up to now is    10177.2 secs

     total energy              =  -27839.64199561 Ry
     estimated scf accuracy    <       0.00001194 Ry

     iteration # 17     ecut=    60.00 Ry     beta= 0.70
     Davidson diagonalization with overlap
     ethr =  3.16E-09,  avg # of iterations =  1.0

     negative rho (up, down):  1.163E-02 0.000E+00

     total cpu time spent up to now is    10662.9 secs

     total energy              =  -27839.64199395 Ry
     estimated scf accuracy    <       0.00000741 Ry

     iteration # 18     ecut=    60.00 Ry     beta= 0.70
     Davidson diagonalization with overlap
     ethr =  1.96E-09,  avg # of iterations =  2.0

     negative rho (up, down):  1.189E-02 0.000E+00

     total cpu time spent up to now is    11184.4 secs

     total energy              =  -27839.64199298 Ry
     estimated scf accuracy    <       0.00000570 Ry

     iteration # 19     ecut=    60.00 Ry     beta= 0.70
     Davidson diagonalization with overlap
     ethr =  1.51E-09,  avg # of iterations =  1.1

     negative rho (up, down):  1.229E-02 0.000E+00

     total cpu time spent up to now is    11674.1 secs

     total energy              =  -27839.64199132 Ry
     estimated scf accuracy    <       0.00000418 Ry

     iteration # 20     ecut=    60.00 Ry     beta= 0.70
     Davidson diagonalization with overlap
     ethr =  1.11E-09,  avg # of iterations =  2.0

     negative rho (up, down):  1.238E-02 0.000E+00

     total cpu time spent up to now is    12202.0 secs

     total energy              =  -27839.64199115 Ry
     estimated scf accuracy    <       0.00000155 Ry

     iteration # 21     ecut=    60.00 Ry     beta= 0.70
     Davidson diagonalization with overlap
     ethr =  4.10E-10,  avg # of iterations =  2.2

     negative rho (up, down):  1.261E-02 0.000E+00

     total cpu time spent up to now is    12711.0 secs

     End of self-consistent calculation

          k = 0.0000 0.0000 0.0000 ( 95415 PWs)   bands (ev):

   -19.9377 -12.3040  -7.9111  -7.3915  -6.0887  -5.2526  -5.0072  -4.9707
    -4.9700  -4.9686  -4.9683  -4.9670  -4.9661  -4.9572  -4.4655  -4.4138
    -4.4131  -4.4121  -4.4116  -4.4112  -4.4068  -4.1424  -3.9405  -3.9401
    -3.9383  -3.9377  -3.9371  -3.9358  -3.7250  -3.7237  -3.7232  -3.7224
    -3.7217  -3.7216  -3.4931  -3.4924  -3.4866  -3.4844  -3.4813  -3.4803
    -3.4794  -3.4780  -3.4776  -3.4757  -3.4548  -3.4524  -3.2320  -2.8810
    -2.8801  -2.8462  -2.8442  -2.7969  -2.7936  -2.7924  -2.7909  -2.7900
    -2.7895  -2.6524  -2.6517  -2.5810  -2.5516  -2.5359  -2.0492  -2.0462
    -2.0453  -2.0448  -2.0441  -2.0396  -1.9825  -1.8872  -1.8872  -1.8587
    -1.8584  -1.8470  -1.8432  -1.8293  -1.8232  -1.8221  -1.8205  -1.8200
    -1.8194  -1.8126  -1.7844  -1.7840  -1.6347  -1.6337  -1.6305  -1.6295
    -1.6284  -1.6251  -1.4717  -1.4701  -1.4682  -1.4679  -1.4668  -1.4642
    -1.3790  -1.3787  -1.2809  -1.2804  -1.2175  -1.2175  -1.2099  -1.2075
    -1.1715  -1.1712  -1.1612  -1.1549  -1.0119  -1.0073  -1.0045  -1.0024
    -1.0016  -0.9965  -0.9760  -0.5116  -0.5089  -0.5085  -0.5071  -0.5066
    -0.5052  -0.4423  -0.4385  -0.4355  -0.4334  -0.4324  -0.4313  -0.3682
    -0.3656  -0.2018  -0.1981  -0.1904  -0.1871  -0.1867  -0.1808  -0.0519
    -0.0503  -0.0439  -0.0387  -0.0352  -0.0351   0.2199   0.2224   0.2231
     0.2241   0.2257   0.2261   0.2932   0.3008   0.3085   0.4794   0.4804
     0.4827   0.4847   0.4873   0.5189   0.6523   0.6546   0.6561   0.6567
     0.6576   0.6585   0.6930   0.6962   0.6983   0.7011   0.7083   0.7468
     0.8305   0.8484   0.8497   0.8515   0.8524   0.8529   0.8540   0.8570
     0.9499   0.9544   0.9590   0.9604   0.9613   0.9622   0.9651   0.9652
     1.0567   1.0588   1.0613   1.0630   1.0639   1.0646   1.1621   1.1688
     1.1703   1.1712   1.1733   1.1739   1.2726   1.3857   1.3898   1.4935
     1.4938   1.4949   1.4959   1.4970   1.4984   2.3378   2.3749   2.3754
     2.3803   2.3875   2.3935   2.4655   4.3842   4.6902   4.6991   4.7103
     4.7186   4.7748   4.8396   5.6411   6.2285   6.2556   6.2587   6.3092
     6.3120   6.3141   6.3144

          k = 0.0000 0.2309 0.0000 ( 95430 PWs)   bands (ev):

   -19.9377 -12.3040  -7.9111  -7.2445  -5.9442  -5.4849  -5.2475  -5.0856
    -5.0838  -4.8623  -4.8240  -4.7771  -4.7351  -4.7341  -4.5340  -4.5070
    -4.4559  -4.3509  -4.3495  -4.3326  -4.3286  -4.1420  -4.0527  -3.9185
    -3.9175  -3.8900  -3.8851  -3.8224  -3.8204  -3.7541  -3.7530  -3.7480
    -3.7461  -3.6673  -3.6415  -3.6407  -3.5255  -3.5222  -3.5210  -3.4658
    -3.4639  -3.3009  -3.2979  -3.2744  -3.2712  -3.2444  -3.2281  -3.0042
    -3.0034  -2.9638  -2.9158  -2.9149  -2.8741  -2.8724  -2.6989  -2.6946
    -2.6277  -2.6251  -2.5955  -2.5634  -2.5493  -2.5396  -2.3414  -2.2458
    -2.2444  -2.1650  -2.1610  -2.1246  -2.0827  -2.0460  -2.0430  -2.0269
    -2.0042  -2.0025  -1.9575  -1.8869  -1.8726  -1.8534  -1.8524  -1.7821
    -1.7593  -1.7581  -1.7042  -1.6910  -1.6882  -1.6243  -1.5841  -1.5754
    -1.5733  -1.5717  -1.4745  -1.4728  -1.4651  -1.4633  -1.4556  -1.3818
    -1.3791  -1.3614  -1.3432  -1.2881  -1.2842  -1.2838  -1.2348  -1.2319
    -1.1934  -1.1905  -1.1801  -1.0831  -1.0122  -1.0028  -1.0012  -0.9989
    -0.9939  -0.9688  -0.9644  -0.9603  -0.9098  -0.9048  -0.8826  -0.8802
    -0.6788  -0.5953  -0.5376  -0.4907  -0.4884  -0.4828  -0.4799  -0.4514
    -0.4506  -0.2901  -0.2824  -0.2777  -0.1783  -0.1421  -0.1333  -0.1239
    -0.1082  -0.0137  -0.0123  -0.0056   0.0025   0.0849   0.0969   0.0980
     0.1226   0.1245   0.2794   0.3185   0.3359   0.3525   0.3537   0.3629
     0.3802   0.3886   0.4737   0.5008   0.5192   0.5284   0.5483   0.5938
     0.5949   0.5980   0.6053   0.7114   0.7192   0.7407   0.7604   0.8340
     0.8883   0.8896   0.8985   0.8994   0.9200   0.9605   0.9660   1.0263
     1.0285   1.0872   1.0901   1.0963   1.1401   1.1447   1.1459   1.1495
     1.1507   1.1567   1.2238   1.2270   1.3827   1.3836   1.3927   1.4115
     1.4208   1.4221   1.4570   1.4974   1.4985   1.5183   1.6168   1.6184
     1.6396   1.7973   1.8029   1.8056   1.8382   1.8859   2.2530   2.2705
     2.9665   2.9756   3.0290   3.1366   3.9890   4.3409   4.4526   4.5761
     5.1247   5.1258   5.2766   5.3042   5.5446   5.7390   6.1023   6.1071
     6.2923   6.3470   6.4901

          k = 0.0000 0.4619 0.0000 ( 95486 PWs)   bands (ev):

   -19.9377 -12.3040  -7.9110  -6.8213  -6.1860  -5.5405  -5.2454  -5.1194
    -5.1171  -4.9754  -4.7513  -4.5982  -4.5008  -4.4610  -4.4074  -4.3933
    -4.3913  -4.2152  -4.2087  -4.1787  -4.1699  -4.1686  -4.1391  -4.0472
    -4.0106  -4.0094  -3.9584  -3.9572  -3.9015  -3.8715  -3.8220  -3.8215
    -3.7909  -3.5488  -3.5480  -3.5353  -3.5339  -3.5320  -3.5302  -3.3079
    -3.3049  -3.2516  -3.2494  -3.2367  -3.2356  -3.2274  -3.0564  -2.9522
    -2.9511  -2.9421  -2.9393  -2.8760  -2.8745  -2.8256  -2.8109  -2.8079
    -2.7314  -2.7301  -2.6087  -2.5992  -2.5711  -2.5491  -2.5403  -2.4501
    -2.4147  -2.3711  -2.3694  -2.3623  -2.2275  -2.1515  -2.1426  -2.1295
    -2.1261  -2.0390  -2.0357  -2.0215  -1.9011  -1.8995  -1.8848  -1.8808
    -1.7629  -1.7589  -1.7580  -1.7571  -1.7556  -1.6826  -1.6642  -1.6623
    -1.6507  -1.6322  -1.6288  -1.6250  -1.6160  -1.5734  -1.5021  -1.4890
    -1.4857  -1.4767  -1.4408  -1.4377  -1.4058  -1.3255  -1.2691  -1.2326
    -1.2305  -1.1947  -1.1922  -1.1601  -1.1487  -1.1465  -1.0192  -1.0174
    -0.9974  -0.9395  -0.9379  -0.8913  -0.7555  -0.7530  -0.7234  -0.6700
    -0.5876  -0.5830  -0.5680  -0.5571  -0.5507  -0.5459  -0.5437  -0.4546
    -0.4504  -0.4208  -0.4175  -0.3981  -0.3930  -0.3783  -0.3703  -0.3291
    -0.3130  -0.2097  -0.1793  -0.1755  -0.1066  -0.0458  -0.0119  -0.0112
     0.1182   0.1245   0.1812   0.2306   0.2640   0.2913   0.3204   0.3364
     0.3459   0.3776   0.3789   0.4375   0.4595   0.4853   0.4949   0.5515
     0.5934   0.6069   0.6484   0.6542   0.6636   0.6688   0.7445   0.8454
     0.8629   0.9304   0.9418   0.9458   0.9504   1.0339   1.0502   1.0527
     1.1456   1.1492   1.1538   1.1670   1.2240   1.2478   1.2494   1.2592
     1.3810   1.3840   1.4059   1.4083   1.4108   1.4192   1.4333   1.4352
     1.6087   1.6487   1.6500   1.6561   1.6584   1.8486   1.8839   2.2621
     2.2755   2.3330   2.5790   2.6993   2.7001   3.0975   3.1018   3.2968
     3.4334   3.9110   3.9125   3.9301   4.0815   4.1470   4.1924   4.2925
     4.3549   4.5145   4.5846   4.6369   5.2076   5.2242   5.7468   5.7588
     6.0245   6.2282   6.2559

          k = 0.2000-0.1155 0.0000 ( 95430 PWs)   bands (ev):

   -19.9377 -12.3040  -7.9111  -7.2445  -5.9441  -5.4852  -5.2485  -5.0846
    -5.0829  -4.8624  -4.8241  -4.7788  -4.7345  -4.7331  -4.5330  -4.5069
    -4.4585  -4.3508  -4.3500  -4.3318  -4.3284  -4.1423  -4.0518  -3.9183
    -3.9176  -3.8911  -3.8850  -3.8216  -3.8206  -3.7541  -3.7536  -3.7486
    -3.7467  -3.6677  -3.6410  -3.6395  -3.5267  -3.5224  -3.5213  -3.4646
    -3.4643  -3.3003  -3.2987  -3.2738  -3.2720  -3.2433  -3.2272  -3.0037
    -3.0029  -2.9632  -2.9162  -2.9149  -2.8746  -2.8730  -2.6981  -2.6949
    -2.6301  -2.6250  -2.5911  -2.5700  -2.5501  -2.5340  -2.3407  -2.2453
    -2.2443  -2.1627  -2.1603  -2.1221  -2.0803  -2.0475  -2.0466  -2.0280
    -2.0042  -2.0028  -1.9578  -1.8861  -1.8692  -1.8532  -1.8508  -1.7820
    -1.7645  -1.7636  -1.7041  -1.6899  -1.6854  -1.6245  -1.5865  -1.5727
    -1.5703  -1.5668  -1.4772  -1.4760  -1.4645  -1.4626  -1.4556  -1.3819
    -1.3785  -1.3620  -1.3461  -1.2888  -1.2841  -1.2835  -1.2360  -1.2325
    -1.1939  -1.1917  -1.1796  -1.0832  -1.0108  -1.0062  -1.0039  -0.9986
    -0.9933  -0.9672  -0.9655  -0.9619  -0.9093  -0.9045  -0.8820  -0.8802
    -0.6759  -0.5943  -0.5385  -0.4903  -0.4877  -0.4833  -0.4805  -0.4514
    -0.4502  -0.2908  -0.2812  -0.2794  -0.1836  -0.1374  -0.1338  -0.1204
    -0.1113  -0.0141  -0.0129  -0.0032   0.0020   0.0850   0.0970   0.0976
     0.1232   0.1251   0.2694   0.3151   0.3374   0.3519   0.3531   0.3553
     0.3829   0.4252   0.4724   0.4986   0.5024   0.5273   0.5495   0.5938
     0.5959   0.5970   0.6017   0.7115   0.7186   0.7408   0.7589   0.8411
     0.8874   0.8900   0.8973   0.8986   0.9190   0.9605   0.9657   1.0272
     1.0277   1.0867   1.0894   1.0960   1.1404   1.1452   1.1459   1.1490
     1.1504   1.1580   1.2223   1.2253   1.3806   1.3814   1.3960   1.4120
     1.4213   1.4234   1.4584   1.4986   1.5009   1.5182   1.6167   1.6182
     1.6396   1.7988   1.8035   1.8048   1.8419   1.8839   2.2521   2.2723
     2.9701   2.9736   3.0301   3.1313   3.9771   4.3926   4.4479   4.5369
     5.1244   5.1262   5.2641   5.2979   5.5690   5.7448   6.1003   6.1095
     6.2996   6.3432   6.4908

          k = 0.2000 0.1155 0.0000 ( 95430 PWs)   bands (ev):

   -19.9376 -12.3040  -7.9111  -7.2445  -5.9441  -5.4851  -5.2487  -5.0848
    -5.0830  -4.8623  -4.8240  -4.7786  -4.7347  -4.7331  -4.5354  -4.5071
    -4.4535  -4.3509  -4.3502  -4.3320  -4.3300  -4.1418  -4.0522  -3.9184
    -3.9175  -3.8903  -3.8849  -3.8222  -3.8207  -3.7540  -3.7533  -3.7485
    -3.7463  -3.6672  -3.6411  -3.6400  -3.5252  -3.5237  -3.5215  -3.4655
    -3.4639  -3.3008  -3.2982  -3.2756  -3.2717  -3.2416  -3.2274  -3.0040
    -3.0029  -2.9628  -2.9166  -2.9146  -2.8740  -2.8733  -2.6992  -2.6956
    -2.6284  -2.6249  -2.5903  -2.5693  -2.5496  -2.5373  -2.3412  -2.2456
    -2.2439  -2.1640  -2.1587  -2.1247  -2.0809  -2.0478  -2.0437  -2.0277
    -2.0043  -2.0033  -1.9577  -1.8865  -1.8711  -1.8535  -1.8510  -1.7821
    -1.7634  -1.7621  -1.7040  -1.6901  -1.6857  -1.6246  -1.5859  -1.5742
    -1.5711  -1.5670  -1.4767  -1.4743  -1.4648  -1.4627  -1.4555  -1.3816
    -1.3792  -1.3619  -1.3454  -1.2880  -1.2849  -1.2839  -1.2357  -1.2323
    -1.1943  -1.1911  -1.1798  -1.0833  -1.0118  -1.0056  -1.0018  -0.9993
    -0.9919  -0.9686  -0.9645  -0.9623  -0.9105  -0.9020  -0.8824  -0.8795
    -0.6775  -0.5943  -0.5380  -0.4903  -0.4883  -0.4833  -0.4803  -0.4516
    -0.4503  -0.2906  -0.2813  -0.2779  -0.1827  -0.1396  -0.1323  -0.1212
    -0.1105  -0.0141  -0.0123  -0.0025   0.0025   0.0850   0.0965   0.0977
     0.1233   0.1249   0.2677   0.3159   0.3393   0.3516   0.3533   0.3548
     0.3822   0.4147   0.4776   0.5022   0.5110   0.5274   0.5475   0.5937
     0.5953   0.5980   0.6006   0.7109   0.7172   0.7404   0.7564   0.8415
     0.8878   0.8905   0.8960   0.8996   0.9190   0.9601   0.9648   1.0267
     1.0281   1.0868   1.0896   1.0961   1.1403   1.1450   1.1455   1.1486
     1.1502   1.1601   1.2226   1.2264   1.3814   1.3822   1.3951   1.4118
     1.4210   1.4231   1.4581   1.4980   1.5000   1.5182   1.6163   1.6183
     1.6396   1.7984   1.8031   1.8053   1.8399   1.8823   2.2567   2.2697
     2.9690   2.9722   3.0300   3.1336   3.9809   4.3481   4.4589   4.5796
     5.1242   5.1258   5.2760   5.2989   5.5514   5.7406   6.0999   6.1059
     6.2632   6.4904   6.4927

          k = 0.2000 0.3464 0.0000 ( 95464 PWs)   bands (ev):

   -19.9377 -12.3040  -7.9111  -6.9587  -5.7335  -5.7315  -5.6682  -5.2441
    -4.6564  -4.6545  -4.6346  -4.6258  -4.5876  -4.5820  -4.5799  -4.5720
    -4.4670  -4.4656  -4.4398  -4.1430  -4.0769  -4.0756  -4.0738  -4.0723
    -4.0065  -3.9861  -3.8431  -3.8189  -3.8180  -3.7937  -3.7930  -3.7238
    -3.6689  -3.6674  -3.6311  -3.6300  -3.5862  -3.5416  -3.5410  -3.4983
    -3.4963  -3.4175  -3.2330  -3.1507  -3.0504  -3.0478  -3.0356  -3.0113
    -3.0099  -2.9961  -2.9947  -2.9393  -2.9198  -2.7626  -2.7614  -2.7528
    -2.6735  -2.6458  -2.6111  -2.5966  -2.5778  -2.5528  -2.4918  -2.4870
    -2.3188  -2.3175  -2.2992  -2.2185  -2.2163  -2.1852  -2.1806  -2.1771
    -2.1073  -2.1060  -1.9549  -1.9349  -1.9311  -1.9231  -1.8628  -1.8608
    -1.7993  -1.7958  -1.7895  -1.7838  -1.6620  -1.6275  -1.6267  -1.6103
    -1.6082  -1.6076  -1.5931  -1.5596  -1.5445  -1.4740  -1.4722  -1.4438
    -1.4362  -1.3743  -1.3695  -1.3136  -1.2926  -1.2513  -1.2492  -1.2442
    -1.1965  -1.1952  -1.1913  -1.1774  -1.1736  -1.1508  -1.1381  -1.1354
    -1.0755  -1.0747  -0.9731  -0.9312  -0.9266  -0.8564  -0.8528  -0.8498
    -0.8463  -0.6656  -0.6645  -0.5244  -0.5092  -0.4696  -0.4655  -0.4582
    -0.4406  -0.4365  -0.3888  -0.3857  -0.3590  -0.3523  -0.2985  -0.2670
    -0.1524  -0.0872  -0.0754  -0.0269  -0.0242  -0.0164   0.0298   0.0453
     0.1595   0.1741   0.1754   0.2239   0.2332   0.2982   0.3134   0.3719
     0.3840   0.3930   0.4080   0.4674   0.4723   0.4774   0.4888   0.5111
     0.5135   0.5174   0.5243   0.5403   0.6562   0.7264   0.7346   0.8666
     0.8696   0.8944   1.0347   1.0369   1.0385   1.0476   1.1439   1.1737
     1.1782   1.1856   1.1904   1.2261   1.2278   1.2520   1.2551   1.2603
     1.3161   1.3182   1.3344   1.4066   1.4310   1.4343   1.4690   1.4693
     1.5127   1.6456   1.6985   1.6992   1.7815   1.7857   1.7862   1.8024
     1.9366   1.9392   2.3872   2.4662   2.4670   2.9995   3.0041   3.0305
     3.0450   3.7113   3.7342   3.8192   3.9226   3.9622   3.9896   4.4728
     4.6418   5.1129   5.1789   5.2168   5.3560   5.8192   5.8515   5.8852
     5.9385   5.9478   5.9654

          k = 0.2000-0.5774 0.0000 ( 95506 PWs)   bands (ev):

   -19.9376 -12.3040  -7.9110  -6.4245  -6.4221  -5.8156  -5.2708  -5.1689
    -5.1438  -4.6550  -4.6507  -4.5176  -4.4827  -4.4648  -4.3736  -4.3728
    -4.2652  -4.2642  -4.1473  -4.1425  -4.1389  -4.1366  -4.0996  -4.0990
    -4.0731  -4.0649  -3.9430  -3.9323  -3.9317  -3.8886  -3.8873  -3.7931
    -3.6997  -3.6776  -3.6155  -3.5170  -3.5167  -3.5049  -3.5036  -3.4842
    -3.3755  -3.3741  -3.2812  -3.2767  -3.2315  -3.1019  -3.0930  -3.0384
    -2.9373  -2.9364  -2.8851  -2.8835  -2.7760  -2.7234  -2.6784  -2.6772
    -2.6582  -2.6172  -2.6106  -2.5884  -2.5628  -2.4730  -2.4696  -2.4418
    -2.4391  -2.4369  -2.4340  -2.4217  -2.3602  -2.3570  -2.2290  -2.2072
    -2.1564  -2.1547  -2.0411  -2.0056  -1.9977  -1.9965  -1.9500  -1.9112
    -1.9108  -1.8228  -1.8009  -1.7966  -1.7913  -1.7596  -1.7288  -1.6822
    -1.6769  -1.6295  -1.5782  -1.5766  -1.5593  -1.5545  -1.4437  -1.3986
    -1.3959  -1.3554  -1.3547  -1.3103  -1.3083  -1.2951  -1.2938  -1.2625
    -1.2606  -1.2141  -1.2115  -1.1832  -1.1644  -1.1626  -1.1582  -1.1571
    -1.1410  -1.1143  -1.0444  -1.0425  -1.0394  -0.8330  -0.8239  -0.7332
    -0.7307  -0.6228  -0.6125  -0.6103  -0.5884  -0.5264  -0.5250  -0.5210
    -0.5023  -0.4922  -0.4131  -0.3777  -0.3757  -0.3107  -0.2947  -0.2789
    -0.2263  -0.2179  -0.1772  -0.0340   0.0301   0.0324   0.0499   0.0520
     0.1382   0.1481   0.1542   0.1767   0.1852   0.1993   0.2172   0.2312
     0.3047   0.3502   0.3571   0.3884   0.4194   0.4308   0.4479   0.4603
     0.4677   0.4944   0.6279   0.6774   0.7112   0.7843   0.7890   0.8676
     0.8686   0.9541   0.9962   1.0023   1.0123   1.1069   1.1151   1.1806
     1.2125   1.2222   1.2309   1.2392   1.2743   1.2804   1.3139   1.3887
     1.3906   1.4159   1.4411   1.4422   1.4456   1.4611   1.5071   1.6481
     1.6533   1.6535   1.6549   1.6573   1.7318   1.8006   1.8468   1.9863
     2.8066   2.8072   3.0300   3.0584   3.0944   3.2066   3.2106   3.2215
     3.6557   3.8170   3.8196   4.2432   4.2833   4.3025   4.4067   4.4229
     4.5333   4.6367   4.7219   4.7828   4.8786   5.1694   5.2578   5.2772
     5.7730   5.9013   5.9041

          k = 0.2000-0.3464 0.0000 ( 95464 PWs)   bands (ev):

   -19.9376 -12.3040  -7.9110  -6.9587  -5.7335  -5.7316  -5.6679  -5.2436
    -4.6562  -4.6547  -4.6336  -4.6270  -4.5872  -4.5817  -4.5800  -4.5716
    -4.4671  -4.4653  -4.4421  -4.1434  -4.0767  -4.0764  -4.0732  -4.0724
    -4.0069  -3.9857  -3.8429  -3.8195  -3.8176  -3.7938  -3.7930  -3.7233
    -3.6690  -3.6669  -3.6312  -3.6304  -3.5861  -3.5425  -3.5402  -3.4977
    -3.4965  -3.4178  -3.2338  -3.1506  -3.0498  -3.0481  -3.0353  -3.0117
    -3.0089  -2.9964  -2.9950  -2.9395  -2.9197  -2.7633  -2.7608  -2.7522
    -2.6724  -2.6481  -2.6105  -2.5961  -2.5797  -2.5480  -2.4918  -2.4883
    -2.3195  -2.3175  -2.2989  -2.2180  -2.2123  -2.1847  -2.1821  -2.1768
    -2.1077  -2.1057  -1.9539  -1.9355  -1.9307  -1.9233  -1.8635  -1.8606
    -1.7984  -1.7960  -1.7889  -1.7848  -1.6613  -1.6279  -1.6260  -1.6102
    -1.6080  -1.6071  -1.5932  -1.5601  -1.5439  -1.4757  -1.4724  -1.4443
    -1.4364  -1.3733  -1.3708  -1.3138  -1.2942  -1.2521  -1.2498  -1.2440
    -1.1961  -1.1943  -1.1929  -1.1769  -1.1733  -1.1505  -1.1401  -1.1357
    -1.0752  -1.0742  -0.9731  -0.9321  -0.9278  -0.8574  -0.8531  -0.8481
    -0.8463  -0.6657  -0.6640  -0.5248  -0.5094  -0.4691  -0.4663  -0.4590
    -0.4395  -0.4371  -0.3878  -0.3860  -0.3582  -0.3528  -0.2990  -0.2668
    -0.1525  -0.0859  -0.0761  -0.0284  -0.0241  -0.0167   0.0294   0.0454
     0.1608   0.1727   0.1762   0.2263   0.2328   0.2882   0.3233   0.3683
     0.3860   0.3918   0.4052   0.4689   0.4730   0.4770   0.4884   0.5093
     0.5141   0.5169   0.5246   0.5402   0.6582   0.7272   0.7344   0.8671
     0.8692   0.8959   1.0333   1.0359   1.0386   1.0493   1.1440   1.1744
     1.1799   1.1864   1.1897   1.2256   1.2282   1.2520   1.2547   1.2593
     1.3144   1.3190   1.3354   1.4061   1.4304   1.4346   1.4689   1.4696
     1.5126   1.6463   1.6984   1.7002   1.7807   1.7844   1.7870   1.8042
     1.9352   1.9396   2.3901   2.4648   2.4679   3.0018   3.0036   3.0306
     3.0462   3.7103   3.7358   3.8193   3.9232   3.9630   3.9823   4.4673
     4.6498   5.1132   5.1775   5.1883   5.3582   5.8288   5.8419   5.8937
     5.9445   5.9495   5.9806

          k = 0.4000-0.2309 0.0000 ( 95486 PWs)   bands (ev):

   -19.9376 -12.3040  -7.9110  -6.8214  -6.1862  -5.5397  -5.2462  -5.1183
    -5.1161  -4.9767  -4.7527  -4.5981  -4.5000  -4.4616  -4.4095  -4.3925
    -4.3914  -4.2131  -4.2086  -4.1788  -4.1700  -4.1689  -4.1401  -4.0481
    -4.0097  -4.0093  -3.9587  -3.9577  -3.9013  -3.8729  -3.8216  -3.8212
    -3.7914  -3.5482  -3.5479  -3.5352  -3.5343  -3.5306  -3.5298  -3.3094
    -3.3044  -3.2556  -3.2485  -3.2381  -3.2354  -3.2202  -3.0559  -2.9517
    -2.9507  -2.9413  -2.9401  -2.8766  -2.8751  -2.8228  -2.8108  -2.8084
    -2.7328  -2.7311  -2.6095  -2.5979  -2.5687  -2.5492  -2.5404  -2.4488
    -2.4120  -2.3692  -2.3683  -2.3633  -2.2273  -2.1521  -2.1398  -2.1300
    -2.1272  -2.0400  -2.0358  -2.0178  -1.9053  -1.9021  -1.8842  -1.8825
    -1.7606  -1.7599  -1.7572  -1.7563  -1.7554  -1.6822  -1.6628  -1.6608
    -1.6529  -1.6309  -1.6275  -1.6266  -1.6153  -1.5735  -1.5028  -1.4882
    -1.4848  -1.4765  -1.4394  -1.4356  -1.4079  -1.3278  -1.2696  -1.2360
    -1.2354  -1.1941  -1.1904  -1.1611  -1.1526  -1.1514  -1.0192  -1.0170
    -1.0015  -0.9417  -0.9376  -0.8910  -0.7553  -0.7541  -0.7215  -0.6702
    -0.5861  -0.5848  -0.5689  -0.5509  -0.5478  -0.5458  -0.5438  -0.4545
    -0.4495  -0.4215  -0.4186  -0.3966  -0.3945  -0.3759  -0.3707  -0.3264
    -0.3161  -0.2113  -0.1787  -0.1768  -0.1068  -0.0484  -0.0128  -0.0123
     0.1200   0.1232   0.1589   0.2346   0.2790   0.2897   0.3180   0.3384
     0.3601   0.3781   0.3918   0.4365   0.4416   0.4854   0.4943   0.5509
     0.5936   0.6089   0.6493   0.6576   0.6617   0.6656   0.7488   0.8422
     0.8531   0.9302   0.9428   0.9441   0.9501   1.0372   1.0511   1.0519
     1.1449   1.1487   1.1534   1.1661   1.2289   1.2453   1.2469   1.2594
     1.3808   1.3833   1.4058   1.4084   1.4135   1.4204   1.4351   1.4393
     1.6088   1.6496   1.6517   1.6575   1.6612   1.8485   1.8835   2.2605
     2.2772   2.3282   2.5796   2.6997   2.6998   3.0991   3.1005   3.2953
     3.4354   3.9113   3.9126   3.9301   4.0850   4.1591   4.1822   4.3115
     4.3617   4.4833   4.5819   4.6238   5.2171   5.2254   5.7394   5.7660
     6.0326   6.2202   6.2589

          k = 0.4000-0.0000 0.0000 ( 95464 PWs)   bands (ev):

   -19.9377 -12.3040  -7.9111  -6.9587  -5.7336  -5.7317  -5.6678  -5.2443
    -4.6564  -4.6557  -4.6344  -4.6263  -4.5875  -4.5810  -4.5788  -4.5719
    -4.4671  -4.4653  -4.4412  -4.1423  -4.0781  -4.0773  -4.0728  -4.0721
    -4.0080  -3.9856  -3.8420  -3.8199  -3.8178  -3.7938  -3.7929  -3.7218
    -3.6691  -3.6661  -3.6309  -3.6303  -3.5858  -3.5428  -3.5407  -3.4993
    -3.4960  -3.4192  -3.2347  -3.1506  -3.0484  -3.0476  -3.0335  -3.0107
    -3.0088  -2.9957  -2.9948  -2.9397  -2.9202  -2.7646  -2.7604  -2.7531
    -2.6730  -2.6465  -2.6114  -2.5958  -2.5794  -2.5492  -2.4916  -2.4898
    -2.3182  -2.3153  -2.2983  -2.2159  -2.2128  -2.1850  -2.1813  -2.1761
    -2.1077  -2.1057  -1.9536  -1.9349  -1.9334  -1.9244  -1.8644  -1.8608
    -1.7977  -1.7955  -1.7887  -1.7855  -1.6583  -1.6281  -1.6253  -1.6101
    -1.6085  -1.6072  -1.5932  -1.5611  -1.5436  -1.4772  -1.4735  -1.4451
    -1.4376  -1.3734  -1.3705  -1.3136  -1.2956  -1.2536  -1.2506  -1.2438
    -1.1974  -1.1955  -1.1940  -1.1751  -1.1736  -1.1507  -1.1382  -1.1352
    -1.0768  -1.0739  -0.9732  -0.9306  -0.9278  -0.8574  -0.8538  -0.8484
    -0.8470  -0.6654  -0.6635  -0.5262  -0.5094  -0.4684  -0.4663  -0.4617
    -0.4367  -0.4361  -0.3871  -0.3856  -0.3574  -0.3540  -0.2980  -0.2649
    -0.1541  -0.0803  -0.0750  -0.0288  -0.0244  -0.0177   0.0293   0.0450
     0.1629   0.1710   0.1770   0.2295   0.2330   0.2812   0.3174   0.3643
     0.3861   0.3915   0.4091   0.4684   0.4710   0.4851   0.4892   0.5056
     0.5128   0.5146   0.5255   0.5436   0.6593   0.7276   0.7390   0.8670
     0.8701   0.8920   1.0330   1.0366   1.0387   1.0453   1.1459   1.1738
     1.1793   1.1861   1.1886   1.2257   1.2292   1.2503   1.2541   1.2596
     1.3141   1.3181   1.3379   1.4062   1.4306   1.4329   1.4689   1.4699
     1.5120   1.6482   1.7002   1.7018   1.7808   1.7845   1.7870   1.8053
     1.9352   1.9395   2.3877   2.4639   2.4673   3.0024   3.0039   3.0345
     3.0446   3.7157   3.7284   3.8157   3.9232   3.9628   3.9789   4.4810
     4.6502   5.1132   5.1706   5.1989   5.3564   5.8193   5.8453   5.9047
     5.9428   5.9526   5.9857

          k = 0.4000 0.2309 0.0000 ( 95486 PWs)   bands (ev):

   -19.9377 -12.3040  -7.9112  -6.8214  -6.1861  -5.5401  -5.2469  -5.1184
    -5.1165  -4.9763  -4.7526  -4.5981  -4.5005  -4.4610  -4.4068  -4.3929
    -4.3909  -4.2129  -4.2104  -4.1780  -4.1704  -4.1691  -4.1404  -4.0473
    -4.0100  -4.0092  -3.9588  -3.9575  -3.9013  -3.8715  -3.8216  -3.8212
    -3.7909  -3.5484  -3.5479  -3.5350  -3.5343  -3.5313  -3.5300  -3.3132
    -3.3047  -3.2540  -3.2485  -3.2379  -3.2351  -3.2186  -3.0554  -2.9518
    -2.9509  -2.9418  -2.9398  -2.8761  -2.8750  -2.8235  -2.8110  -2.8089
    -2.7317  -2.7309  -2.6119  -2.5984  -2.5728  -2.5499  -2.5353  -2.4499
    -2.4129  -2.3698  -2.3690  -2.3622  -2.2275  -2.1520  -2.1431  -2.1303
    -2.1258  -2.0404  -2.0364  -2.0195  -1.9053  -1.9010  -1.8848  -1.8812
    -1.7618  -1.7587  -1.7575  -1.7568  -1.7550  -1.6823  -1.6631  -1.6611
    -1.6524  -1.6315  -1.6288  -1.6233  -1.6156  -1.5738  -1.5026  -1.4889
    -1.4847  -1.4766  -1.4397  -1.4362  -1.4077  -1.3273  -1.2695  -1.2352
    -1.2332  -1.1943  -1.1894  -1.1611  -1.1508  -1.1499  -1.0194  -1.0169
    -1.0010  -0.9408  -0.9371  -0.8911  -0.7556  -0.7536  -0.7223  -0.6701
    -0.5869  -0.5831  -0.5684  -0.5538  -0.5486  -0.5452  -0.5435  -0.4546
    -0.4502  -0.4212  -0.4181  -0.3972  -0.3926  -0.3784  -0.3683  -0.3267
    -0.3156  -0.2109  -0.1785  -0.1758  -0.1067  -0.0474  -0.0126  -0.0122
     0.1207   0.1231   0.1729   0.2327   0.2729   0.2896   0.3192   0.3388
     0.3447   0.3778   0.3839   0.4396   0.4552   0.4851   0.4943   0.5509
     0.5927   0.6061   0.6486   0.6539   0.6628   0.6645   0.7551   0.8492
     0.8546   0.9300   0.9426   0.9445   0.9500   1.0333   1.0507   1.0522
     1.1439   1.1480   1.1535   1.1652   1.2275   1.2466   1.2476   1.2593
     1.3806   1.3832   1.4056   1.4079   1.4129   1.4202   1.4336   1.4366
     1.6087   1.6490   1.6517   1.6568   1.6603   1.8485   1.8836   2.2657
     2.2750   2.3311   2.5763   2.6992   2.7000   3.0984   3.1014   3.2915
     3.4340   3.9104   3.9125   3.9267   4.0782   4.1571   4.1880   4.2943
     4.3642   4.5304   4.5822   4.6284   5.2074   5.2184   5.7417   5.7571
     6.0353   6.2281   6.2442

          k = 0.4000-0.6928 0.0000 ( 95506 PWs)   bands (ev):

   -19.9377 -12.3040  -7.9112  -6.4244  -6.4224  -5.8155  -5.2694  -5.1680
    -5.1469  -4.6542  -4.6522  -4.5174  -4.4819  -4.4650  -4.3734  -4.3722
    -4.2655  -4.2645  -4.1512  -4.1414  -4.1381  -4.1359  -4.0989  -4.0987
    -4.0713  -4.0649  -3.9443  -3.9322  -3.9317  -3.8892  -3.8868  -3.7930
    -3.6996  -3.6772  -3.6158  -3.5175  -3.5164  -3.5049  -3.5037  -3.4836
    -3.3761  -3.3741  -3.2790  -3.2770  -3.2319  -3.1017  -3.0922  -3.0374
    -2.9378  -2.9368  -2.8848  -2.8838  -2.7774  -2.7239  -2.6805  -2.6770
    -2.6581  -2.6130  -2.6090  -2.5913  -2.5596  -2.4731  -2.4710  -2.4410
    -2.4388  -2.4366  -2.4338  -2.4220  -2.3603  -2.3574  -2.2299  -2.2070
    -2.1569  -2.1535  -2.0415  -2.0037  -1.9994  -1.9979  -1.9494  -1.9132
    -1.9124  -1.8231  -1.8002  -1.7967  -1.7908  -1.7590  -1.7275  -1.6810
    -1.6769  -1.6313  -1.5756  -1.5744  -1.5601  -1.5553  -1.4456  -1.3989
    -1.3950  -1.3548  -1.3538  -1.3107  -1.3087  -1.2961  -1.2940  -1.2655
    -1.2608  -1.2159  -1.2122  -1.1787  -1.1652  -1.1635  -1.1582  -1.1570
    -1.1425  -1.1124  -1.0460  -1.0436  -1.0408  -0.8339  -0.8247  -0.7331
    -0.7307  -0.6227  -0.6132  -0.6104  -0.5853  -0.5269  -0.5238  -0.5214
    -0.5000  -0.4917  -0.4112  -0.3792  -0.3761  -0.3094  -0.2947  -0.2800
    -0.2277  -0.2198  -0.1755  -0.0336   0.0289   0.0332   0.0487   0.0531
     0.1375   0.1493   0.1539   0.1766   0.1824   0.1971   0.2247   0.2324
     0.3062   0.3506   0.3584   0.3930   0.4198   0.4283   0.4459   0.4560
     0.4659   0.4880   0.6276   0.6849   0.7114   0.7850   0.7906   0.8679
     0.8686   0.9539   0.9973   1.0024   1.0070   1.1062   1.1159   1.1808
     1.2107   1.2221   1.2303   1.2349   1.2739   1.2812   1.3176   1.3888
     1.3902   1.4137   1.4414   1.4425   1.4453   1.4614   1.5080   1.6482
     1.6537   1.6543   1.6564   1.6585   1.7321   1.8022   1.8467   1.9863
     2.8067   2.8070   3.0279   3.0547   3.0952   3.2065   3.2106   3.2188
     3.6608   3.8176   3.8196   4.2420   4.2840   4.3077   4.4132   4.4224
     4.5070   4.6505   4.7313   4.7915   4.8638   5.1772   5.2560   5.2696
     5.7813   5.8986   5.9029

          k = 0.4000-0.4619 0.0000 ( 95506 PWs)   bands (ev):

   -19.9376 -12.3040  -7.9110  -6.4243  -6.4224  -5.8155  -5.2669  -5.1682
    -5.1488  -4.6549  -4.6523  -4.5172  -4.4826  -4.4637  -4.3735  -4.3719
    -4.2657  -4.2642  -4.1521  -4.1421  -4.1407  -4.1323  -4.0997  -4.0974
    -4.0712  -4.0680  -3.9440  -3.9330  -3.9312  -3.8890  -3.8871  -3.7929
    -3.7000  -3.6769  -3.6140  -3.5174  -3.5165  -3.5050  -3.5038  -3.4830
    -3.3761  -3.3739  -3.2799  -3.2766  -3.2317  -3.1022  -3.0920  -3.0379
    -2.9377  -2.9366  -2.8848  -2.8843  -2.7769  -2.7241  -2.6810  -2.6773
    -2.6567  -2.6127  -2.6078  -2.5888  -2.5649  -2.4731  -2.4675  -2.4414
    -2.4403  -2.4364  -2.4340  -2.4208  -2.3605  -2.3574  -2.2262  -2.2069
    -2.1574  -2.1531  -2.0415  -2.0023  -1.9998  -1.9974  -1.9495  -1.9135
    -1.9127  -1.8237  -1.7999  -1.7972  -1.7908  -1.7599  -1.7286  -1.6807
    -1.6766  -1.6312  -1.5762  -1.5736  -1.5598  -1.5553  -1.4465  -1.3984
    -1.3955  -1.3549  -1.3527  -1.3107  -1.3088  -1.2964  -1.2936  -1.2653
    -1.2619  -1.2158  -1.2141  -1.1773  -1.1653  -1.1646  -1.1585  -1.1564
    -1.1436  -1.1126  -1.0478  -1.0428  -1.0418  -0.8341  -0.8257  -0.7322
    -0.7316  -0.6222  -0.6142  -0.6098  -0.5837  -0.5267  -0.5239  -0.5220
    -0.4990  -0.4912  -0.4097  -0.3802  -0.3760  -0.3108  -0.2958  -0.2782
    -0.2319  -0.2168  -0.1753  -0.0331   0.0292   0.0324   0.0482   0.0531
     0.1412   0.1457   0.1533   0.1709   0.1771   0.2014   0.2233   0.2316
     0.3089   0.3521   0.3600   0.3938   0.4195   0.4335   0.4414   0.4538
     0.4674   0.4962   0.6265   0.6806   0.7045   0.7870   0.7922   0.8676
     0.8700   0.9549   0.9934   1.0026   1.0091   1.1072   1.1164   1.1807
     1.2098   1.2219   1.2297   1.2365   1.2759   1.2816   1.3167   1.3889
     1.3903   1.4128   1.4409   1.4433   1.4485   1.4616   1.5076   1.6481
     1.6541   1.6549   1.6561   1.6596   1.7315   1.7995   1.8468   1.9856
     2.8068   2.8071   3.0322   3.0569   3.0958   3.2085   3.2097   3.2164
     3.6564   3.8176   3.8201   4.2415   4.2776   4.3066   4.4034   4.4240
     4.5331   4.6448   4.7224   4.8013   4.8649   5.1606   5.2582   5.2709
     5.7677   5.8990   5.9021

     the Fermi energy is     1.4212 ev

!    total energy              =  -27839.64199038 Ry

     total all-electron energy =  -1326950.782483 Ry
     estimated scf accuracy    <       0.00000042 Ry
     smearing contrib. (-TS)   =       0.00257978 Ry
     internal energy E=F+TS    =  -27839.64457016 Ry

     The total energy is F=E-TS. E is the sum of the following terms:
     one-electron contribution =  -30674.36011852 Ry
     hartree contribution      =   15636.99731925 Ry
     xc contribution           =    -910.27765168 Ry
     ewald contribution        =   13605.18132235 Ry
     one-center paw contrib.   =  -25497.18544156 Ry

     convergence has been achieved in  21 iterations

     negative rho (up, down):  1.261E-02 0.000E+00

     Forces acting on atoms (cartesian axes, Ry/au):

     atom    1 type  1   force =    -0.00011993    0.00009366   -0.00340032
     atom    2 type  1   force =     0.00002090   -0.00005381   -0.00340982
     atom    3 type  1   force =     0.00002543    0.00002233   -0.00347012
     atom    4 type  1   force =    -0.00000535   -0.00005602   -0.00347477
     atom    5 type  1   force =     0.00008253   -0.00002094   -0.00345142
     atom    6 type  1   force =    -0.00012061   -0.00009107   -0.00406948
     atom    7 type  1   force =    -0.00001351   -0.00009325   -0.00358724
     atom    8 type  1   force =     0.00000922   -0.00018832   -0.00351223
     atom    9 type  1   force =    -0.00005414   -0.00003959   -0.00345088
     atom   10 type  1   force =     0.00002082   -0.00002690    0.00346623
     atom   11 type  1   force =    -0.00017574   -0.00022973    0.00384197
     atom   12 type  1   force =     0.00008493   -0.00023373    0.00425469
     atom   13 type  1   force =    -0.00021542    0.00025964    0.00341334
     atom   14 type  1   force =    -0.00006531    0.00017328    0.00387980
     atom   15 type  1   force =     0.00030563    0.00015154    0.00415211
     atom   16 type  1   force =    -0.00021582    0.00018418    0.00352294
     atom   17 type  1   force =     0.00010454    0.00030229    0.00370425
     atom   18 type  1   force =     0.00003463    0.00002052    0.00396192
     atom   19 type  1   force =    -0.00006505    0.00004397   -0.00035083
     atom   20 type  1   force =    -0.00005595   -0.00004500   -0.00042526
     atom   21 type  1   force =     0.00000347   -0.00001685   -0.00038033
     atom   22 type  1   force =    -0.00002463    0.00002073   -0.00027699
     atom   23 type  1   force =     0.00000401    0.00002478    0.00031203
     atom   24 type  1   force =    -0.00005674   -0.00002411   -0.00035819
     atom   25 type  1   force =    -0.00005804    0.00002813   -0.00030132
     atom   26 type  1   force =     0.00002077    0.00003117   -0.00035544
     atom   27 type  1   force =    -0.00008870    0.00008139   -0.00028408
     atom   28 type  1   force =    -0.00002596   -0.00008899   -0.00007405
     atom   29 type  1   force =     0.00004015   -0.00000290    0.00020718
     atom   30 type  1   force =    -0.00000332   -0.00001324   -0.00001854
     atom   31 type  1   force =    -0.00002829    0.00002839    0.00010690
     atom   32 type  1   force =    -0.00001442   -0.00005816   -0.00019200
     atom   33 type  1   force =     0.00001856   -0.00001046    0.00027331
     atom   34 type  1   force =     0.00012012   -0.00002543   -0.00000601
     atom   35 type  1   force =    -0.00011097   -0.00003122   -0.00010879
     atom   36 type  1   force =    -0.00000453   -0.00001121    0.00003161
     atom   37 type  2   force =    -0.00078917    0.00023452    0.00068506
     atom   38 type  2   force =    -0.00180554   -0.00275211    0.00147918
     atom   39 type  3   force =     0.00039754   -0.00025384   -0.00006007
     atom   40 type  4   force =    -0.00008865   -0.00022437   -0.00011779
     atom   41 type  4   force =     0.00056276   -0.00045547   -0.00019583
     atom   42 type  4   force =    -0.00023285    0.00031073    0.00041072
     atom   43 type  4   force =     0.00258266    0.00303545   -0.00237144

     Total force =     0.006178     Total SCF correction =     0.001429
     SCF correction compared to forces is large: reduce conv_thr to get better values

     negative rho (up, down):  1.261E-02 0.000E+00

     negative rho (up, down):  1.261E-02 0.000E+00

     negative rho (up, down):  1.261E-02 0.000E+00

     negative rho (up, down):  1.261E-02 0.000E+00

     negative rho (up, down):  1.261E-02 0.000E+00

     negative rho (up, down):  1.261E-02 0.000E+00

     negative rho (up, down):  1.261E-02 0.000E+00

     negative rho (up, down):  1.261E-02 0.000E+00

     negative rho (up, down):  1.261E-02 0.000E+00

     negative rho (up, down):  1.261E-02 0.000E+00

     negative rho (up, down):  1.261E-02 0.000E+00

     negative rho (up, down):  1.261E-02 0.000E+00

     negative rho (up, down):  1.261E-02 0.000E+00

     negative rho (up, down):  1.261E-02 0.000E+00

     negative rho (up, down):  1.261E-02 0.000E+00

     negative rho (up, down):  1.261E-02 0.000E+00

     negative rho (up, down):  1.261E-02 0.000E+00

     negative rho (up, down):  1.261E-02 0.000E+00

     negative rho (up, down):  1.261E-02 0.000E+00

     negative rho (up, down):  1.261E-02 0.000E+00

     negative rho (up, down):  1.261E-02 0.000E+00

     negative rho (up, down):  1.261E-02 0.000E+00

     negative rho (up, down):  1.261E-02 0.000E+00

     negative rho (up, down):  1.261E-02 0.000E+00

     negative rho (up, down):  1.261E-02 0.000E+00

     negative rho (up, down):  1.261E-02 0.000E+00

     negative rho (up, down):  1.261E-02 0.000E+00

     negative rho (up, down):  1.261E-02 0.000E+00

     negative rho (up, down):  1.261E-02 0.000E+00

     negative rho (up, down):  1.261E-02 0.000E+00

     negative rho (up, down):  1.261E-02 0.000E+00

     negative rho (up, down):  1.261E-02 0.000E+00

     negative rho (up, down):  1.261E-02 0.000E+00

     negative rho (up, down):  1.261E-02 0.000E+00
 BEEFens 2000 ensemble energies
             -0.609498519579906E+02
             -0.361791756997908E+01
             -0.158833452586254E+02
              0.431490208745630E+02
             -0.222273937881771E+02
             -0.206060355984631E+02
             -0.354523823762473E+02
             -0.869234611136250E+02
             -0.466833375836390E+02
             -0.474615371222146E+02
             -0.370833530591736E+02
              0.231783493318160E+01
              0.406220898513058E+01
              0.761915920305012E+01
              0.267040660890956E+01
              0.477003412267443E+02
             -0.209785890991397E+02
             -0.230630217540871E+02
              0.193580223576149E+02
             -0.112900350918554E+03
              0.538913719322437E+02
             -0.290711307851310E+02
             -0.337224065694691E+01
             -0.114717984979256E+02
             -0.881634957157189E+01
             -0.464787923167611E+01
              0.886795181158820E+02
             -0.188153321481982E+02
             -0.903705340998818E+01
             -0.520664533743263E+02
              0.818565702647622E+02
             -0.187521853902348E+02
             -0.376632425840631E+02
              0.250106615367128E+02
             -0.286653630629496E+01
              0.165080698958118E+02
             -0.486047072824914E+01
              0.108304072059980E+02
              0.289768984958175E+02
             -0.103718232680556E+03
              0.561068441496037E+02
              0.142935794051779E+02
             -0.177716546031593E+01
             -0.362804189333191E+02
              0.123689255949603E+02
             -0.147884210977043E+02
              0.400456142717902E+02
              0.366452436692059E+02
             -0.309077477459426E+02
             -0.276232187300516E+02
             -0.329509300308260E+02
             -0.353839094053403E+02
              0.137238359908759E+02
             -0.493110226759468E+02
              0.116399923585152E+02
              0.625891257061936E+02
              0.638628430696186E+02
              0.357591095915944E+02
              0.154908404138744E+02
              0.272040017125703E+02
              0.895748500942098E+02
              0.213315397259239E+02
             -0.551107716436973E+02
             -0.157615573207461E+02
             -0.237196560147405E+02
              0.632394038560126E+02
             -0.776867059077080E+02
             -0.674501994622643E+02
             -0.261060618566905E+02
             -0.657883957810600E+01
             -0.472384770872193E+02
              0.271985385043247E+02
              0.806305785311940E+01
              0.873660821836404E+01
             -0.399167666304264E+02
             -0.348393531760510E+02
             -0.544477038007722E+02
              0.391739471473220E+02
             -0.297562474954177E+02
              0.266779017850084E+02
             -0.720224476763163E+01
             -0.319257678952841E+02
             -0.578581870884451E+02
             -0.177119254068174E+02
             -0.909478170026250E+01
             -0.125338718590810E+02
              0.414210471971916E+02
              0.686341170951251E+02
             -0.387602705924794E+02
             -0.798204075945153E+02
             -0.220482694810593E+02
              0.112002006516776E+03
             -0.595205377300599E+02
              0.357433736002030E+02
             -0.961323488289406E+01
             -0.665900862435709E+02
              0.255609344846744E+02
              0.399538794838185E+02
             -0.199418957619492E+02
              0.401574686962431E+02
             -0.296996444936065E+02
             -0.480808517486269E+02
              0.870068636289989E+02
              0.455726083503833E+02
              0.337785706906357E+02
              0.146834828057512E+02
              0.206683555873906E+02
              0.860088476889750E+02
             -0.258063500505051E+02
              0.790546012691125E+01
             -0.143007043169800E+03
              0.182006955598127E+02
             -0.719109049487131E+02
              0.151719903539370E+02
              0.205644228393407E+02
             -0.334507091794320E+02
             -0.559516837526189E+02
              0.653426884299131E+01
             -0.305531855938425E+02
              0.309610076272127E+02
             -0.531993482378720E+02
              0.169198009994318E+01
             -0.358544719141362E+02
             -0.424170495913859E+01
             -0.104152411138705E+01
              0.182153973256843E+02
              0.141784364164437E+01
             -0.654678648026038E+01
              0.593423875797424E+02
              0.912451587330010E+02
              0.486270601544303E+02
              0.833496721081087E+02
             -0.115850398991499E+02
              0.143250942190770E+02
              0.543676803746010E+02
             -0.110906161796058E+02
             -0.739574366600515E+02
             -0.386180833851700E+02
             -0.524097135892253E+02
             -0.278127451762085E+02
              0.328406989029158E+02
             -0.117303135662362E+03
             -0.187910018105018E+02
              0.415918687448399E+02
             -0.387931501439048E+02
             -0.366763939909779E+02
              0.546700161674216E+02
              0.402778757145717E+02
             -0.355578505365097E+02
              0.138992096396312E+02
             -0.274529916109076E+02
              0.344840215608055E+02
              0.446980822501257E+01
              0.211590716550208E+02
             -0.888729347181346E+02
             -0.482398317231196E+02
             -0.100249285844884E+02
              0.317783629104760E+01
             -0.368709725668784E+02
              0.106499917038095E+03
             -0.231754975943389E+02
             -0.400191773015507E+02
              0.390446023809088E+02
             -0.496172652920797E+02
             -0.364802873148030E+02
              0.326108589781145E+02
              0.124906958949212E+02
              0.165304237859184E+02
              0.117146852589032E+02
             -0.133257198337421E+02
              0.225862562650673E+02
              0.592704851559729E+02
             -0.312896990842062E+02
              0.163157751691720E+02
              0.938640758155342E+02
              0.342178107271495E+02
             -0.732408340493896E+01
             -0.189415955499207E+02
              0.154036012260616E+03
             -0.164992940053064E+02
              0.364991943449662E+02
              0.195669994541539E+02
              0.362868682022518E+02
              0.895937059155588E+02
              0.544842321885822E+02
             -0.240193385198556E+01
              0.228750622845930E+02
              0.486924463982338E+02
              0.365198252243073E+02
             -0.528374649962464E+02
              0.940213587670945E+02
             -0.829798895552935E+02
             -0.198617277017088E+02
              0.585241969009290E+02
              0.682169052067016E+01
              0.788251463974245E+01
              0.342135331662028E+02
              0.300024523439710E+02
              0.355234714222439E+02
             -0.640210642476987E+02
              0.287716786808460E+01
             -0.298709790969467E+02
             -0.871709649975527E+01
             -0.145796820665771E+01
             -0.728267458287326E+01
             -0.418247279208975E+01
              0.863225784596753E+02
             -0.101347085032215E+02
             -0.277650395522245E+02
             -0.497431234093334E+01
              0.140406931025507E+02
             -0.566566761101318E+02
             -0.409609281888164E+02
             -0.383491720184387E+02
             -0.632957317012972E+02
             -0.170249762041486E+02
             -0.449199492123093E+02
              0.164233424439726E+02
             -0.238797774795327E+01
             -0.105068744608438E+02
             -0.937794156446384E+01
              0.810301914176046E+01
             -0.243436546999303E+02
              0.692357862872705E+02
             -0.811167137442648E+02
             -0.141730283680066E+02
             -0.174676014078405E+02
              0.182760529972861E+02
              0.215301827317005E+02
             -0.465692001790603E+02
             -0.202276413493199E+02
              0.442937454518836E+02
             -0.277190420760586E+02
              0.187682700514601E+02
              0.384534932539209E+02
             -0.322282309355296E+01
              0.114620961766435E+03
             -0.230424744898421E+02
             -0.342386946419099E+02
              0.579978404801358E+01
             -0.229439683402960E+02
              0.529783863968022E+02
             -0.339231814339601E+02
              0.106904591583611E+02
              0.642876918038358E+02
             -0.127101432698121E+02
              0.120767652151992E+03
              0.126453969811158E+03
             -0.652971260994186E+02
              0.593123924275981E+02
              0.167333988948764E+02
             -0.520271209218777E+02
              0.216800917438561E+02
              0.355868895044741E+02
              0.364681758764558E+02
              0.135571486969104E+01
              0.160378943115747E+02
              0.699378862282148E+02
             -0.247906118412594E+02
              0.181999341811826E+02
              0.742269466204176E+02
             -0.374163799452943E+02
             -0.130748075542239E+02
              0.511171291617639E+02
              0.298682529352303E+02
              0.783304752212647E+02
              0.224225940797156E+02
              0.631410714335550E+01
              0.281450566268640E+02
              0.385214366598246E+02
             -0.474328479635200E+02
              0.334854535130620E+01
              0.131047287687841E+02
              0.114177505934545E+02
              0.221636612361696E+02
             -0.577797670474072E+02
              0.367295370342339E+02
             -0.445700086406683E+02
             -0.348893582385747E+02
              0.178993331057093E+02
             -0.181927158480277E+02
              0.557474463459342E+02
             -0.256772676135225E+02
              0.268058425871869E+02
              0.369252883471271E+02
              0.832601340629310E+02
              0.577179737964375E+02
              0.464274285793929E+02
             -0.105693757762801E+02
             -0.394292013000978E+01
             -0.333752651222381E+02
              0.754240411325833E+02
              0.800635163608985E+02
              0.363598504649271E+02
             -0.193218103913663E+02
              0.513912978584521E+02
             -0.162938997274479E+02
              0.215686091099018E+02
              0.617483940892155E+02
              0.211439097958154E+01
             -0.104889206056881E+02
             -0.283790808699104E+02
             -0.514505465832836E+02
              0.949732897658548E+02
              0.442145630143867E+02
             -0.561781722760464E+02
             -0.971525762948093E+01
              0.251045725313735E+02
             -0.100273546801885E+02
              0.594945845151245E+02
              0.152569816384123E+02
              0.802485871208024E+02
              0.281044745962812E+02
             -0.264794097296742E+02
              0.249597033872481E+02
             -0.503329788945786E+01
             -0.324649431466796E+02
              0.133822438232974E+02
              0.206216264382240E+02
              0.937015480878563E+02
              0.800847520879748E+02
              0.553533454566045E+02
              0.733522992332071E+02
              0.805774588370426E+01
             -0.274961434106696E+02
              0.163666098048191E+02
             -0.369395965254895E+02
             -0.478898996268232E+02
             -0.566191317838632E+02
             -0.267910199331108E+02
             -0.110187449878891E+03
             -0.292988783775645E+02
             -0.841358965246967E+02
              0.211046484472493E+02
             -0.479198366633046E+02
              0.398896213829962E+02
             -0.945900715902307E+02
             -0.331404549554263E+02
              0.550256001020858E+02
              0.208517675279139E+02
             -0.834609914422381E+02
              0.633307451375538E+02
             -0.258112483787421E+02
              0.514868563122595E+02
             -0.243654212663180E+02
             -0.754980241817067E+02
              0.112523909382645E+02
             -0.614245973922253E+02
             -0.168543922118021E+02
             -0.150010722405864E+01
              0.420091590849165E+02
              0.127565906431193E+03
             -0.463640697392761E+02
             -0.363975516238825E+02
             -0.996027830389153E+00
             -0.131040568843266E+02
             -0.826047790384754E+02
             -0.599344196603867E+02
              0.519363352643442E+02
             -0.289949210363663E+02
              0.170027066062754E+02
             -0.491477604518390E+02
             -0.132585201896208E+02
             -0.438933689194090E+02
              0.567725742796596E+02
              0.151367612876658E+02
             -0.232688426837041E+02
             -0.127719935577115E+02
              0.673349921411402E+01
             -0.624255758491694E+01
              0.443378548348566E+02
             -0.253130776560670E+02
              0.284446290374194E+01
              0.341067976811395E+02
              0.171777911490045E+02
             -0.160966163302069E+02
              0.156949545042324E+03
              0.540830644968025E+02
              0.119224470526468E+01
              0.161545988018248E+02
             -0.617834128149753E+02
              0.316321515273590E+02
             -0.725083352290011E+02
             -0.253325896135265E+02
             -0.525348121986783E+02
             -0.220869365803511E+02
              0.571790769873068E+02
             -0.539712980153816E+02
              0.161971600825792E+02
             -0.411197986244065E+01
              0.387174993857479E+01
             -0.435310732988222E+02
             -0.480085395499609E+02
             -0.403440685144778E+01
             -0.426563610171632E+02
             -0.218056367526842E+02
             -0.440265091411729E+02
             -0.119583165908556E+02
             -0.360551698376112E+02
             -0.518822260079417E+02
              0.213930043327988E+02
             -0.209835524356360E+02
              0.188825642688579E+02
              0.980659793095482E+01
             -0.741422420473368E+02
             -0.550458932124993E+02
             -0.400368541941716E+02
              0.355864995202096E+02
              0.269169720734425E+01
             -0.629502442830445E+02
              0.588475688974229E+02
             -0.403092691866685E+02
              0.547381598211790E+02
             -0.291175898125121E+02
             -0.448201076318614E+02
              0.299295797617450E+02
             -0.660762280579975E+02
             -0.381774795412286E+02
              0.675620079612889E+02
              0.205018487069001E+02
             -0.362347697926718E+02
              0.492290229180365E+02
             -0.174959563623790E+02
             -0.324831165338314E+02
             -0.303287252900952E+02
             -0.502926311562560E+02
              0.250636595486230E+02
             -0.937186481382676E+02
             -0.843969042148543E+02
             -0.738943578682483E+01
             -0.308020605149349E+02
             -0.578366689783600E+02
              0.725033410431939E+02
              0.132134896919497E+03
             -0.362255105413201E+02
             -0.255828416849511E+01
             -0.640138084261572E+02
              0.653332553756088E+02
              0.171806930351445E+02
             -0.182939009177829E+02
             -0.411699155254473E+02
              0.149281057740793E+02
             -0.588854008999225E+02
             -0.198727578462370E+02
             -0.908658518843839E+02
              0.338684245799802E+02
              0.169526392186371E+02
              0.183504158796018E+01
             -0.710468113730087E+01
             -0.331683626132792E+02
             -0.764426233553371E+01
              0.126157400812396E+03
             -0.199542074407254E+02
             -0.439948493368048E+02
             -0.686975597324085E+02
              0.110041717386530E+02
             -0.343942647239874E+02
              0.596275773535322E+01
              0.262997790599538E+02
              0.102436186081376E+02
              0.279516491200124E+02
              0.120692586806703E+02
              0.632198536013844E+02
              0.317957251292174E+02
             -0.328241371475771E+02
              0.357931450188968E+02
              0.381040048495924E+02
              0.121351594051056E+02
              0.489165105133977E+02
             -0.226070604464029E+02
              0.768908123877467E+02
              0.173271362244673E+02
             -0.273636938921716E+02
             -0.728541247667231E+01
             -0.187323211979208E+02
              0.262663004787773E+02
             -0.235466742884596E+02
             -0.167119975485065E+00
             -0.856770802891958E+01
              0.813204642098224E+02
              0.502738441118206E+02
             -0.689975053498134E+02
             -0.480085651338769E+01
             -0.557745290454964E+02
             -0.159953895427298E+02
             -0.269479142400480E+02
              0.381291748992373E+01
              0.591184534991976E+00
             -0.259005385126785E+02
              0.820465436067508E+01
             -0.606359214859695E+01
             -0.129020912607411E+02
              0.862743962140148E+02
              0.182562446160386E+02
             -0.810827833566401E+02
             -0.460403657476767E+02
              0.949265610507716E+02
              0.279074565823348E+02
             -0.107115049607924E+02
              0.105077423131220E+03
             -0.195389570128165E+02
             -0.123390496156890E+02
             -0.544186899924364E+01
              0.108296775964697E+02
              0.273924268353871E+02
              0.781719643161782E+01
              0.306556688352636E+02
             -0.188373667180752E+02
             -0.305571695078030E+02
             -0.419920676613335E+02
             -0.479259671630184E+02
              0.466049788260763E+02
              0.127413100097756E+02
              0.389489068605982E+02
              0.134306257885456E+02
              0.859763230253035E+02
              0.157197867823749E+02
             -0.849578265762169E+02
             -0.336064849632005E+02
              0.133996565819148E+02
             -0.304023335489916E+02
              0.629444713571551E+02
             -0.894544108826494E+01
              0.149435280181310E+02
              0.499586653720031E+02
             -0.710845017500637E+02
              0.150414311041376E+03
              0.209658804301706E+02
              0.272249624709317E+02
              0.349397858266225E+02
              0.104234785110192E+02
             -0.155505658451352E+01
              0.359907211175120E+02
             -0.359063268936506E+02
              0.777257005870052E+02
              0.688387481567095E+02
             -0.408037594307709E+02
              0.150595355013434E+02
              0.673487651290381E+02
             -0.224804434220809E+02
              0.155125083325534E+02
              0.436848882863128E+02
              0.424113745762798E+02
             -0.788540499599936E+02
             -0.153267786644121E+02
             -0.357574421560217E+02
             -0.153111859797087E+01
             -0.770331948781076E+01
             -0.540420004589578E+01
             -0.181314515335849E+02
             -0.295517379641519E+02
              0.641402520181684E+01
              0.112142208678476E+02
              0.538241262394722E+02
             -0.392450364775351E+02
              0.376561371840298E+02
              0.440874771696709E+02
             -0.187083386283272E+02
              0.876069025116799E+02
             -0.700923663611090E+02
             -0.103669152302928E+03
             -0.661693504716921E+01
             -0.274595416229374E+01
              0.385610699679194E+01
              0.793203088959859E+02
             -0.107242735865991E+02
              0.418620157660683E+02
              0.446318980960704E+02
              0.386921543289103E+02
             -0.998002721727335E+01
              0.630221718659770E+02
             -0.134422428370395E+02
             -0.309178042845624E+02
             -0.481571855131354E+02
              0.590736354223918E+01
              0.371323654373536E+02
             -0.604134437199443E+01
              0.394528338557741E+02
             -0.174231034269951E+01
              0.657864178164788E+02
              0.188086097603063E+02
              0.100135673376062E+02
             -0.121869981283988E+02
              0.333668853812408E+02
              0.364239291273765E+02
              0.233384348392067E+02
             -0.511577362581562E+00
             -0.553039206540745E+02
              0.262138622584135E+02
              0.176105046176668E+02
              0.404223244539229E+02
              0.273718125302321E+02
              0.373936804745049E+02
             -0.604715849285182E+01
              0.252713786960092E+02
             -0.299723674829734E+02
             -0.200115856412822E+01
             -0.571722898884099E+02
             -0.309177146792010E+02
              0.380677033921957E+02
             -0.939862044998043E+02
              0.295695312709873E+02
              0.184823224928214E+02
              0.844265473727584E+02
             -0.301270147096123E+02
              0.331052880561425E+02
             -0.138145493781343E+02
             -0.466198706201777E+02
             -0.764541886109259E+02
             -0.532798132763142E+01
             -0.864408084638067E+02
              0.200194195137411E+02
             -0.248544584328511E+02
              0.307232896089198E+02
              0.237963768924743E+02
             -0.242629876821959E+02
             -0.267012388523619E+02
              0.392755627649343E+02
             -0.591164764863720E+02
             -0.117487658012662E+02
             -0.196994379298665E+02
              0.213984220832849E+02
             -0.889579861593495E+01
              0.363850526172470E+01
             -0.201559319473449E+02
              0.561304322427036E+02
             -0.442277454471011E+02
              0.794809607956961E+01
              0.588483341820843E+02
             -0.325074747551885E+02
              0.362216322565041E+01
             -0.881046120349038E+01
             -0.672673064084942E+02
             -0.484426992191355E+02
             -0.862966853349734E+01
              0.242140941379139E+02
              0.303807868693281E+02
              0.863809313602178E+01
             -0.417440240308667E+01
              0.152902586848071E+02
             -0.441822712170343E+02
              0.329846666200297E+01
             -0.533573629756892E+02
             -0.325907453792657E+02
              0.477014049258953E+02
             -0.296493931778863E+02
              0.625747567967997E+02
             -0.215978035827105E+02
              0.355234157769567E+02
              0.243077144911575E+02
             -0.646951338278292E+02
             -0.281662418210149E+02
              0.934737340048827E+01
             -0.373701881807260E+02
             -0.341403744760465E+02
             -0.833884306775410E+02
             -0.542020978935542E+02
             -0.512946912880204E+02
             -0.417575131958694E+02
             -0.970485628740676E+00
              0.100418013788373E+02
              0.108621650362528E+01
              0.154403155126236E+02
             -0.552078971508771E+02
              0.142718017285958E+02
              0.258158572264176E+02
             -0.669921018194128E+02
             -0.704753372908008E+02
             -0.433187215998614E+02
             -0.173504858829550E+02
              0.179390183172928E+02
              0.454577525678519E+01
             -0.427743503877565E+02
              0.367675040263903E+02
             -0.217067771157775E+02
              0.519797425859997E+02
             -0.891237197662902E+02
              0.600653768515927E+02
             -0.216352132061530E+01
             -0.370628545206817E+02
             -0.217436542575970E+02
              0.470834073395704E+01
              0.376670977878019E+02
             -0.759832336549123E+02
             -0.121261199180518E+02
             -0.217652593296239E+02
              0.513221572695467E+02
              0.868614707364319E+02
             -0.970000904668459E+02
              0.948235571484063E+02
              0.469434805819857E+02
             -0.728965329726246E+02
             -0.368134212413730E+02
              0.755618245126486E+02
              0.634607615062149E+02
             -0.182479666500575E+02
[...]
              0.284443377517788E+02
              0.142399924237185E+03
              0.243902591842563E+02
              0.123398409058282E+02
             -0.466398549220083E+02
             -0.640459031946290E+02
             -0.189814280965013E+02
              0.331264444597181E+02
             -0.431422980850618E+01
              0.191386938343578E+02
              0.337741964868057E+02
             -0.588912081483836E+02
              0.223823871630580E+02
              0.583604382360913E+02
              0.555308374518063E+02
             -0.421535721905190E+01
             -0.135387050910958E+01
             -0.997335531258673E+01
             -0.484527698922406E+02
             -0.677969707471784E+02
              0.789053566964293E+02
             -0.526215219015515E+01
             -0.590455915648648E+02
              0.172482104609654E+01
             -0.206537710116955E+02
              0.942445407286332E+02
             -0.217526445264191E+02
             -0.355096174120525E+02
              0.336857569163163E+02
             -0.146535649983007E+02
              0.391671053883061E+02
             -0.236005189893638E+01
              0.101500446617439E+03
              0.491807689049491E+02
             -0.508358345925646E+01
             -0.323641236131008E+02
              0.233626340556168E+02
             -0.531019009106309E+02
             -0.128160928144632E+02
              0.588515498610500E+02
             -0.288956686424570E+02
             -0.440235740156310E+02
             -0.224073404120464E+02
              0.520764703722889E+02
              0.125236203423896E+02
             -0.852439911682244E+02
              0.305528917808913E+02
              0.152801349571263E+02
              0.582842856954647E+01
             -0.515602048257039E+02
             -0.374290314573761E+01
              0.324586782540819E+02
              0.514977459441297E+02
              0.635559754393339E+02
              0.230467396918639E+02
              0.766849382474163E+00
             -0.500387636614027E+02
             -0.512005033035024E+02
             -0.750833931696128E+02
             -0.622593999599860E+01
              0.310586277684851E+02
             -0.381556009172112E+01
              0.549064064579169E+02
             -0.319494008980455E+02
              0.166963877988504E+02
             -0.103616159631469E+02
             -0.290981114332305E+02
              0.588348996919862E+02
              0.794604657587576E+01
              0.607145323355852E+02
              0.512695549752050E+01
              0.265992791199256E+02
             -0.193289440454236E+02
              0.588798823856675E+02
             -0.112340128514778E+02
             -0.111076295528543E+00
             -0.793524577511143E+02
             -0.128711333184891E+02
              0.722167252907136E+02
              0.676011343392917E+02
              0.252961049694852E+02
             -0.130846588337208E+02
              0.346184289299779E+01
             -0.174386003687685E+02
             -0.211183784641418E+01
              0.911716271767236E+02
              0.125478390392482E+01
             -0.191673815605741E+02
             -0.111218132103235E+03
             -0.554642972813878E+02
             -0.376739643229934E+02
             -0.661355871775894E+02
             -0.558286422904952E+02
             -0.685744848933800E+02
             -0.449279779043445E+02
             -0.412213835070739E+02
             -0.453857539812108E+02
              0.485591128721581E+02
             -0.294938614867515E+02
             -0.999164356333135E+02
              0.420919062631319E+02
             -0.261568152285010E+02
             -0.794215881739829E+02
              0.948148675274997E+02
             -0.220843446809160E+02
              0.228698080089966E+02
              0.456834530398496E+02
             -0.129164763930123E+01
              0.255458179604732E+02
              0.469763627591036E+01
              0.402510146872249E+00
             -0.151418507866013E+02
             -0.719235385959693E+02
              0.133757541119220E+02
             -0.129932498960871E+03
              0.627291499885372E+02
             -0.442535175032787E+02
             -0.163390341262945E+02
             -0.158678900991397E+02
              0.723655241713543E+01
             -0.228424983688040E+02
              0.298231616026850E+02
             -0.522866527154303E+02
              0.368943068575252E+02
              0.373010007054917E+02
              0.168797544132381E+02
              0.101209454644576E+02
              0.198753961372366E+02
              0.626179670955162E+01
              0.311573060111537E+02
             -0.804604100265641E+01
             -0.595424113371344E+02
              0.762915823426317E+01
             -0.154029122850436E+02
             -0.196730882572444E+01
              0.508709452083172E+02
             -0.830454265747699E+02
             -0.145133351798523E+01
              0.580675563526427E+00
              0.999091192283583E+01
              0.319805137887031E+02
             -0.124226890827497E+02
              0.839088782180388E+02
              0.489401423628358E+02
             -0.183831909262703E+02
             -0.958390735191284E+01
              0.108471961544822E+01
              0.772807980245340E+02
             -0.588214502817607E+02
             -0.106206642059201E+03
              0.310591100512754E+02
             -0.163700171936912E+02
             -0.140368900044240E+02
              0.131269915160075E+02
              0.771892561784620E+02
              0.466217544462564E+02
             -0.154197774580584E+02
             -0.505257113291377E+02
             -0.553205960555330E+01
              0.307657115929828E+02
             -0.112332522245036E+02
             -0.758889360070484E+02
             -0.275133966670802E+01
             -0.894064973095911E+02
             -0.477557433754636E+02
              0.772274756015868E+02
             -0.485885309572922E+02
             -0.639699118703692E+02
             -0.516829929262045E+02
             -0.351382386117675E+02
              0.342693091036009E+02
              0.825268997906534E+02
             -0.362087290700123E+01
              0.277696459381787E+02
             -0.184631534162648E+02
             -0.696854356941680E+02
              0.467412824247068E+02
             -0.447224642479589E+02
              0.322862546206691E+02
              0.377569271408750E+02
             -0.661729685739158E+01
              0.392146573992448E+02
              0.440075949657710E+02
              0.101173249129729E+03
             -0.156504644664410E+02
             -0.458325152735530E+02
             -0.615508176554106E+02
             -0.124493041089342E+02
             -0.234614543956283E+02
              0.103448790921241E+03
             -0.451241573283831E+02
              0.105419808751483E+02
              0.972133167703208E+01
             -0.265610932744596E+02
             -0.802726444875093E+02
             -0.703158091275503E+01
              0.984187509790572E+02
              0.944924788912881E+01
              0.811391988673597E+01
             -0.529390894861262E+02
             -0.607639557811351E+02
             -0.568437239429933E+01
              0.502297004290767E+02
             -0.223095442427168E+02
              0.108410119695651E+03
             -0.437875212623663E+02
              0.147065713337389E+02
             -0.224714796588391E+02
             -0.721227387775788E+02
              0.170186752440742E+01
             -0.503914693115980E+02
             -0.763664902908266E+02
              0.621166088114558E+01
              0.235383312219270E+01
              0.516303772287522E+02
              0.188299639332510E+02
             -0.325244822599906E+02
              0.231061039718707E+02
             -0.814831690739085E+02
             -0.523729631221747E+02
              0.905761200986371E+02
              0.142471598257653E+02
             -0.188257361123116E+02
             -0.353567973990881E+02
             -0.272294297149119E+01
             -0.590105401416201E+01
              0.834538612374579E+02
              0.419737301140814E+02
             -0.166340152190825E+02
             -0.121850290314367E+02
             -0.429255964686782E+02
             -0.201349177417225E+02
             -0.672625407431511E+02
              0.462133412432538E+02
              0.550888948681433E+01
              0.145297024745594E+02
              0.156813374079424E+02
             -0.611105453265175E+00
             -0.169333002844522E+02
             -0.305969477472595E+01
             -0.100897766764461E+03
             -0.230714505757425E+02
             -0.770411151227290E+01
             -0.951367074775942E+01
              0.548373994029745E+02
              0.626724849872427E+02
              0.165386070507267E+02
             -0.974604891198317E+02
              0.650072468147280E+02
             -0.215861924398477E+02
             -0.378614500082404E+02
             -0.867973650592762E+02
             -0.388216209378799E+02
              0.567268359653716E+02
              0.246006005781918E+02
              0.522437092859604E+01
              0.293725269890082E+02
             -0.567276771010804E+02
             -0.424302882224883E+02
              0.518012443715258E+02
              0.388810983557426E+02
              0.520911866994675E+02
             -0.118210067688335E+01
              0.691415821886068E+01
              0.571683708545755E+02
              0.967099650773311E+02
             -0.301015965911566E+02
              0.324832131256426E+02
             -0.119803599668563E+02
             -0.414094988987830E+02
             -0.316040639004613E+02
             -0.301707269995663E+02
             -0.131906807493341E+02
             -0.525328048396884E+02
             -0.218072710446634E+02
             -0.141752195769268E+03
              0.370487958677752E+02
              0.207654645256261E+02
             -0.395311224627117E+01
             -0.381791382612267E+02
             -0.205078302021716E+02
             -0.529144880775779E+02
              0.151828341820644E+02
              0.823539887072223E+02
             -0.252789628455422E+02
             -0.163847501838353E+02
              0.238933122728774E+02
             -0.491727468832543E+02
              0.884256893162221E+02
              0.155147902033668E+02
              0.226607440906897E+02
              0.492331444564429E+02
              0.316942684453232E+01
              0.544386677289251E+02
              0.143792708041453E+02
             -0.106781126324060E+02
              0.734900882832511E+01
              0.713029232544557E+00
              0.729947283435898E+02
              0.101756239522203E+02
              0.121470151045364E+02
             -0.130591182078274E+02
              0.132957909291509E+02
             -0.915112411943965E+02
             -0.327598823798249E+02
             -0.459270638193601E+02
              0.487372456179738E+02
             -0.292449051801875E+02
             -0.660998668181127E+02
              0.541135536979714E+02
             -0.122521333202055E+02
              0.441934365218958E+02
             -0.902645763463373E+02
              0.233142766954540E+02
              0.858385107710566E+01
              0.584612243253332E+01
             -0.835680419127158E+01
             -0.906987331953030E+01
              0.481672505710834E+02
              0.199841025378896E+01
             -0.477230011378110E+02
             -0.177045525217848E+02
              0.277503234199197E+02
             -0.118451495054611E+03
             -0.933674144890289E+02
              0.395689755067792E+01
              0.118199408984524E+02
             -0.415438052476652E+02
             -0.391219685870323E+01
              0.112545828280752E+03
              0.307771884538615E+02
             -0.573918416755511E+02
              0.928169198590888E+01
             -0.966895640407002E+01
              0.106423112241517E+02
             -0.339298841280242E+02
              0.196366040014614E+02
              0.285693291922964E+02
             -0.300594421209604E+01
              0.108652240416262E+03
             -0.140638768233279E+02
             -0.317368320769338E+02
              0.144066236076314E+02
              0.468306238338282E+02
             -0.357476654163843E+02
             -0.317871285626775E+01
              0.969099504020949E+02
             -0.464064732844622E+01
              0.623936649352012E+02
              0.136221177737181E+02
             -0.903848386656185E+01
             -0.306088775910994E+02
              0.568721426528414E+02
             -0.516649141142786E+02
             -0.222520992880544E+01
             -0.170708608930109E+02
             -0.407103090089043E+02
              0.185663112488896E+02
              0.240497397396395E+02
              0.116348839568602E+02
              0.698261102868514E+00
             -0.386103038897990E+02
              0.215789402449523E+02
             -0.674608299571631E+01
             -0.247298329747562E+02
             -0.211488687235011E+02
              0.203940571051173E+02
             -0.602256776080424E+01
             -0.350823073913427E+02
             -0.107114978666604E+03
              0.103193073547883E+02
              0.249694125356441E+02
             -0.389394700861807E+02
             -0.211928482252735E+02
              0.810746676202183E+02
              0.656324071500103E+01
              0.312567908855242E+02
              0.394460193220846E+01
              0.323453024122546E+02
              0.649530210625596E+01
             -0.374661421084826E+02
             -0.237361895002306E+01
              0.879437115736204E+01
              0.275097484191645E+02
              0.785192527794777E+02
              0.509371880490174E+02
              0.203611431586182E+00
              0.170115525789116E+02
              0.615859010515736E+02
              0.237042021302196E+02
             -0.755815788635588E+02
             -0.274926174151982E+02
              0.151775648516110E+02
              0.565288493302842E+01
              0.256033920135102E+02
             -0.549956845459137E+02
              0.901711157321280E+01
              0.387920955267857E+02
              0.499995968981116E+02
             -0.436672095132758E+02
             -0.690353312026815E+01
             -0.209642210091187E+01
             -0.134447346128025E+02
             -0.366540389085249E+02
             -0.215969166585892E+02
             -0.206545303466669E+01
              0.797579156282256E+01
              0.423190746568941E+02
             -0.309402069197796E+02
              0.829607874767187E+02
              0.328990458045774E+02
              0.221137407074501E+02
              0.334820337871046E+02
              0.324321948088314E+02
              0.347777650940332E+02
              0.539454159235464E+02
             -0.435916803940184E+02
              0.622382501910867E+02
             -0.112768288879197E+03
              0.308648724517057E+02
             -0.106980796543053E+03
              0.857988540647140E+02
              0.694048420984024E+02
             -0.110242330894414E+02
             -0.495265736566490E+02
             -0.431422478644267E+02
             -0.625903369935126E+02
             -0.631472024615206E+02
              0.554419537511184E+02
              0.407294424650763E+02
              0.237748854281702E+02
              0.374917924837022E+02
              0.404882131871813E+02
             -0.383754654841931E+02
             -0.198517487775872E+02
              0.589119074057985E+02
             -0.116800431382957E+02
              0.554082190716423E+02
              0.702629782429362E+02
             -0.557019605711935E+01
             -0.709464702984169E+02
             -0.844836598268557E+00
             -0.246619034051349E+01
             -0.886719166755120E+01
             -0.181261952030616E+01
             -0.655785104394296E+02
             -0.211111693591299E+02
              0.545061970764359E+01
              0.905877125776829E+01
              0.471037118351835E+02
             -0.399388633175318E+02
              0.659797262262413E+02
             -0.426995812305847E+02
              0.211603627576610E+02
              0.352087752816217E+02
 
 BEEF-vdW xc energy contributions
           1 :   -785.872076016199     
           2 :    721.514597235658     
           3 :   -610.402094508216     
           4 :    480.005433492983     
           5 :   -357.874904942798     
           6 :    263.661095626167     
           7 :   -204.840965005684     
           8 :    176.808292335423     
           9 :   -166.899401799353     
          10 :    160.506680439920     
          11 :   -146.820221972413     
          12 :    122.039115073457     
          13 :   -89.2177700414964     
          14 :    55.3695873916600     
          15 :   -27.5027509445886     
          16 :    9.37123346423584     
          17 :  -0.190246130979745     
          18 :   -4.42305930265422     
          19 :    9.97478890282912     
          20 :   -20.3857881410839     
          21 :    36.2939397275875     
          22 :   -55.0450672643173     
          23 :    72.2077960118168     
          24 :   -83.7872916870064     
          25 :    88.0495287255654     
          26 :   -86.1512821840371     
          27 :    81.3794574297592     
          28 :   -77.4609307379487     
          29 :    76.7932881484912     
          30 :   -79.4338269438003     
          31 :   -86.2076821904576     
          32 :   -65.9689415873773     

     Writing output data file ./pwscf.save/
 
     init_run     :    293.88s CPU    298.73s WALL (       1 calls)
     electrons    :  12267.36s CPU  12412.09s WALL (       1 calls)
     forces       :     82.59s CPU     83.93s WALL (       1 calls)

     Called by init_run:
     wfcinit      :    248.65s CPU    252.36s WALL (       1 calls)
     potinit      :     41.56s CPU     41.92s WALL (       1 calls)
     hinit0       :      1.70s CPU      1.74s WALL (       1 calls)

     Called by electrons:
     c_bands      :   9994.03s CPU  10103.92s WALL (      21 calls)
     sum_band     :   1469.26s CPU   1484.35s WALL (      21 calls)
     v_of_rho     :    108.40s CPU    113.22s WALL (      22 calls)
     newd         :     34.71s CPU     49.82s WALL (      22 calls)
     PAW_pot      :    127.80s CPU    127.80s WALL (      22 calls)
     mix_rho      :    575.30s CPU    576.10s WALL (      21 calls)
     vdW_kernel   :     31.73s CPU     31.73s WALL (       1 calls)

     Called by c_bands:
     init_us_2    :     84.37s CPU     84.74s WALL (     572 calls)
     cegterg      :   9143.60s CPU   9253.14s WALL (     273 calls)

     Called by *egterg:
     cdiaghg      :     78.54s CPU     78.56s WALL (    1598 calls)
     h_psi        :   6032.40s CPU   6070.55s WALL (    1611 calls)
     s_psi        :    931.43s CPU    931.44s WALL (    1611 calls)
     g_psi        :     17.00s CPU     17.01s WALL (    1325 calls)

     Called by h_psi:
     h_psi:calbec :    860.31s CPU    860.51s WALL (    1611 calls)
     vloc_psi     :   4209.90s CPU   4211.24s WALL (    1611 calls)
     add_vuspsi   :    933.54s CPU    933.57s WALL (    1611 calls)

     General routines
     calbec       :   1253.60s CPU   1253.82s WALL (    1936 calls)
     fft          :     44.17s CPU     44.19s WALL (    3341 calls)
     ffts         :    159.44s CPU    159.49s WALL (   12901 calls)
     fftw         :   4158.22s CPU   4158.87s WALL (  351041 calls)
 
     Parallel routines
 
     PWSCF        :      3h32m CPU      3h35m WALL

 
   This run was terminated on:  20:21:22  20May2022            

=------------------------------------------------------------------------------=
   JOB DONE.
=------------------------------------------------------------------------------=
