
     Program PWSCF v.6.7MaX starts on 20May2022 at 15:27: 6 

     This program is part of the open-source Quantum ESPRESSO suite
     for quantum simulation of materials; please cite
         "P. Giannozzi et al., J. Phys.:Condens. Matter 21 395502 (2009);
         "P. Giannozzi et al., J. Phys.:Condens. Matter 29 465901 (2017);
          URL http://www.quantum-espresso.org", 
     in publications or presentations arising from this work. More details at
     http://www.quantum-espresso.org/quote

     Parallel version (MPI), running on     1 processors

     MPI processes distributed on     1 nodes
     Reading input from ch3cch3-ensemble.in
Warning: card &CELL ignored
Warning: card / ignored

     Current dimensions of program PWSCF are:
     Max number of different atomic species (ntypx) = 10
     Max number of k-points (npk) =  40000
     Max angular momentum in pseudopotentials (lmaxx) =  3
     file Pt.pbe-n-kjpaw_psl.1.0.0.UPF: wavefunction(s)  6S 5D renormalized
     file C.pbe-n-kjpaw_psl.1.0.0.UPF: wavefunction(s)  2S 2P renormalized
     file H.pbe-kjpaw_psl.1.0.0.UPF: wavefunction(s)  1S renormalized

     **************************************************************************
     Initializing libbeef V0.1.2 with the BEEF-vdW functional.
     Citation: Wellendorff et al., PRB 85, 235149 (2012).
     **************************************************************************


     IMPORTANT: XC functional enforced from input :
     Exchange-correlation= BEEF-VDW
                           (   1   4  43  14   2   0   0)
     Any further DFT definition will be discarded
     Please, verify this is what you really want


     Subspace diagonalization in iterative solution of the eigenvalue problem:
     a serial algorithm will be used

 
     G-vector sticks info
     --------------------
     sticks:   dense  smooth     PW     G-vecs:    dense   smooth      PW
     Sum        4267    4267   1159               722013   722013  101743
 


     bravais-lattice index     =            0
     lattice parameter (alat)  =      16.0349  a.u.
     unit-cell volume          =   11494.2364 (a.u.)^3
     number of atoms/cell      =           45
     number of atomic types    =            3
     number of electrons       =       378.00
     number of Kohn-Sham states=          227
     kinetic-energy cutoff     =      60.0000  Ry
     charge density cutoff     =     240.0000  Ry
     scf convergence threshold =      1.0E-06
     mixing beta               =       0.7000
     number of iterations used =            8  local-TF  mixing
     Exchange-correlation= BEEF-VDW
                           (   1   4  43  14   2   0   0)

     celldm(1)=  16.034858  celldm(2)=   0.000000  celldm(3)=   0.000000
     celldm(4)=   0.000000  celldm(5)=   0.000000  celldm(6)=   0.000000

     crystal axes: (cart. coord. in units of alat)
               a(1) = (   1.000000   0.000000   0.000000 )  
               a(2) = (   0.500000   0.866025   0.000000 )  
               a(3) = (   0.000000   0.000000   3.219246 )  

     reciprocal axes: (cart. coord. in units 2 pi/alat)
               b(1) = (  1.000000 -0.577350  0.000000 )  
               b(2) = (  0.000000  1.154701  0.000000 )  
               b(3) = (  0.000000  0.000000  0.310632 )  


     PseudoPot. # 1 for Pt read from file:
     /users/bkreitz1/quantum-espresso/potentials/Pt.pbe-n-kjpaw_psl.1.0.0.UPF
     MD5 check sum: 04dc8a03c51ece93fc7b5889c2958091
     Pseudo is Projector augmented-wave + core cor, Zval = 10.0
     Generated using 'atomic' code by A. Dal Corso  v.6.7MaX
     Shape of augmentation charge: PSQ
     Using radial grid of 1277 points,  6 beta functions with: 
                l(1) =   0
                l(2) =   0
                l(3) =   1
                l(4) =   1
                l(5) =   2
                l(6) =   2
     Q(r) pseudized with 0 coefficients 


     PseudoPot. # 2 for C  read from file:
     /users/bkreitz1/quantum-espresso/potentials/C.pbe-n-kjpaw_psl.1.0.0.UPF
     MD5 check sum: a169b0ebad56f5ec0d79c4633f80bf22
     Pseudo is Projector augmented-wave + core cor, Zval =  4.0
     Generated using 'atomic' code by A. Dal Corso  v.6.7MaX
     Shape of augmentation charge: PSQ
     Using radial grid of 1073 points,  4 beta functions with: 
                l(1) =   0
                l(2) =   0
                l(3) =   1
                l(4) =   1
     Q(r) pseudized with 0 coefficients 


     PseudoPot. # 3 for H  read from file:
     /users/bkreitz1/quantum-espresso/potentials/H.pbe-kjpaw_psl.1.0.0.UPF
     MD5 check sum: ae98473e6dc62675f0d0baffdab24f65
     Pseudo is Projector augmented-wave, Zval =  1.0
     Generated using 'atomic' code by A. Dal Corso  v.6.7MaX
     Shape of augmentation charge: PSQ
     Using radial grid of  929 points,  2 beta functions with: 
                l(1) =   0
                l(2) =   0
     Q(r) pseudized with 0 coefficients 


     atomic species   valence    mass     pseudopotential
        Pt            10.00   195.08400     Pt( 1.00)
        C              4.00    12.01100     C ( 1.00)
        H              1.00     1.00800     H ( 1.00)

     No symmetry found



   Cartesian axes

     site n.     atom                  positions (alat units)
         1           Pt  tau(   1) = (   0.0000000   0.0000000   1.0017346  )
         2           Pt  tau(   2) = (   0.3333333   0.0000000   1.0017346  )
         3           Pt  tau(   3) = (   0.6666667   0.0000000   1.0017346  )
         4           Pt  tau(   4) = (   0.1666667   0.2886751   1.0017346  )
         5           Pt  tau(   5) = (   0.5000000   0.2886751   1.0017346  )
         6           Pt  tau(   6) = (   0.8333333   0.2886751   1.0017346  )
         7           Pt  tau(   7) = (   0.3333333   0.5773503   1.0017346  )
         8           Pt  tau(   8) = (   0.6666667   0.5773503   1.0017346  )
         9           Pt  tau(   9) = (   1.0000000   0.5773503   1.0017346  )
        10           Pt  tau(  10) = (   0.1666667   0.0962250   1.2739001  )
        11           Pt  tau(  11) = (   0.5000000   0.0962250   1.2739001  )
        12           Pt  tau(  12) = (   0.8333333   0.0962250   1.2739001  )
        13           Pt  tau(  13) = (   0.3333333   0.3849002   1.2739001  )
        14           Pt  tau(  14) = (   0.6666667   0.3849002   1.2739001  )
        15           Pt  tau(  15) = (   1.0000000   0.3849002   1.2739001  )
        16           Pt  tau(  16) = (   0.5000000   0.6735753   1.2739001  )
        17           Pt  tau(  17) = (   0.8333333   0.6735753   1.2739001  )
        18           Pt  tau(  18) = (   1.1666667   0.6735753   1.2739001  )
        19           Pt  tau(  19) = (  -0.0028392   0.1948889   1.5496632  )
        20           Pt  tau(  20) = (   0.3360015   0.1949926   1.5495989  )
        21           Pt  tau(  21) = (   0.6665296   0.1934348   1.5467700  )
        22           Pt  tau(  22) = (   0.1666301   0.4799179   1.5432917  )
        23           Pt  tau(  23) = (   0.4996504   0.4782513   1.5444227  )
        24           Pt  tau(  24) = (   0.8335174   0.4780289   1.5444349  )
        25           Pt  tau(  25) = (   0.3346372   0.7684669   1.5406161  )
        26           Pt  tau(  26) = (   0.6666000   0.7725573   1.5389661  )
        27           Pt  tau(  27) = (   0.9985527   0.7684055   1.5405621  )
        28           Pt  tau(  28) = (  -0.0005495   0.0008813   1.8173602  )
        29           Pt  tau(  29) = (   0.3333393   0.0009797   1.8171423  )
        30           Pt  tau(  30) = (   0.6663191  -0.0093153   1.8078783  )
        31           Pt  tau(  31) = (   0.1662012   0.2876530   1.8216564  )
        32           Pt  tau(  32) = (   0.5048659   0.2865532   1.8458147  )
        33           Pt  tau(  33) = (   0.8268860   0.2858361   1.8462521  )
        34           Pt  tau(  34) = (   0.3334165   0.5738634   1.8170125  )
        35           Pt  tau(  35) = (   0.6664880   0.5847416   1.8064962  )
        36           Pt  tau(  36) = (   0.9992544   0.5735077   1.8167677  )
        37           C   tau(  37) = (   0.6648892   0.2900563   2.0336687  )
        38           C   tau(  38) = (   0.6641004   0.1456556   2.1398043  )
        39           C   tau(  39) = (   0.6667186   0.4365499   2.1369020  )
        40           H   tau(  40) = (   0.6592090   0.0325727   2.0776833  )
        41           H   tau(  41) = (   0.7708631   0.1453384   2.2127206  )
        42           H   tau(  42) = (   0.5618944   0.1510978   2.2188230  )
        43           H   tau(  43) = (   0.6684898   0.5486062   2.0724933  )
        44           H   tau(  44) = (   0.5619274   0.4370725   2.2125944  )
        45           H   tau(  45) = (   0.7712236   0.4342576   2.2141820  )

     number of k points=    13  Marzari-Vanderbilt smearing, width (Ry)=  0.0200
                       cart. coord. in units 2pi/alat
        k(    1) = (   0.0000000   0.0000000   0.0000000), wk =   0.0800000
        k(    2) = (   0.0000000   0.2309401   0.0000000), wk =   0.1600000
        k(    3) = (   0.0000000   0.4618802   0.0000000), wk =   0.1600000
        k(    4) = (   0.2000000  -0.1154701   0.0000000), wk =   0.1600000
        k(    5) = (   0.2000000   0.1154701   0.0000000), wk =   0.1600000
        k(    6) = (   0.2000000   0.3464102   0.0000000), wk =   0.1600000
        k(    7) = (   0.2000000  -0.5773503   0.0000000), wk =   0.1600000
        k(    8) = (   0.2000000  -0.3464102   0.0000000), wk =   0.1600000
        k(    9) = (   0.4000000  -0.2309401   0.0000000), wk =   0.1600000
        k(   10) = (   0.4000000  -0.0000000   0.0000000), wk =   0.1600000
        k(   11) = (   0.4000000   0.2309401   0.0000000), wk =   0.1600000
        k(   12) = (   0.4000000  -0.6928203   0.0000000), wk =   0.1600000
        k(   13) = (   0.4000000  -0.4618802   0.0000000), wk =   0.1600000

     Dense  grid:   722013 G-vectors     FFT dimensions: (  80,  80, 256)

     Estimated max dynamical RAM per process >       8.79 GB

     Check: negative core charge=   -0.000002

     Initial potential from superposition of free atoms

     starting charge  377.99371, renormalised to  378.00000

     negative rho (up, down):  1.119E-02 0.000E+00


     %%%%%%%%%%%%%%%%%%%%%%%%%%%%%%%%%%%%%%%%%%%%%%%%%%%%%%%%%%%%%%%%%%%%%%%%
     %                                                                      %
     % You are using vdW-DF, which was implemented by the Thonhauser group. %
     % Please cite the following two papers that made this development      %
     % possible and the two reviews that describe the various versions:     %
     %                                                                      %
     %   T. Thonhauser et al., PRL 115, 136402 (2015).                      %
     %   T. Thonhauser et al., PRB 76, 125112 (2007).                       %
     %   K. Berland et al., Rep. Prog. Phys. 78, 066501 (2015).             %
     %   D.C. Langreth et al., J. Phys.: Condens. Matter 21, 084203 (2009). %
     %                                                                      %
     %                                                                      %
     % If you are calculating the stress with vdW-DF, please also cite:     %
     %                                                                      %
     %   R. Sabatini et al., J. Phys.: Condens. Matter 24, 424209 (2012).   %
     %                                                                      %
     %%%%%%%%%%%%%%%%%%%%%%%%%%%%%%%%%%%%%%%%%%%%%%%%%%%%%%%%%%%%%%%%%%%%%%%%


     Starting wfcs are  342 randomized atomic wfcs
     Checking if some PAW data can be deallocated... 

     total cpu time spent up to now is      322.8 secs

     Self-consistent Calculation

     iteration #  1     ecut=    60.00 Ry     beta= 0.70
     Davidson diagonalization with overlap
     ethr =  1.00E-02,  avg # of iterations =  2.7

     Threshold (ethr) on eigenvalues was too large:
     Diagonalizing with lowered threshold

     Davidson diagonalization with overlap
     ethr =  8.45E-04,  avg # of iterations =  2.8

     negative rho (up, down):  1.078E-02 0.000E+00

     total cpu time spent up to now is     1538.6 secs

     total energy              =  -27818.37398341 Ry
     estimated scf accuracy    <       3.46819138 Ry

     iteration #  2     ecut=    60.00 Ry     beta= 0.70
     Davidson diagonalization with overlap
     ethr =  9.18E-04,  avg # of iterations =  2.8

     negative rho (up, down):  8.687E-03 0.000E+00

     total cpu time spent up to now is     2104.5 secs

     total energy              =  -27818.49270972 Ry
     estimated scf accuracy    <       1.38101057 Ry

     iteration #  3     ecut=    60.00 Ry     beta= 0.70
     Davidson diagonalization with overlap
     ethr =  3.65E-04,  avg # of iterations =  4.9

     negative rho (up, down):  5.496E-03 0.000E+00

     total cpu time spent up to now is     2698.8 secs

     total energy              =  -27818.52901704 Ry
     estimated scf accuracy    <       0.57214792 Ry

     iteration #  4     ecut=    60.00 Ry     beta= 0.70
     Davidson diagonalization with overlap
     ethr =  1.51E-04,  avg # of iterations =  9.0

     negative rho (up, down):  4.148E-03 0.000E+00

     total cpu time spent up to now is     3380.3 secs

     total energy              =  -27818.59109366 Ry
     estimated scf accuracy    <       0.30743594 Ry

     iteration #  5     ecut=    60.00 Ry     beta= 0.70
     Davidson diagonalization with overlap
     ethr =  8.13E-05,  avg # of iterations =  4.5

     negative rho (up, down):  2.668E-03 0.000E+00

     total cpu time spent up to now is     3966.8 secs

     total energy              =  -27818.59933880 Ry
     estimated scf accuracy    <       0.04989957 Ry

     iteration #  6     ecut=    60.00 Ry     beta= 0.70
     Davidson diagonalization with overlap
     c_bands:  1 eigenvalues not converged
     c_bands:  2 eigenvalues not converged
     c_bands:  2 eigenvalues not converged
     c_bands:  2 eigenvalues not converged
     c_bands:  2 eigenvalues not converged
     ethr =  1.32E-05,  avg # of iterations = 14.8

     negative rho (up, down):  2.258E-03 0.000E+00

     total cpu time spent up to now is     4917.6 secs

     total energy              =  -27818.61252456 Ry
     estimated scf accuracy    <       0.02124380 Ry

     iteration #  7     ecut=    60.00 Ry     beta= 0.70
     Davidson diagonalization with overlap
     ethr =  5.62E-06,  avg # of iterations =  7.4

     negative rho (up, down):  2.153E-03 0.000E+00

     total cpu time spent up to now is     5559.4 secs

     total energy              =  -27818.61391780 Ry
     estimated scf accuracy    <       0.01373509 Ry

     iteration #  8     ecut=    60.00 Ry     beta= 0.70
     Davidson diagonalization with overlap
     c_bands:  2 eigenvalues not converged
     ethr =  3.63E-06,  avg # of iterations = 11.2

     negative rho (up, down):  2.308E-03 0.000E+00

     total cpu time spent up to now is     6217.3 secs

     total energy              =  -27818.61452937 Ry
     estimated scf accuracy    <       0.00644757 Ry

     iteration #  9     ecut=    60.00 Ry     beta= 0.70
     Davidson diagonalization with overlap
     ethr =  1.71E-06,  avg # of iterations =  9.5

     negative rho (up, down):  3.202E-03 0.000E+00

     total cpu time spent up to now is     6849.2 secs

     total energy              =  -27818.61491298 Ry
     estimated scf accuracy    <       0.00210234 Ry

     iteration # 10     ecut=    60.00 Ry     beta= 0.70
     Davidson diagonalization with overlap
     c_bands:  1 eigenvalues not converged
     c_bands:  1 eigenvalues not converged
     c_bands:  1 eigenvalues not converged
     c_bands:  1 eigenvalues not converged
     c_bands:  1 eigenvalues not converged
     ethr =  5.56E-07,  avg # of iterations = 13.2

     negative rho (up, down):  3.791E-03 0.000E+00

     total cpu time spent up to now is     7523.4 secs

     total energy              =  -27818.61507908 Ry
     estimated scf accuracy    <       0.00121070 Ry

     iteration # 11     ecut=    60.00 Ry     beta= 0.70
     Davidson diagonalization with overlap
     ethr =  3.20E-07,  avg # of iterations =  3.5

     negative rho (up, down):  5.110E-03 0.000E+00

     total cpu time spent up to now is     8086.9 secs

     total energy              =  -27818.61519448 Ry
     estimated scf accuracy    <       0.00092905 Ry

     iteration # 12     ecut=    60.00 Ry     beta= 0.70
     Davidson diagonalization with overlap
     c_bands:  1 eigenvalues not converged
     ethr =  2.46E-07,  avg # of iterations =  7.1

     negative rho (up, down):  6.359E-03 0.000E+00

     total cpu time spent up to now is     8663.6 secs

     total energy              =  -27818.61524648 Ry
     estimated scf accuracy    <       0.00060241 Ry

     iteration # 13     ecut=    60.00 Ry     beta= 0.70
     Davidson diagonalization with overlap
     ethr =  1.59E-07,  avg # of iterations =  1.8

     negative rho (up, down):  9.075E-03 0.000E+00

     total cpu time spent up to now is     9187.7 secs

     total energy              =  -27818.61523162 Ry
     estimated scf accuracy    <       0.00041943 Ry

     iteration # 14     ecut=    60.00 Ry     beta= 0.70
     Davidson diagonalization with overlap
     ethr =  1.11E-07,  avg # of iterations =  2.3

     negative rho (up, down):  9.653E-03 0.000E+00

     total cpu time spent up to now is     9738.2 secs

     total energy              =  -27818.61521303 Ry
     estimated scf accuracy    <       0.00022717 Ry

     iteration # 15     ecut=    60.00 Ry     beta= 0.70
     Davidson diagonalization with overlap
     ethr =  6.01E-08,  avg # of iterations =  2.0

     negative rho (up, down):  1.258E-02 0.000E+00

     total cpu time spent up to now is    10308.3 secs

     total energy              =  -27818.61520244 Ry
     estimated scf accuracy    <       0.00009237 Ry

     iteration # 16     ecut=    60.00 Ry     beta= 0.70
     Davidson diagonalization with overlap
     c_bands:  1 eigenvalues not converged
     ethr =  2.44E-08,  avg # of iterations =  4.8

     negative rho (up, down):  1.195E-02 0.000E+00

     total cpu time spent up to now is    10918.4 secs

     total energy              =  -27818.61522739 Ry
     estimated scf accuracy    <       0.00002926 Ry

     iteration # 17     ecut=    60.00 Ry     beta= 0.70
     Davidson diagonalization with overlap
     ethr =  7.74E-09,  avg # of iterations =  4.1

     negative rho (up, down):  1.240E-02 0.000E+00

     total cpu time spent up to now is    11597.5 secs

     total energy              =  -27818.61523547 Ry
     estimated scf accuracy    <       0.00001208 Ry

     iteration # 18     ecut=    60.00 Ry     beta= 0.70
     Davidson diagonalization with overlap
     ethr =  3.20E-09,  avg # of iterations =  3.1

     negative rho (up, down):  1.258E-02 0.000E+00

     total cpu time spent up to now is    12226.2 secs

     total energy              =  -27818.61523789 Ry
     estimated scf accuracy    <       0.00000580 Ry

     iteration # 19     ecut=    60.00 Ry     beta= 0.70
     Davidson diagonalization with overlap
     ethr =  1.53E-09,  avg # of iterations =  3.1

     negative rho (up, down):  1.255E-02 0.000E+00

     total cpu time spent up to now is    12825.9 secs

     total energy              =  -27818.61523872 Ry
     estimated scf accuracy    <       0.00000173 Ry

     iteration # 20     ecut=    60.00 Ry     beta= 0.70
     Davidson diagonalization with overlap
     ethr =  4.59E-10,  avg # of iterations =  4.3

     negative rho (up, down):  1.251E-02 0.000E+00

     total cpu time spent up to now is    13553.0 secs

     End of self-consistent calculation

          k = 0.0000 0.0000 0.0000 ( 90259 PWs)   bands (ev):

   -13.3133 -10.7474  -7.7213  -6.7365  -5.5704  -4.9878  -4.6275  -4.3782
    -4.3703  -4.3507  -4.3302  -4.3083  -4.2794  -4.2697  -4.1907  -4.0897
    -3.8033  -3.7885  -3.7676  -3.7504  -3.7474  -3.7310  -3.3975  -3.3377
    -3.3067  -3.3005  -3.2782  -3.2762  -3.1300  -3.1098  -3.1023  -3.0783
    -3.0672  -3.0487  -3.0346  -2.9398  -2.8976  -2.8844  -2.8747  -2.8667
    -2.8417  -2.8394  -2.8233  -2.8072  -2.7912  -2.7854  -2.7666  -2.5037
    -2.2958  -2.2652  -2.2547  -2.2491  -2.2279  -2.2258  -2.1694  -2.1557
    -2.1453  -2.1168  -2.0312  -2.0056  -1.9678  -1.9264  -1.8305  -1.5425
    -1.5240  -1.4415  -1.4408  -1.4149  -1.3692  -1.3646  -1.2969  -1.2823
    -1.2580  -1.2488  -1.2466  -1.2355  -1.2178  -1.2118  -1.2057  -1.1847
    -1.1634  -1.1585  -1.1485  -1.1465  -1.1145  -1.1019  -1.0530  -1.0327
    -1.0145  -1.0034  -0.9695  -0.8794  -0.8664  -0.8448  -0.8174  -0.8065
    -0.7900  -0.7630  -0.7440  -0.7402  -0.7082  -0.6796  -0.6391  -0.5954
    -0.5947  -0.5820  -0.5550  -0.5540  -0.4863  -0.4505  -0.4492  -0.3904
    -0.3819  -0.3725  -0.3507  -0.2309  -0.1097  -0.0207  -0.0117   0.0408
     0.0696   0.1112   0.1199   0.1221   0.1498   0.1940   0.2190   0.2697
     0.2738   0.3030   0.3195   0.3593   0.3734   0.3842   0.4635   0.4805
     0.5018   0.5548   0.5917   0.5979   0.6121   0.6133   0.7655   0.8035
     0.8277   0.8339   0.8375   0.8552   0.8974   0.9015   0.9198   1.0788
     1.0904   1.0927   1.1205   1.1348   1.1855   1.2123   1.2366   1.2501
     1.2637   1.2758   1.2827   1.2843   1.2913   1.3163   1.3178   1.3348
     1.3525   1.3711   1.3798   1.4258   1.4359   1.4494   1.4712   1.5008
     1.5082   1.5142   1.5292   1.5448   1.5506   1.5792   1.5971   1.6495
     1.6519   1.6523   1.6743   1.6882   1.6981   1.7224   1.7456   1.7612
     1.7749   1.7981   1.8144   1.8156   1.9506   1.9757   2.0556   2.0713
     2.0901   2.1205   2.1235   2.1259   2.5318   2.5491   2.9044   2.9651
     2.9909   3.0156   3.1218   3.8874   4.6021   5.2497   5.2594   5.3128
     5.3748   5.7120   5.8264   6.2624   6.6470   6.8769   6.8791   6.9163
     6.9169   6.9424   7.0318

          k = 0.0000 0.2309 0.0000 ( 90210 PWs)   bands (ev):

   -13.3131 -10.7479  -7.7190  -6.5916  -5.4523  -4.9628  -4.8197  -4.6346
    -4.4429  -4.4082  -4.2180  -4.1937  -4.1251  -4.1029  -4.0753  -3.9983
    -3.8881  -3.8520  -3.7224  -3.6874  -3.6736  -3.6720  -3.4134  -3.3681
    -3.2797  -3.2743  -3.2704  -3.1852  -3.1760  -3.1328  -3.1169  -3.1015
    -3.0927  -3.0744  -3.0412  -2.9851  -2.9568  -2.9393  -2.8730  -2.8637
    -2.8439  -2.8284  -2.6821  -2.6752  -2.6427  -2.6389  -2.6149  -2.5125
    -2.3730  -2.3652  -2.3426  -2.3074  -2.2934  -2.2706  -2.2474  -2.1037
    -2.0983  -2.0319  -2.0107  -1.9883  -1.9427  -1.9234  -1.8157  -1.7042
    -1.6394  -1.6129  -1.5637  -1.5593  -1.5117  -1.4791  -1.4571  -1.4251
    -1.4037  -1.3968  -1.3714  -1.3188  -1.2755  -1.2722  -1.2410  -1.2270
    -1.1817  -1.1414  -1.1209  -1.0837  -1.0660  -1.0632  -1.0461  -0.9859
    -0.9715  -0.9472  -0.9465  -0.8975  -0.8940  -0.8610  -0.8263  -0.8205
    -0.7696  -0.7655  -0.7237  -0.7198  -0.6896  -0.6712  -0.6499  -0.6455
    -0.6154  -0.6119  -0.5929  -0.5716  -0.4972  -0.4838  -0.4483  -0.4424
    -0.3918  -0.3701  -0.3686  -0.3473  -0.3248  -0.3075  -0.3025  -0.2716
    -0.2044  -0.0548   0.0244   0.0459   0.0820   0.1100   0.1342   0.1457
     0.1582   0.2035   0.2280   0.2686   0.3857   0.3896   0.4353   0.4626
     0.5061   0.5244   0.5365   0.5732   0.5797   0.6301   0.6708   0.6846
     0.7014   0.7388   0.7449   0.8522   0.8850   0.8908   0.9109   0.9376
     0.9473   1.0203   1.0332   1.0507   1.1074   1.1320   1.1402   1.1699
     1.2028   1.2156   1.2454   1.2779   1.3162   1.3353   1.3461   1.4064
     1.4282   1.4654   1.4805   1.5023   1.5457   1.5707   1.6012   1.6278
     1.6330   1.6682   1.6971   1.7163   1.7265   1.7442   1.7606   1.7764
     1.7792   1.8260   1.8300   1.9403   1.9577   1.9706   2.0129   2.0436
     2.0450   2.0644   2.0815   2.0969   2.1106   2.1642   2.2086   2.2361
     2.2662   2.3817   2.4059   2.4299   2.4838   2.6173   2.7931   3.2903
     3.3056   3.5648   3.7489   4.0154   4.3758   4.8719   5.2489   5.3886
     5.7366   5.7805   5.9274   5.9803   6.0411   6.4040   6.6749   6.6888
     6.7545   6.9957   7.1091

          k = 0.0000 0.4619 0.0000 ( 90182 PWs)   bands (ev):

   -13.3129 -10.7486  -7.7155  -6.1744  -5.5431  -5.2051  -4.7936  -4.6432
    -4.4635  -4.4300  -4.3386  -4.1169  -4.0590  -3.9419  -3.8310  -3.7702
    -3.7387  -3.7304  -3.6067  -3.5790  -3.5148  -3.5141  -3.4987  -3.4010
    -3.3805  -3.3599  -3.3525  -3.3050  -3.2932  -3.2595  -3.2014  -3.1659
    -3.1593  -3.0353  -2.9303  -2.9272  -2.9100  -2.9009  -2.8659  -2.8587
    -2.6798  -2.6678  -2.6538  -2.6325  -2.6084  -2.5914  -2.5402  -2.4151
    -2.3674  -2.3348  -2.3262  -2.3072  -2.2819  -2.2649  -2.1990  -2.1739
    -2.1595  -2.1388  -2.1155  -2.0307  -1.9681  -1.9379  -1.9319  -1.8866
    -1.8050  -1.7762  -1.7407  -1.7360  -1.7021  -1.5878  -1.5595  -1.5352
    -1.5078  -1.4744  -1.4449  -1.4270  -1.3939  -1.3861  -1.3153  -1.2896
    -1.2700  -1.1895  -1.1867  -1.1676  -1.1559  -1.1281  -1.0961  -1.0601
    -1.0472  -1.0374  -1.0190  -1.0141  -1.0060  -0.9643  -0.9243  -0.9036
    -0.8809  -0.8657  -0.8346  -0.7987  -0.7849  -0.7407  -0.7345  -0.6644
    -0.6557  -0.6092  -0.5788  -0.5567  -0.5467  -0.5193  -0.4360  -0.4348
    -0.3771  -0.3766  -0.3406  -0.3142  -0.3050  -0.2537  -0.1582  -0.1298
    -0.0980  -0.0618  -0.0436   0.0148   0.0207   0.0501   0.0832   0.0960
     0.1123   0.1239   0.1521   0.1652   0.1932   0.2193   0.2465   0.2692
     0.3049   0.3151   0.3690   0.3949   0.4189   0.5191   0.5220   0.5977
     0.6119   0.6851   0.6947   0.7177   0.8434   0.8463   0.8943   0.9199
     0.9456   0.9638   0.9743   1.0255   1.0499   1.0651   1.0859   1.1443
     1.1494   1.2173   1.2207   1.2519   1.2820   1.3125   1.3137   1.4141
     1.4287   1.5177   1.5194   1.5484   1.5944   1.6095   1.6511   1.6613
     1.7019   1.7430   1.7610   1.8134   1.8359   1.8584   1.8708   1.9365
     1.9702   1.9809   2.0026   2.0173   2.0414   2.0606   2.0658   2.2263
     2.2411   2.2434   2.2584   2.2650   2.3943   2.4850   2.6873   2.7401
     2.9440   2.9975   3.2855   3.2915   3.5219   3.6028   3.7453   3.7556
     4.0470   4.1797   4.5168   4.5183   4.5869   4.6531   4.8195   4.9095
     5.0982   5.1493   5.2497   5.5163   5.7938   6.0011   6.2374   6.3466
     6.6689   6.7328   6.8953

          k = 0.2000-0.1155 0.0000 ( 90210 PWs)   bands (ev):

   -13.3132 -10.7476  -7.7164  -6.5928  -5.4566  -4.9604  -4.8293  -4.6108
    -4.4428  -4.4229  -4.2155  -4.1977  -4.1229  -4.0819  -4.0692  -4.0294
    -3.8721  -3.8389  -3.7273  -3.7062  -3.6812  -3.6652  -3.4044  -3.3252
    -3.2824  -3.2555  -3.2459  -3.2328  -3.1767  -3.1636  -3.1172  -3.0922
    -3.0756  -3.0448  -3.0281  -3.0016  -2.9735  -2.9426  -2.8907  -2.8829
    -2.8656  -2.8271  -2.7105  -2.6811  -2.6580  -2.6269  -2.6046  -2.4971
    -2.3965  -2.3641  -2.3554  -2.3100  -2.2883  -2.2653  -2.2445  -2.1355
    -2.0717  -2.0250  -2.0107  -1.9636  -1.9390  -1.9246  -1.8619  -1.7083
    -1.6330  -1.6125  -1.5764  -1.5534  -1.5079  -1.4781  -1.4609  -1.4248
    -1.4159  -1.3798  -1.3619  -1.3163  -1.2999  -1.2634  -1.2373  -1.2179
    -1.1755  -1.1447  -1.1206  -1.0918  -1.0671  -1.0490  -1.0274  -1.0047
    -0.9691  -0.9591  -0.9312  -0.9018  -0.8879  -0.8643  -0.8562  -0.8240
    -0.7940  -0.7590  -0.7459  -0.7156  -0.6901  -0.6705  -0.6553  -0.6434
    -0.6335  -0.5980  -0.5808  -0.5481  -0.4968  -0.4807  -0.4455  -0.4157
    -0.3926  -0.3734  -0.3659  -0.3363  -0.3188  -0.2984  -0.2890  -0.2383
    -0.2044  -0.0632   0.0064   0.0400   0.0586   0.1156   0.1261   0.1459
     0.1507   0.2259   0.2989   0.3199   0.3732   0.3926   0.4346   0.4628
     0.4988   0.5225   0.5390   0.5690   0.5947   0.6279   0.6612   0.7051
     0.7209   0.7331   0.7516   0.8018   0.8900   0.9029   0.9204   0.9557
     0.9696   1.0105   1.0342   1.0656   1.0970   1.1218   1.1313   1.1705
     1.1904   1.2193   1.2407   1.2768   1.3283   1.3425   1.3599   1.3883
     1.4209   1.4538   1.4806   1.5138   1.5254   1.5576   1.6011   1.6206
     1.6568   1.6688   1.6972   1.7015   1.7264   1.7505   1.7596   1.7688
     1.7819   1.8172   1.8270   1.9231   1.9613   1.9832   1.9986   2.0080
     2.0286   2.0672   2.0739   2.1040   2.1180   2.1511   2.2154   2.2366
     2.2677   2.3426   2.4002   2.4165   2.4476   2.7395   2.8065   3.1000
     3.4873   3.5988   3.6938   3.8624   4.6493   4.7588   5.1156   5.4887
     5.7382   5.7623   5.9112   5.9664   6.0569   6.5166   6.6688   6.7515
     6.7526   6.9553   7.1008

          k = 0.2000 0.1155 0.0000 ( 90210 PWs)   bands (ev):

   -13.3132 -10.7476  -7.7164  -6.5928  -5.4564  -4.9602  -4.8295  -4.6100
    -4.4431  -4.4238  -4.2155  -4.1977  -4.1227  -4.0818  -4.0696  -4.0293
    -3.8715  -3.8383  -3.7273  -3.7062  -3.6819  -3.6653  -3.4051  -3.3247
    -3.2822  -3.2547  -3.2462  -3.2320  -3.1771  -3.1634  -3.1180  -3.0921
    -3.0757  -3.0442  -3.0276  -3.0021  -2.9734  -2.9423  -2.8910  -2.8827
    -2.8653  -2.8279  -2.7102  -2.6820  -2.6586  -2.6266  -2.6041  -2.4982
    -2.3998  -2.3647  -2.3553  -2.3093  -2.2887  -2.2652  -2.2414  -2.1350
    -2.0697  -2.0247  -2.0113  -1.9655  -1.9394  -1.9247  -1.8617  -1.7095
    -1.6321  -1.6136  -1.5771  -1.5538  -1.5094  -1.4793  -1.4596  -1.4237
    -1.4142  -1.3793  -1.3631  -1.3163  -1.3006  -1.2639  -1.2369  -1.2182
    -1.1738  -1.1443  -1.1183  -1.0930  -1.0668  -1.0497  -1.0277  -1.0046
    -0.9705  -0.9597  -0.9317  -0.9010  -0.8859  -0.8635  -0.8566  -0.8242
    -0.7944  -0.7589  -0.7454  -0.7156  -0.6903  -0.6695  -0.6561  -0.6429
    -0.6327  -0.5988  -0.5816  -0.5471  -0.4960  -0.4803  -0.4455  -0.4148
    -0.3915  -0.3734  -0.3652  -0.3363  -0.3188  -0.2980  -0.2893  -0.2390
    -0.2066  -0.0659   0.0059   0.0405   0.0584   0.1158   0.1260   0.1457
     0.1514   0.2255   0.2994   0.3205   0.3727   0.3925   0.4347   0.4630
     0.4982   0.5239   0.5383   0.5692   0.5949   0.6273   0.6607   0.7050
     0.7203   0.7331   0.7509   0.8027   0.8918   0.9043   0.9224   0.9549
     0.9689   1.0103   1.0334   1.0655   1.0974   1.1213   1.1319   1.1690
     1.1912   1.2189   1.2417   1.2768   1.3282   1.3414   1.3590   1.3888
     1.4208   1.4541   1.4809   1.5138   1.5248   1.5573   1.6020   1.6204
     1.6562   1.6691   1.6968   1.7015   1.7268   1.7505   1.7592   1.7692
     1.7819   1.8174   1.8273   1.9230   1.9618   1.9834   1.9987   2.0080
     2.0281   2.0669   2.0731   2.1037   2.1172   2.1524   2.2153   2.2369
     2.2677   2.3442   2.3992   2.4157   2.4483   2.7401   2.8005   3.1048
     3.4845   3.5984   3.6957   3.8646   4.6460   4.7586   5.1187   5.4894
     5.7385   5.7615   5.9119   5.9667   6.0561   6.5146   6.6705   6.7515
     6.7534   6.9543   7.1034

          k = 0.2000 0.3464 0.0000 ( 90230 PWs)   bands (ev):

   -13.3130 -10.7482  -7.7137  -6.3104  -5.2838  -5.0960  -5.0892  -4.8145
    -4.5981  -4.1850  -4.0223  -4.0102  -3.9904  -3.9454  -3.9329  -3.9288
    -3.9065  -3.8271  -3.8111  -3.7835  -3.4698  -3.4388  -3.4264  -3.4110
    -3.3554  -3.3180  -3.2796  -3.2021  -3.1920  -3.1658  -3.1434  -3.0831
    -3.0729  -3.0454  -3.0309  -3.0230  -2.9857  -2.9441  -2.9230  -2.8996
    -2.8685  -2.8369  -2.7640  -2.6032  -2.5391  -2.4827  -2.4318  -2.4185
    -2.3949  -2.3820  -2.3521  -2.3221  -2.3023  -2.2884  -2.1950  -2.1598
    -2.1294  -2.0454  -2.0226  -2.0101  -1.9636  -1.9440  -1.8964  -1.8677
    -1.8354  -1.7078  -1.6873  -1.6709  -1.6219  -1.5928  -1.5534  -1.5435
    -1.5352  -1.4883  -1.4516  -1.3969  -1.3388  -1.3275  -1.3018  -1.2723
    -1.2515  -1.2316  -1.2104  -1.1502  -1.1282  -1.1045  -1.0745  -1.0257
    -1.0148  -1.0014  -0.9697  -0.9462  -0.9232  -0.9085  -0.8952  -0.8789
    -0.8417  -0.8124  -0.7893  -0.7557  -0.7234  -0.6912  -0.6835  -0.6559
    -0.6306  -0.6111  -0.5936  -0.5796  -0.5550  -0.5404  -0.5247  -0.5131
    -0.4656  -0.4522  -0.4092  -0.3879  -0.3713  -0.3332  -0.2402  -0.2284
    -0.2026  -0.0872  -0.0768  -0.0266  -0.0104   0.0680   0.0875   0.1068
     0.1271   0.1553   0.1777   0.2062   0.2399   0.2561   0.2774   0.3209
     0.3921   0.4521   0.4773   0.5184   0.5409   0.5500   0.5779   0.6404
     0.6563   0.7193   0.7419   0.7615   0.8044   0.8282   0.8626   0.8863
     0.9267   0.9801   1.0034   1.0228   1.0604   1.0704   1.0810   1.0994
     1.1168   1.1308   1.1484   1.1985   1.2751   1.3087   1.3617   1.4122
     1.4424   1.5488   1.5847   1.6309   1.6494   1.6625   1.7217   1.7565
     1.7627   1.7917   1.8149   1.8380   1.8485   1.8605   1.8790   1.8981
     1.9112   1.9428   1.9842   2.0248   2.0368   2.0596   2.0819   2.1298
     2.2034   2.2488   2.2945   2.3231   2.3510   2.3835   2.3964   2.4881
     2.5340   2.7939   3.0177   3.0677   3.2282   3.3886   3.6025   3.6201
     3.9027   3.9775   4.2958   4.4093   4.5334   4.5898   4.6456   5.1406
     5.4270   5.7252   5.8623   5.8947   6.0471   6.1541   6.3692   6.4462
     6.4699   6.5293   6.6475

          k = 0.2000-0.5774 0.0000 ( 90250 PWs)   bands (ev):

   -13.3129 -10.7486  -7.7121  -5.8129  -5.7465  -5.2336  -5.0765  -4.6119
    -4.6020  -4.3969  -4.0818  -4.0143  -3.9637  -3.8607  -3.8373  -3.7233
    -3.7094  -3.6278  -3.5980  -3.5504  -3.5162  -3.4845  -3.4633  -3.4427
    -3.4221  -3.3982  -3.3152  -3.2889  -3.2616  -3.2482  -3.2353  -3.2316
    -3.1235  -3.0400  -3.0305  -2.9827  -2.9076  -2.8907  -2.8789  -2.8546
    -2.8402  -2.7599  -2.7339  -2.6941  -2.6119  -2.5553  -2.4639  -2.4357
    -2.3985  -2.3842  -2.3217  -2.2676  -2.2349  -2.1673  -2.1385  -2.1032
    -2.0672  -2.0339  -2.0134  -1.9699  -1.9445  -1.9265  -1.8671  -1.8362
    -1.8296  -1.8084  -1.7852  -1.7807  -1.7697  -1.7247  -1.6491  -1.5986
    -1.5838  -1.5581  -1.5107  -1.4414  -1.4352  -1.4094  -1.3920  -1.3589
    -1.3121  -1.3034  -1.2897  -1.2186  -1.2021  -1.1798  -1.1708  -1.1305
    -1.1143  -1.0513  -1.0034  -0.9799  -0.9616  -0.9561  -0.9217  -0.8632
    -0.8443  -0.7954  -0.7851  -0.7422  -0.7148  -0.7039  -0.6958  -0.6595
    -0.6314  -0.6243  -0.6064  -0.5974  -0.5619  -0.5521  -0.5311  -0.5104
    -0.4928  -0.4893  -0.4634  -0.4394  -0.4291  -0.2987  -0.2196  -0.1832
    -0.1290  -0.1248  -0.0531  -0.0360  -0.0018   0.0175   0.0625   0.0810
     0.0892   0.1035   0.1553   0.1901   0.2019   0.2092   0.2488   0.2897
     0.3499   0.3549   0.3924   0.4430   0.4962   0.5437   0.5866   0.6144
     0.6807   0.6950   0.7069   0.7286   0.7619   0.7906   0.8003   0.8207
     0.8701   0.8749   0.9324   0.9671   0.9987   1.0101   1.0457   1.0605
     1.0739   1.1877   1.2041   1.2232   1.2905   1.3793   1.4108   1.4856
     1.4920   1.5674   1.5879   1.6013   1.6145   1.6909   1.7253   1.7734
     1.7958   1.8069   1.8336   1.8455   1.8951   1.9101   1.9692   1.9845
     2.0024   2.0235   2.0411   2.0459   2.0665   2.1315   2.2133   2.2378
     2.2529   2.2555   2.2742   2.3248   2.3565   2.4337   2.5260   3.1046
     3.3419   3.4118   3.4246   3.5972   3.6471   3.7876   3.8250   3.8755
     4.2652   4.3902   4.4672   4.5602   4.8849   4.9097   4.9856   5.0118
     5.1803   5.2221   5.3354   5.4099   5.5737   5.8080   5.8695   6.2207
     6.4064   6.5153   6.5224

          k = 0.2000-0.3464 0.0000 ( 90230 PWs)   bands (ev):

   -13.3130 -10.7482  -7.7137  -6.3105  -5.2845  -5.0960  -5.0890  -4.8143
    -4.5983  -4.1843  -4.0222  -4.0102  -3.9908  -3.9454  -3.9338  -3.9294
    -3.9054  -3.8272  -3.8111  -3.7829  -3.4700  -3.4389  -3.4258  -3.4114
    -3.3568  -3.3176  -3.2790  -3.2023  -3.1923  -3.1663  -3.1436  -3.0821
    -3.0727  -3.0451  -3.0314  -3.0228  -2.9867  -2.9439  -2.9233  -2.9003
    -2.8679  -2.8358  -2.7645  -2.6033  -2.5391  -2.4819  -2.4315  -2.4184
    -2.3929  -2.3800  -2.3505  -2.3212  -2.3027  -2.2888  -2.1985  -2.1615
    -2.1288  -2.0463  -2.0220  -2.0094  -1.9638  -1.9437  -1.8969  -1.8660
    -1.8360  -1.7091  -1.6871  -1.6698  -1.6210  -1.5899  -1.5533  -1.5436
    -1.5360  -1.4885  -1.4517  -1.3975  -1.3392  -1.3256  -1.3026  -1.2722
    -1.2519  -1.2311  -1.2111  -1.1504  -1.1279  -1.1054  -1.0759  -1.0255
    -1.0144  -1.0017  -0.9696  -0.9464  -0.9244  -0.9085  -0.8954  -0.8815
    -0.8418  -0.8127  -0.7893  -0.7563  -0.7230  -0.6903  -0.6841  -0.6565
    -0.6304  -0.6115  -0.5929  -0.5804  -0.5552  -0.5401  -0.5244  -0.5131
    -0.4656  -0.4508  -0.4113  -0.3876  -0.3716  -0.3335  -0.2405  -0.2280
    -0.2039  -0.0850  -0.0756  -0.0268  -0.0099   0.0671   0.0872   0.1064
     0.1269   0.1550   0.1786   0.2075   0.2407   0.2563   0.2777   0.3209
     0.3932   0.4516   0.4773   0.5193   0.5412   0.5490   0.5769   0.6415
     0.6557   0.7197   0.7420   0.7605   0.8034   0.8295   0.8612   0.8855
     0.9263   0.9805   1.0029   1.0236   1.0611   1.0707   1.0807   1.0993
     1.1164   1.1316   1.1483   1.1981   1.2740   1.3086   1.3623   1.4131
     1.4426   1.5489   1.5854   1.6310   1.6497   1.6626   1.7219   1.7563
     1.7626   1.7918   1.8149   1.8374   1.8486   1.8600   1.8785   1.8984
     1.9116   1.9427   1.9839   2.0247   2.0366   2.0597   2.0818   2.1294
     2.2030   2.2494   2.2959   2.3234   2.3520   2.3834   2.3958   2.4871
     2.5339   2.7928   3.0160   3.0672   3.2345   3.3883   3.6027   3.6198
     3.9010   3.9757   4.2954   4.4095   4.5333   4.5890   4.6474   5.1419
     5.4258   5.7249   5.8621   5.8919   6.0472   6.1554   6.3687   6.4448
     6.4675   6.5288   6.6510

          k = 0.4000-0.2309 0.0000 ( 90182 PWs)   bands (ev):

   -13.3130 -10.7480  -7.7089  -6.1773  -5.5554  -5.2078  -4.7935  -4.6047
    -4.4773  -4.4528  -4.2936  -4.1528  -4.0377  -3.9391  -3.8303  -3.7641
    -3.7466  -3.7345  -3.5985  -3.5597  -3.5352  -3.5151  -3.5045  -3.4018
    -3.3561  -3.3489  -3.3063  -3.2957  -3.2653  -3.2335  -3.1754  -3.1652
    -3.1422  -3.0602  -3.0377  -2.9377  -2.9188  -2.9015  -2.8820  -2.8710
    -2.7649  -2.7080  -2.6584  -2.6416  -2.6221  -2.5906  -2.5151  -2.4707
    -2.4001  -2.3401  -2.3370  -2.2831  -2.2697  -2.2567  -2.1968  -2.1761
    -2.1634  -2.1381  -2.1191  -2.0199  -1.9705  -1.9610  -1.9177  -1.8684
    -1.8145  -1.7891  -1.7610  -1.7322  -1.6814  -1.5962  -1.5646  -1.5367
    -1.5128  -1.4707  -1.4506  -1.4167  -1.3945  -1.3579  -1.3313  -1.2815
    -1.2602  -1.1970  -1.1805  -1.1450  -1.1340  -1.1230  -1.0902  -1.0718
    -1.0377  -1.0296  -1.0161  -1.0013  -0.9889  -0.9628  -0.9476  -0.8956
    -0.8754  -0.8527  -0.8300  -0.8136  -0.7959  -0.7227  -0.6993  -0.6788
    -0.6419  -0.6231  -0.6012  -0.5722  -0.5487  -0.5162  -0.4630  -0.4383
    -0.3921  -0.3718  -0.3426  -0.3016  -0.2643  -0.1987  -0.1680  -0.1472
    -0.0790  -0.0539  -0.0383  -0.0060   0.0191   0.0530   0.0684   0.1009
     0.1170   0.1421   0.1665   0.1746   0.2113   0.2328   0.2463   0.2607
     0.2967   0.3759   0.3942   0.4182   0.4502   0.4874   0.5318   0.5877
     0.6379   0.6670   0.7139   0.7685   0.8039   0.8614   0.8909   0.9009
     0.9360   0.9780   0.9900   1.0009   1.0542   1.0670   1.0912   1.1405
     1.1605   1.2169   1.2504   1.2542   1.2696   1.2924   1.3519   1.4019
     1.4539   1.4848   1.5291   1.5542   1.5717   1.6157   1.6488   1.6832
     1.6946   1.7510   1.7666   1.8018   1.8148   1.8587   1.8640   1.9353
     1.9636   1.9723   2.0058   2.0166   2.0304   2.0558   2.0624   2.2146
     2.2194   2.2398   2.2605   2.2875   2.3799   2.4849   2.5869   2.7221
     2.9105   3.0161   3.2713   3.3135   3.4426   3.5262   3.6926   3.8762
     4.0260   4.2551   4.5176   4.5318   4.5675   4.7006   4.8105   4.8502
     5.0155   5.1631   5.2028   5.6025   5.8286   6.1374   6.3080   6.3281
     6.5728   6.8127   6.9175

          k = 0.4000-0.0000 0.0000 ( 90230 PWs)   bands (ev):

   -13.3130 -10.7478  -7.7095  -6.3134  -5.2889  -5.1184  -5.0719  -4.8059
    -4.5849  -4.2093  -4.0130  -4.0007  -3.9794  -3.9550  -3.9390  -3.9236
    -3.8784  -3.8265  -3.8166  -3.7953  -3.4674  -3.4426  -3.4249  -3.4034
    -3.3471  -3.3385  -3.2026  -3.1920  -3.1864  -3.1631  -3.1425  -3.1036
    -3.0680  -3.0499  -3.0371  -3.0111  -2.9828  -2.9518  -2.9251  -2.9070
    -2.8742  -2.8651  -2.7683  -2.6902  -2.5674  -2.4983  -2.4517  -2.4420
    -2.4160  -2.3792  -2.3605  -2.3204  -2.2969  -2.2627  -2.2201  -2.1349
    -2.1315  -2.0434  -2.0386  -1.9750  -1.9613  -1.9341  -1.9096  -1.8768
    -1.8431  -1.7292  -1.6745  -1.6678  -1.6306  -1.5847  -1.5672  -1.5254
    -1.5116  -1.4813  -1.4640  -1.4079  -1.3349  -1.3102  -1.2971  -1.2780
    -1.2258  -1.2203  -1.2085  -1.1408  -1.1138  -1.0961  -1.0713  -1.0345
    -1.0164  -1.0015  -0.9771  -0.9540  -0.9360  -0.9028  -0.8981  -0.8586
    -0.8348  -0.8144  -0.7621  -0.7585  -0.7196  -0.7019  -0.6794  -0.6534
    -0.6498  -0.6306  -0.5953  -0.5826  -0.5738  -0.5562  -0.5205  -0.5028
    -0.4538  -0.4514  -0.3850  -0.3646  -0.3584  -0.3026  -0.2703  -0.2395
    -0.2068  -0.1220  -0.0715  -0.0223   0.0129   0.0615   0.0847   0.1535
     0.1571   0.1755   0.1847   0.2000   0.2489   0.2601   0.2954   0.3232
     0.3787   0.4270   0.4977   0.5228   0.5432   0.5737   0.6024   0.6202
     0.6552   0.6813   0.7343   0.7900   0.8082   0.8304   0.8484   0.8982
     0.9382   0.9797   0.9998   1.0192   1.0459   1.0473   1.0873   1.1019
     1.1102   1.1351   1.1771   1.2286   1.2628   1.2953   1.3354   1.4156
     1.4630   1.5181   1.5957   1.6288   1.6483   1.6854   1.7159   1.7567
     1.7731   1.7826   1.8046   1.8217   1.8485   1.8581   1.8648   1.9044
     1.9133   1.9411   1.9920   2.0276   2.0379   2.0608   2.0804   2.1162
     2.1950   2.2704   2.2986   2.3269   2.3633   2.3989   2.4187   2.4817
     2.5295   2.6438   2.9904   3.0603   3.3253   3.4309   3.5949   3.6233
     3.6645   4.0465   4.3212   4.3743   4.5137   4.5760   4.7297   5.1637
     5.4280   5.7218   5.7422   5.9674   6.1241   6.2071   6.3277   6.4279
     6.5082   6.5849   6.7279

          k = 0.4000 0.2309 0.0000 ( 90182 PWs)   bands (ev):

   -13.3129 -10.7480  -7.7089  -6.1772  -5.5551  -5.2071  -4.7944  -4.6034
    -4.4780  -4.4538  -4.2933  -4.1534  -4.0363  -3.9392  -3.8303  -3.7646
    -3.7465  -3.7345  -3.5990  -3.5591  -3.5354  -3.5149  -3.5048  -3.4019
    -3.3561  -3.3488  -3.3060  -3.2958  -3.2651  -3.2339  -3.1753  -3.1650
    -3.1410  -3.0568  -3.0394  -2.9371  -2.9189  -2.9021  -2.8818  -2.8724
    -2.7649  -2.7088  -2.6584  -2.6414  -2.6221  -2.5919  -2.5168  -2.4725
    -2.4033  -2.3400  -2.3366  -2.2834  -2.2694  -2.2554  -2.1961  -2.1775
    -2.1627  -2.1376  -2.1181  -2.0193  -1.9712  -1.9611  -1.9172  -1.8682
    -1.8147  -1.7908  -1.7622  -1.7339  -1.6818  -1.5956  -1.5639  -1.5364
    -1.5122  -1.4684  -1.4516  -1.4182  -1.3933  -1.3586  -1.3277  -1.2794
    -1.2604  -1.1969  -1.1801  -1.1476  -1.1331  -1.1238  -1.0907  -1.0711
    -1.0372  -1.0291  -1.0176  -1.0018  -0.9883  -0.9632  -0.9489  -0.8952
    -0.8768  -0.8525  -0.8303  -0.8127  -0.7958  -0.7209  -0.6979  -0.6790
    -0.6421  -0.6216  -0.6000  -0.5708  -0.5479  -0.5140  -0.4635  -0.4373
    -0.3920  -0.3719  -0.3420  -0.3008  -0.2653  -0.1985  -0.1706  -0.1486
    -0.0790  -0.0536  -0.0392  -0.0061   0.0179   0.0526   0.0678   0.1008
     0.1186   0.1434   0.1654   0.1740   0.2108   0.2321   0.2473   0.2596
     0.2961   0.3752   0.3936   0.4179   0.4508   0.4881   0.5301   0.5877
     0.6387   0.6669   0.7129   0.7701   0.8042   0.8614   0.8911   0.9029
     0.9365   0.9779   0.9903   1.0007   1.0537   1.0664   1.0913   1.1406
     1.1600   1.2166   1.2499   1.2554   1.2706   1.2933   1.3536   1.4012
     1.4526   1.4853   1.5286   1.5544   1.5710   1.6148   1.6488   1.6825
     1.6949   1.7506   1.7666   1.8022   1.8151   1.8588   1.8650   1.9354
     1.9632   1.9722   2.0057   2.0163   2.0296   2.0557   2.0619   2.2145
     2.2194   2.2393   2.2596   2.2874   2.3805   2.4849   2.5877   2.7217
     2.9083   3.0207   3.2708   3.3134   3.4440   3.5266   3.6932   3.8726
     4.0253   4.2532   4.5167   4.5310   4.5684   4.7009   4.8123   4.8502
     5.0181   5.1629   5.2054   5.6014   5.8279   6.1385   6.3069   6.3303
     6.5710   6.8115   6.9152

          k = 0.4000-0.6928 0.0000 ( 90250 PWs)   bands (ev):

   -13.3129 -10.7482  -7.7080  -5.7923  -5.7798  -5.2077  -5.0974  -4.6857
    -4.4829  -4.4039  -4.1478  -3.9880  -3.9461  -3.8617  -3.8322  -3.7269
    -3.7184  -3.6185  -3.6032  -3.5167  -3.5038  -3.4967  -3.4613  -3.4403
    -3.4217  -3.3845  -3.3095  -3.2957  -3.2811  -3.2389  -3.2282  -3.1608
    -3.1046  -3.0580  -3.0338  -3.0179  -2.9539  -2.9214  -2.8967  -2.8533
    -2.8309  -2.8056  -2.7465  -2.6738  -2.6366  -2.5591  -2.4841  -2.4480
    -2.4141  -2.3706  -2.3263  -2.2825  -2.2341  -2.1752  -2.1220  -2.0852
    -2.0664  -2.0317  -2.0123  -1.9834  -1.9643  -1.9381  -1.8597  -1.8533
    -1.8252  -1.8087  -1.7868  -1.7793  -1.7589  -1.7186  -1.6874  -1.6187
    -1.5813  -1.5454  -1.5186  -1.4517  -1.4194  -1.3898  -1.3673  -1.3507
    -1.3119  -1.2893  -1.2494  -1.2311  -1.1956  -1.1771  -1.1543  -1.1286
    -1.1020  -1.0518  -1.0073  -0.9765  -0.9570  -0.9485  -0.9181  -0.8714
    -0.8255  -0.7769  -0.7652  -0.7596  -0.7165  -0.7021  -0.6942  -0.6603
    -0.6394  -0.6325  -0.6156  -0.5837  -0.5672  -0.5434  -0.5234  -0.5135
    -0.5098  -0.4866  -0.4752  -0.4412  -0.3817  -0.3391  -0.2183  -0.1818
    -0.1443  -0.1069  -0.0803  -0.0355  -0.0183   0.0337   0.0437   0.0670
     0.0851   0.1149   0.1490   0.1786   0.2099   0.2350   0.2674   0.3021
     0.3423   0.3617   0.3934   0.4770   0.5207   0.5492   0.6094   0.6477
     0.6691   0.6831   0.7136   0.7420   0.7707   0.7968   0.8223   0.8330
     0.8547   0.8952   0.9347   0.9557   0.9955   1.0163   1.0230   1.0736
     1.0813   1.1345   1.1949   1.2598   1.3139   1.3323   1.4483   1.4745
     1.4886   1.5129   1.5564   1.6134   1.6465   1.6806   1.7458   1.7812
     1.7881   1.8131   1.8338   1.8457   1.8812   1.8960   1.9688   1.9844
     1.9931   2.0198   2.0359   2.0458   2.0712   2.1255   2.1811   2.2301
     2.2544   2.2724   2.2883   2.3292   2.3739   2.4465   2.5619   3.0568
     3.1185   3.4151   3.4287   3.6857   3.7170   3.7666   3.7999   3.9700
     4.1433   4.3901   4.4330   4.5251   4.8709   4.9537   4.9996   5.0210
     5.1466   5.2659   5.3342   5.4151   5.6642   5.7823   5.8543   6.1940
     6.4520   6.5033   6.5744

          k = 0.4000-0.4619 0.0000 ( 90250 PWs)   bands (ev):

   -13.3129 -10.7482  -7.7080  -5.7921  -5.7803  -5.2075  -5.0982  -4.6840
    -4.4852  -4.4030  -4.1475  -3.9882  -3.9468  -3.8614  -3.8320  -3.7266
    -3.7179  -3.6186  -3.6034  -3.5171  -3.5036  -3.4969  -3.4617  -3.4402
    -3.4210  -3.3837  -3.3103  -3.2958  -3.2809  -3.2389  -3.2281  -3.1609
    -3.1047  -3.0613  -3.0335  -3.0176  -2.9543  -2.9209  -2.8973  -2.8534
    -2.8303  -2.8052  -2.7444  -2.6734  -2.6367  -2.5583  -2.4821  -2.4480
    -2.4130  -2.3734  -2.3257  -2.2818  -2.2335  -2.1757  -2.1226  -2.0864
    -2.0673  -2.0321  -2.0115  -1.9812  -1.9635  -1.9382  -1.8590  -1.8520
    -1.8252  -1.8100  -1.7871  -1.7793  -1.7594  -1.7180  -1.6872  -1.6189
    -1.5807  -1.5465  -1.5189  -1.4529  -1.4167  -1.3898  -1.3676  -1.3509
    -1.3121  -1.2906  -1.2503  -1.2321  -1.1963  -1.1770  -1.1540  -1.1285
    -1.1013  -1.0519  -1.0072  -0.9765  -0.9555  -0.9484  -0.9198  -0.8712
    -0.8257  -0.7789  -0.7660  -0.7589  -0.7164  -0.7017  -0.6934  -0.6607
    -0.6409  -0.6327  -0.6147  -0.5833  -0.5683  -0.5422  -0.5232  -0.5132
    -0.5096  -0.4863  -0.4751  -0.4423  -0.3846  -0.3400  -0.2203  -0.1791
    -0.1437  -0.1076  -0.0783  -0.0353  -0.0178   0.0334   0.0439   0.0680
     0.0861   0.1150   0.1492   0.1782   0.2107   0.2349   0.2673   0.3024
     0.3427   0.3608   0.3937   0.4770   0.5194   0.5480   0.6103   0.6489
     0.6692   0.6835   0.7129   0.7416   0.7709   0.7967   0.8228   0.8332
     0.8550   0.8946   0.9350   0.9559   0.9951   1.0165   1.0225   1.0729
     1.0809   1.1339   1.1943   1.2578   1.3143   1.3333   1.4493   1.4753
     1.4891   1.5140   1.5559   1.6138   1.6457   1.6809   1.7460   1.7812
     1.7876   1.8129   1.8344   1.8449   1.8812   1.8960   1.9692   1.9847
     1.9925   2.0188   2.0357   2.0454   2.0718   2.1254   2.1804   2.2307
     2.2550   2.2734   2.2883   2.3292   2.3744   2.4467   2.5621   3.0571
     3.1153   3.4150   3.4290   3.6863   3.7178   3.7657   3.7984   3.9748
     4.1413   4.3885   4.4324   4.5261   4.8717   4.9548   4.9983   5.0212
     5.1500   5.2670   5.3347   5.4124   5.6629   5.7792   5.8540   6.1932
     6.4494   6.5021   6.5724

     the Fermi energy is     2.0423 ev

!    total energy              =  -27818.61523904 Ry

     total all-electron energy =  -1326878.672925 Ry
     estimated scf accuracy    <       0.00000030 Ry
     smearing contrib. (-TS)   =       0.00294796 Ry
     internal energy E=F+TS    =  -27818.61818699 Ry

     The total energy is F=E-TS. E is the sum of the following terms:
     one-electron contribution =  -27717.37783860 Ry
     hartree contribution      =   14165.65202362 Ry
     xc contribution           =    -909.00581553 Ry
     ewald contribution        =   12135.71547340 Ry
     one-center paw contrib.   =  -25493.60202989 Ry

     convergence has been achieved in  20 iterations

     negative rho (up, down):  1.251E-02 0.000E+00

     Forces acting on atoms (cartesian axes, Ry/au):

     atom    1 type  1   force =    -0.00162629   -0.00008709   -0.00562728
     atom    2 type  1   force =     0.00164131   -0.00003533   -0.00558042
     atom    3 type  1   force =     0.00002295   -0.00013649   -0.00426295
     atom    4 type  1   force =     0.00001227   -0.00079194   -0.00278058
     atom    5 type  1   force =    -0.00036518   -0.00033931   -0.00291849
     atom    6 type  1   force =     0.00043567   -0.00032896   -0.00291730
     atom    7 type  1   force =     0.00003120    0.00082697   -0.00370903
     atom    8 type  1   force =    -0.00001844    0.00065183   -0.00379427
     atom    9 type  1   force =     0.00003912    0.00082069   -0.00372894
     atom   10 type  1   force =    -0.00005086    0.00316143    0.00026611
     atom   11 type  1   force =    -0.00238317    0.00259287    0.00525475
     atom   12 type  1   force =     0.00240438    0.00262650    0.00531501
     atom   13 type  1   force =    -0.00009010   -0.00345714    0.00977996
     atom   14 type  1   force =     0.00001156   -0.00076944    0.00913473
     atom   15 type  1   force =     0.00008864   -0.00349761    0.00977894
     atom   16 type  1   force =     0.00042480   -0.00011468   -0.00258473
     atom   17 type  1   force =    -0.00046556   -0.00023858   -0.00257240
     atom   18 type  1   force =     0.00000336   -0.00081297    0.00003272
     atom   19 type  1   force =    -0.00004265   -0.00016134   -0.00018212
     atom   20 type  1   force =    -0.00005683   -0.00026542   -0.00001004
     atom   21 type  1   force =    -0.00001310   -0.00021344   -0.00019994
     atom   22 type  1   force =    -0.00008067    0.00031428    0.00013683
     atom   23 type  1   force =     0.00004618    0.00033593    0.00029284
     atom   24 type  1   force =    -0.00010719    0.00050011    0.00037112
     atom   25 type  1   force =    -0.00020864    0.00020540    0.00022534
     atom   26 type  1   force =    -0.00001367   -0.00045293   -0.00005304
     atom   27 type  1   force =     0.00010414    0.00021703    0.00024625
     atom   28 type  1   force =     0.00000627   -0.00002067   -0.00015799
     atom   29 type  1   force =    -0.00029557   -0.00018075   -0.00023023
     atom   30 type  1   force =     0.00007849    0.00000739   -0.00007620
     atom   31 type  1   force =    -0.00000155    0.00002368   -0.00018227
     atom   32 type  1   force =     0.00004678   -0.00002049    0.00023132
     atom   33 type  1   force =    -0.00021607   -0.00008314    0.00028923
     atom   34 type  1   force =     0.00012534    0.00026104   -0.00017592
     atom   35 type  1   force =    -0.00013322    0.00010809   -0.00025504
     atom   36 type  1   force =    -0.00013114    0.00053916   -0.00000124
     atom   37 type  2   force =     0.00198715    0.00058152    0.00158126
     atom   38 type  2   force =     0.00016838   -0.00005110    0.00085009
     atom   39 type  2   force =     0.00396273   -0.00171385    0.00402436
     atom   40 type  3   force =     0.00014643    0.00029796    0.00007512
     atom   41 type  3   force =    -0.00026571    0.00033416   -0.00019314
     atom   42 type  3   force =     0.00015009   -0.00009658   -0.00042336
     atom   43 type  3   force =     0.00028018   -0.00030270    0.00070349
     atom   44 type  3   force =    -0.00038231   -0.00000249   -0.00058719
     atom   45 type  3   force =    -0.00526948   -0.00023160   -0.00538535

     Total force =     0.010162     Total SCF correction =     0.000699

     negative rho (up, down):  1.251E-02 0.000E+00

     negative rho (up, down):  1.251E-02 0.000E+00

     negative rho (up, down):  1.251E-02 0.000E+00

     negative rho (up, down):  1.251E-02 0.000E+00

     negative rho (up, down):  1.251E-02 0.000E+00

     negative rho (up, down):  1.251E-02 0.000E+00

     negative rho (up, down):  1.251E-02 0.000E+00

     negative rho (up, down):  1.251E-02 0.000E+00

     negative rho (up, down):  1.251E-02 0.000E+00

     negative rho (up, down):  1.251E-02 0.000E+00

     negative rho (up, down):  1.251E-02 0.000E+00

     negative rho (up, down):  1.251E-02 0.000E+00

     negative rho (up, down):  1.251E-02 0.000E+00

     negative rho (up, down):  1.251E-02 0.000E+00

     negative rho (up, down):  1.251E-02 0.000E+00

     negative rho (up, down):  1.251E-02 0.000E+00

     negative rho (up, down):  1.251E-02 0.000E+00

     negative rho (up, down):  1.251E-02 0.000E+00

     negative rho (up, down):  1.251E-02 0.000E+00

     negative rho (up, down):  1.251E-02 0.000E+00

     negative rho (up, down):  1.251E-02 0.000E+00

     negative rho (up, down):  1.251E-02 0.000E+00

     negative rho (up, down):  1.251E-02 0.000E+00

     negative rho (up, down):  1.251E-02 0.000E+00

     negative rho (up, down):  1.251E-02 0.000E+00

     negative rho (up, down):  1.251E-02 0.000E+00

     negative rho (up, down):  1.251E-02 0.000E+00

     negative rho (up, down):  1.251E-02 0.000E+00

     negative rho (up, down):  1.251E-02 0.000E+00

     negative rho (up, down):  1.251E-02 0.000E+00

     negative rho (up, down):  1.251E-02 0.000E+00

     negative rho (up, down):  1.251E-02 0.000E+00

     negative rho (up, down):  1.251E-02 0.000E+00

     negative rho (up, down):  1.251E-02 0.000E+00
 BEEFens 2000 ensemble energies
             -0.608783513346574E+02
             -0.362160660622555E+01
             -0.158632145004174E+02
              0.430845841272179E+02
             -0.221806286945407E+02
             -0.205606784504636E+02
             -0.353792260319775E+02
             -0.867932505304837E+02
             -0.465532260778683E+02
             -0.473427832524131E+02
             -0.370501749788557E+02
              0.230529788552522E+01
              0.408551706307640E+01
              0.757817223936337E+01
              0.266731192045108E+01
              0.476408178667045E+02
             -0.209157150839599E+02
             -0.230014269332742E+02
              0.193990197422204E+02
             -0.112697904131802E+03
              0.537956755913492E+02
             -0.290350196317481E+02
             -0.337256488880894E+01
             -0.114272694458364E+02
             -0.879677226803051E+01
             -0.461101186649017E+01
              0.885196747407269E+02
             -0.188465390844951E+02
             -0.900126281178109E+01
             -0.520176541814854E+02
              0.816962619283051E+02
             -0.186864259750635E+02
             -0.376180862043116E+02
              0.249388982136133E+02
             -0.285704164539322E+01
              0.165384791626321E+02
             -0.483430184658096E+01
              0.107803368874714E+02
              0.290110901837884E+02
             -0.103520779006931E+03
              0.560134046948721E+02
              0.142822396873966E+02
             -0.179668404327248E+01
             -0.362055263436586E+02
              0.123672030538116E+02
             -0.147668481730501E+02
              0.400112875375410E+02
              0.365654358449244E+02
             -0.308302686910982E+02
             -0.276026273041485E+02
             -0.329642574074513E+02
             -0.353371805951917E+02
              0.137485711346968E+02
             -0.492287131967220E+02
              0.116196802686972E+02
              0.624794825964383E+02
              0.637908377794683E+02
              0.356737066173812E+02
              0.154259734390942E+02
              0.271771537995960E+02
              0.894305134652149E+02
              0.212619458476477E+02
             -0.550116714936387E+02
             -0.157084175646495E+02
             -0.236925555208546E+02
              0.631530823608234E+02
             -0.774945369534555E+02
             -0.673571746396773E+02
             -0.260954635365820E+02
             -0.658023211473380E+01
             -0.471398252813710E+02
              0.271517833985664E+02
              0.804980070328907E+01
              0.872632699956188E+01
             -0.398528869753365E+02
             -0.347949333904040E+02
             -0.543856911496988E+02
              0.391020470968550E+02
             -0.297234786334009E+02
              0.266569247349368E+02
             -0.720447083281072E+01
             -0.318654127704860E+02
             -0.577197658626396E+02
             -0.177024546120432E+02
             -0.910293236431767E+01
             -0.124801350860631E+02
              0.413393334625853E+02
              0.685552289937196E+02
             -0.386938920123577E+02
             -0.796743834188568E+02
             -0.220023356901367E+02
              0.111794332305132E+03
             -0.594369402477040E+02
              0.357065386906570E+02
             -0.961535631533843E+01
             -0.664481560473781E+02
              0.254959493974896E+02
              0.398449136239265E+02
             -0.199529475427426E+02
              0.400963589290045E+02
             -0.296460330484854E+02
             -0.480378958876810E+02
              0.869305485392389E+02
              0.455181578920262E+02
              0.336735582448048E+02
              0.146747545284341E+02
              0.206713241434356E+02
              0.858683318452195E+02
             -0.257418732881512E+02
              0.789257702573396E+01
             -0.142763575693362E+03
              0.181322142224251E+02
             -0.718028574568297E+02
              0.151394986132011E+02
              0.205288162312796E+02
             -0.334102215721841E+02
             -0.558533487078702E+02
              0.652230072302427E+01
             -0.305245533882359E+02
              0.309465319309564E+02
             -0.531208164554419E+02
              0.166561295900351E+01
             -0.357980412868403E+02
             -0.424066222780175E+01
             -0.998110543145913E+00
              0.182456084383720E+02
              0.143839060464086E+01
             -0.651135760766533E+01
              0.592666570930552E+02
              0.911000603204328E+02
              0.485781756656414E+02
              0.831610905879101E+02
             -0.115285474256281E+02
              0.143259745499703E+02
              0.542422542677130E+02
             -0.110224856721882E+02
             -0.738088212915197E+02
             -0.385851518917834E+02
             -0.523337422194858E+02
             -0.277503072553505E+02
              0.328083768275742E+02
             -0.117132348763310E+03
             -0.187729302255176E+02
              0.415552741475597E+02
             -0.387301781067778E+02
             -0.366246240648784E+02
              0.546276230360315E+02
              0.401932740325545E+02
             -0.354914387659852E+02
              0.139254197156469E+02
             -0.274184133727774E+02
              0.344236391056173E+02
              0.443894174516686E+01
              0.210994709622821E+02
             -0.887017017068263E+02
             -0.481265572299089E+02
             -0.998269165537829E+01
              0.317943895369371E+01
             -0.368004752953480E+02
              0.106363140508822E+03
             -0.231008383499313E+02
             -0.399459672295225E+02
              0.389704724436228E+02
             -0.495277243231215E+02
             -0.364678228500420E+02
              0.325784484073274E+02
              0.125026650842377E+02
              0.164950747565447E+02
              0.117390458388326E+02
             -0.133163675258983E+02
              0.225172284267178E+02
              0.591448692641016E+02
             -0.312085437198452E+02
              0.163010901995938E+02
              0.937003544921128E+02
              0.341849322577288E+02
             -0.728650257896800E+01
             -0.189558802604812E+02
              0.153801130891302E+03
             -0.165155214583237E+02
              0.364597432965620E+02
              0.195602708909317E+02
              0.361893186427669E+02
              0.894440486354414E+02
              0.544210113573092E+02
             -0.239549441312015E+01
              0.228749316440136E+02
              0.486724922109818E+02
              0.364574607524677E+02
             -0.527396268880027E+02
              0.938720923208368E+02
             -0.828145776496506E+02
             -0.198122249060309E+02
              0.584178948172189E+02
              0.687020328666056E+01
              0.791630775070155E+01
              0.341225322216748E+02
              0.299612784552074E+02
              0.354513548653573E+02
             -0.639283759637168E+02
              0.286661206344581E+01
             -0.298285971889861E+02
             -0.869299176321698E+01
             -0.148580769577984E+01
             -0.730627089048601E+01
             -0.417407162862833E+01
              0.861670931722967E+02
             -0.101071103593159E+02
             -0.277071293837760E+02
             -0.495947973580407E+01
              0.140439632699948E+02
             -0.565949941344932E+02
             -0.409431501634136E+02
             -0.382860365610964E+02
             -0.632344218779259E+02
             -0.170341577890758E+02
             -0.448646655510249E+02
              0.163701010301782E+02
             -0.237449986285422E+01
             -0.104815594936619E+02
             -0.936295773118579E+01
              0.808166677697051E+01
             -0.242506593619040E+02
              0.691388321805134E+02
             -0.810030272999787E+02
             -0.141498361871348E+02
             -0.174124959933259E+02
              0.182145688102106E+02
              0.215685598925940E+02
             -0.465274373233267E+02
             -0.202163642234622E+02
              0.442196916617430E+02
             -0.276499114692769E+02
              0.187674874126744E+02
              0.383467691652523E+02
             -0.324135335858864E+01
              0.114464451629148E+03
             -0.229859623654636E+02
             -0.341854504612139E+02
              0.576296739079987E+01
             -0.229264486699084E+02
              0.529208371434464E+02
             -0.339001289169415E+02
              0.107064805491857E+02
              0.641528122428111E+02
             -0.126456175858649E+02
              0.120592662096585E+03
              0.126244451350646E+03
             -0.651944167236090E+02
              0.592445409095736E+02
              0.167507912996513E+02
             -0.519511706088581E+02
              0.216338781667368E+02
              0.355767993637308E+02
              0.364330342146686E+02
              0.134219865115023E+01
              0.160627064785504E+02
              0.698233317415579E+02
             -0.247661971183119E+02
              0.181563918646550E+02
              0.740452159518921E+02
             -0.373312738662129E+02
             -0.130838603570020E+02
              0.510678628515790E+02
              0.298392858045410E+02
              0.782261700016476E+02
              0.223924660971362E+02
              0.632369471715594E+01
              0.280980660962595E+02
              0.384621244658932E+02
             -0.473980580776756E+02
              0.336968912700644E+01
              0.131312786699601E+02
              0.114353203326153E+02
              0.221387021034056E+02
             -0.576912535394823E+02
              0.366850614564227E+02
             -0.445042794361325E+02
             -0.348583739633226E+02
              0.179066557321036E+02
             -0.181315090270269E+02
              0.557283668416406E+02
             -0.255946194523523E+02
              0.267791833653951E+02
              0.369067881989486E+02
              0.831392330292665E+02
              0.576127063953729E+02
              0.463240328282618E+02
             -0.104887745812298E+02
             -0.397550877358105E+01
             -0.332968691873789E+02
              0.753327765542001E+02
              0.799506670972125E+02
              0.363251862056068E+02
             -0.193003193592036E+02
              0.513242368552392E+02
             -0.162386366694812E+02
              0.214812757219380E+02
              0.616635230287029E+02
              0.213887175581027E+01
             -0.104563787331597E+02
             -0.283183530841540E+02
             -0.514102059517666E+02
              0.948387136788739E+02
              0.441796416456933E+02
             -0.561379004154045E+02
             -0.971768820022567E+01
              0.250272929680641E+02
             -0.997173217685503E+01
              0.594124364984976E+02
              0.152528783721469E+02
              0.801569272076822E+02
              0.280893661540041E+02
             -0.264197879909613E+02
              0.249217529960363E+02
             -0.503713805118241E+01
             -0.323969536720932E+02
              0.133524656888258E+02
              0.205833821642134E+02
              0.936026748105378E+02
              0.799541314566893E+02
              0.552850316295353E+02
              0.732337926584000E+02
              0.804120879559710E+01
             -0.274534073920347E+02
              0.163610998286801E+02
             -0.368707435963549E+02
             -0.478329658613370E+02
             -0.565012445752895E+02
             -0.267558436455628E+02
             -0.110003030805988E+03
             -0.292862554892311E+02
             -0.840035452254469E+02
              0.211016822737186E+02
             -0.478251405633867E+02
              0.398602175443538E+02
             -0.944681059235718E+02
             -0.331119648230551E+02
              0.549008981177826E+02
              0.208299423297567E+02
             -0.833721294537288E+02
              0.632226355870883E+02
             -0.257790381194866E+02
              0.513968781579255E+02
             -0.242793083564891E+02
             -0.753698812342421E+02
              0.112162288763639E+02
             -0.613202543766965E+02
             -0.167677826878927E+02
             -0.151312487668509E+01
              0.419105774198892E+02
              0.127390512662008E+03
             -0.462788482160519E+02
             -0.363670299037685E+02
             -0.100259214699287E+01
             -0.130258165119916E+02
             -0.825028248185754E+02
             -0.598213639877652E+02
              0.518504371139875E+02
             -0.289136463265003E+02
              0.170424578876380E+02
             -0.490655986356004E+02
             -0.132503486983796E+02
             -0.438359987003834E+02
              0.567035348553359E+02
              0.150899825349350E+02
             -0.232490346741670E+02
             -0.127762022883804E+02
              0.672977356840266E+01
             -0.618986355579233E+01
              0.442594335454444E+02
             -0.252606031840960E+02
              0.285422672014181E+01
              0.340687939545605E+02
              0.171259328310176E+02
             -0.160870117086419E+02
              0.156717810250499E+03
              0.540201681885693E+02
              0.121385927308437E+01
              0.161633887737144E+02
             -0.616663783542490E+02
              0.316150667852616E+02
             -0.724288603267800E+02
             -0.253297979456836E+02
             -0.524566967272783E+02
             -0.220783129762741E+02
              0.571340453621497E+02
             -0.538782679628438E+02
              0.162064871871758E+02
             -0.413126730016950E+01
              0.386060301646037E+01
             -0.434592677391655E+02
             -0.479599636182094E+02
             -0.407257561957181E+01
             -0.425253058010809E+02
             -0.217596866654363E+02
             -0.439769979995491E+02
             -0.119348297645547E+02
             -0.359862799102384E+02
             -0.517885391525732E+02
              0.212966920550667E+02
             -0.209170793755485E+02
              0.188756322727886E+02
              0.975916399368688E+01
             -0.740483920087708E+02
             -0.549410338594853E+02
             -0.400242262985631E+02
              0.354730420040146E+02
              0.265953595679031E+01
             -0.628066414565061E+02
              0.587711799887537E+02
             -0.402462552426463E+02
              0.547103400068896E+02
             -0.290705924846130E+02
             -0.447239731173491E+02
              0.298785062756108E+02
             -0.659826819117366E+02
             -0.380700000199878E+02
              0.674100255262395E+02
              0.204781606228370E+02
             -0.361987773770685E+02
              0.491218954114757E+02
             -0.174582166502823E+02
             -0.324168890849666E+02
             -0.302496550476182E+02
             -0.502268263855805E+02
              0.250572625080961E+02
             -0.935799094000384E+02
             -0.842186643040321E+02
             -0.738597660258802E+01
             -0.307808371213754E+02
             -0.577576745168173E+02
              0.724131340890614E+02
              0.131962486738103E+03
             -0.361194732484780E+02
             -0.258786205036415E+01
             -0.638609383568340E+02
              0.652744990266190E+02
              0.171384403972978E+02
             -0.182607156070061E+02
             -0.411046308160826E+02
              0.148987527256340E+02
             -0.587697715199983E+02
             -0.198222892265937E+02
             -0.906879617346529E+02
              0.338106482749516E+02
              0.168953777286770E+02
              0.182303424913960E+01
             -0.713998420334428E+01
             -0.331293219167687E+02
             -0.765179100187555E+01
              0.125968908270654E+03
             -0.199513421909932E+02
             -0.439299193533586E+02
             -0.686233300942461E+02
              0.109876702658888E+02
             -0.343603123952564E+02
              0.596630546585017E+01
              0.262559235345516E+02
              0.102434991440167E+02
              0.279153739580780E+02
              0.120658649761934E+02
              0.631447107464106E+02
              0.317255841892303E+02
             -0.327958187542112E+02
              0.357982359325421E+02
              0.380424004122860E+02
              0.121178107477482E+02
              0.488017089368243E+02
             -0.226222275562460E+02
              0.767748459363939E+02
              0.173411543800738E+02
             -0.273292873993109E+02
             -0.724582380494712E+01
             -0.187072111735741E+02
              0.262153601844471E+02
             -0.234923789344497E+02
             -0.200558466627399E+00
             -0.852706166419114E+01
              0.812273974058870E+02
              0.501828698298524E+02
             -0.688379378527956E+02
             -0.480595109084967E+01
             -0.556551673572407E+02
             -0.159625898555938E+02
             -0.268884560080587E+02
              0.379873439378002E+01
              0.605155681696637E+00
             -0.258599444614364E+02
              0.822081238943645E+01
             -0.605892114377684E+01
             -0.128428769870320E+02
              0.861637947164813E+02
              0.182085726314739E+02
             -0.810078160218098E+02
             -0.459392761744190E+02
              0.948341360857846E+02
              0.278640742471954E+02
             -0.107097604246209E+02
              0.104900213977644E+03
             -0.194873773724100E+02
             -0.123244114208500E+02
             -0.544660797718859E+01
              0.107916461301729E+02
              0.273895829281115E+02
              0.780490508751004E+01
              0.306184766365195E+02
             -0.188159193127522E+02
             -0.305479181701953E+02
             -0.419372622472508E+02
             -0.478187563431109E+02
              0.465121885594433E+02
              0.127163579332464E+02
              0.388783538429520E+02
              0.133974655210541E+02
              0.858526551053969E+02
              0.157129425584973E+02
             -0.848637680805811E+02
             -0.335436556677022E+02
              0.133465219069414E+02
             -0.303538695516887E+02
              0.628593162966730E+02
             -0.890744406563681E+01
              0.149139652579927E+02
              0.499013815819436E+02
             -0.709935954532360E+02
              0.150171219019759E+03
              0.209330913382073E+02
              0.272071456437842E+02
              0.348908812535515E+02
              0.103556857368245E+02
             -0.155857062308212E+01
              0.359129556105431E+02
             -0.358402848066769E+02
              0.776296739399375E+02
              0.687497949940235E+02
             -0.407330882770249E+02
              0.149888157398480E+02
              0.672414399294333E+02
             -0.224399105195091E+02
              0.155249886078501E+02
              0.435694202381672E+02
              0.423237926323103E+02
             -0.787016481752493E+02
             -0.152745874203284E+02
             -0.356546399893889E+02
             -0.149415915472707E+01
             -0.768896488971490E+01
             -0.536754305154648E+01
             -0.180670355390526E+02
             -0.295056834961042E+02
              0.642954683140205E+01
              0.111773678479765E+02
              0.537255066015740E+02
             -0.391959744057074E+02
              0.376418362108944E+02
              0.440169962494310E+02
             -0.186288170564369E+02
              0.874248234696515E+02
             -0.700044507159226E+02
             -0.103509362689171E+03
             -0.665837507383798E+01
             -0.271293227801004E+01
              0.383654144932984E+01
              0.792289249202250E+02
             -0.106903037568574E+02
              0.418194612973426E+02
              0.445738477163204E+02
              0.386505424256555E+02
             -0.999717147112619E+01
              0.628911879092169E+02
             -0.134224979215660E+02
             -0.308784597415432E+02
             -0.479903035660995E+02
              0.593203474469901E+01
              0.370003040286558E+02
             -0.601984545719006E+01
              0.393635587119221E+02
             -0.176738763839126E+01
              0.656734395367826E+02
              0.187529898113971E+02
              0.100260280062125E+02
             -0.121515976727918E+02
              0.332945330014221E+02
              0.363927380280184E+02
              0.232930948522019E+02
             -0.519555063050973E+00
             -0.552304959779483E+02
              0.261854294692164E+02
              0.175884216255098E+02
              0.403246930456955E+02
              0.273053321855831E+02
              0.373738015408733E+02
             -0.606891429430979E+01
              0.252519484794162E+02
             -0.299738934894885E+02
             -0.197347080647512E+01
             -0.570698156876418E+02
             -0.308957030963858E+02
              0.379994409835026E+02
             -0.938311540493785E+02
              0.294978754303144E+02
              0.184377523056975E+02
              0.843187019916773E+02
             -0.300189557195149E+02
              0.330723710581367E+02
             -0.138089206804807E+02
             -0.465677055541786E+02
             -0.763191030654281E+02
             -0.534935276915394E+01
             -0.862873026353458E+02
              0.199675636897749E+02
             -0.248083113116762E+02
              0.307015506581196E+02
              0.238176936711187E+02
             -0.242303494684288E+02
             -0.266623126788826E+02
              0.392229637495031E+02
             -0.590374178532283E+02
             -0.117372191183908E+02
             -0.196633119872751E+02
              0.213712597809704E+02
             -0.883576219375647E+01
              0.364137300865340E+01
             -0.200917935161797E+02
              0.560543221183050E+02
             -0.442145081108210E+02
              0.788033575627219E+01
              0.587513529606327E+02
             -0.324759859181804E+02
              0.363409562941547E+01
             -0.878204246419739E+01
             -0.671116384199724E+02
             -0.483154036579266E+02
             -0.859375900166240E+01
              0.241970577077923E+02
              0.303718313220980E+02
              0.860866077145147E+01
             -0.421190762594358E+01
              0.152173194198213E+02
             -0.440783004064821E+02
              0.330077360608112E+01
             -0.532715643558574E+02
             -0.325834732427243E+02
              0.476543200128812E+02
             -0.296123321605521E+02
              0.625012273635912E+02
             -0.215709614589809E+02
              0.354404132864453E+02
              0.242566227364447E+02
             -0.646033026245616E+02
             -0.280878054081731E+02
              0.937499626602170E+01
             -0.373617406239026E+02
             -0.340782890902015E+02
             -0.833187249928176E+02
             -0.540861406201476E+02
             -0.512050774068391E+02
             -0.417024111261586E+02
             -0.993270327773928E+00
              0.100652807580166E+02
              0.112688244950274E+01
              0.154499568565711E+02
             -0.551222406288620E+02
              0.142496431148232E+02
              0.258205411997638E+02
             -0.668809366177804E+02
             -0.703634577005484E+02
             -0.432829946065449E+02
             -0.173474235919506E+02
              0.178747611589672E+02
              0.453694041601136E+01
             -0.426816774891409E+02
              0.366759187845614E+02
             -0.217089465834980E+02
              0.519019282487992E+02
             -0.890207791600710E+02
              0.600309370341317E+02
             -0.222057152712829E+01
             -0.369854899837227E+02
             -0.217070763224603E+02
              0.471628968258767E+01
              0.376286693559271E+02
             -0.758453849468609E+02
             -0.121101729798925E+02
             -0.217294365452638E+02
              0.512150686551945E+02
              0.867492636976270E+02
             -0.968769626021100E+02
              0.946795838527700E+02
              0.468483775907323E+02
             -0.727816610233437E+02
             -0.367309783370556E+02
              0.754537233605135E+02
              0.633707428132269E+02
             -0.181956215687889E+02
             -0.464917539424147E+01
              0.739310362801471E+01
              0.651804603169062E+02
             -0.510492738563917E+02
              0.158560006976074E+02
             -0.476745074322645E+01
              0.348144745888139E+02
             -0.749258749123151E+02
             -0.647137363297342E+01
             -0.351575834562641E+02
              0.462218790763355E+02
              0.469842550359243E+02
             -0.865069293005790E+02
             -0.488595003999414E+02
[...]
              0.283994046332569E+02
              0.142191879270336E+03
              0.243450901933596E+02
              0.123071317583914E+02
             -0.465546010895830E+02
             -0.639196292365759E+02
             -0.189348514576440E+02
              0.330671015869493E+02
             -0.429050901944743E+01
              0.191259301640764E+02
              0.337468941408591E+02
             -0.587805828566346E+02
              0.223255191541682E+02
              0.582374038469353E+02
              0.554149980406625E+02
             -0.422878002555694E+01
             -0.132429651578889E+01
             -0.994801177223255E+01
             -0.483414881728314E+02
             -0.677163734243705E+02
              0.787427856458779E+02
             -0.526584153639888E+01
             -0.589218715051182E+02
              0.177649600962198E+01
             -0.206265692304857E+02
              0.940861224513046E+02
             -0.217465836375162E+02
             -0.354887446139630E+02
              0.336628205949831E+02
             -0.146422444341746E+02
              0.390964001994232E+02
             -0.229498427164731E+01
              0.101319655003309E+03
              0.491601198973348E+02
             -0.500514107226006E+01
             -0.323294815844677E+02
              0.233201290881474E+02
             -0.530114072080821E+02
             -0.127999197205971E+02
              0.587603407718142E+02
             -0.288560694244932E+02
             -0.439472901752690E+02
             -0.224110114574588E+02
              0.520043252869980E+02
              0.124884252974447E+02
             -0.850854065501098E+02
              0.304780940351510E+02
              0.151881532563422E+02
              0.581857086683857E+01
             -0.514926708473284E+02
             -0.374690329364273E+01
              0.324060394338482E+02
              0.513618728475342E+02
              0.635004620310772E+02
              0.230198241612414E+02
              0.774370035497697E+00
             -0.499911111613429E+02
             -0.511244087968309E+02
             -0.749166549092457E+02
             -0.625140262093578E+01
              0.310023707546765E+02
             -0.375243791124038E+01
              0.548368428298891E+02
             -0.319047694311673E+02
              0.166973225508877E+02
             -0.103733320757174E+02
             -0.290409062235020E+02
              0.587420379448772E+02
              0.792989564309107E+01
              0.606439058835336E+02
              0.509434525862378E+01
              0.265379987268596E+02
             -0.193208201425807E+02
              0.587723840571815E+02
             -0.112344969599629E+02
             -0.103058656688496E+00
             -0.792400200204274E+02
             -0.128384553001471E+02
              0.720828187034306E+02
              0.674546411915701E+02
              0.253018756991025E+02
             -0.130935665994158E+02
              0.349745418656681E+01
             -0.174543219525528E+02
             -0.217698756235151E+01
              0.910688590856692E+02
              0.129810282326059E+01
             -0.191574552296798E+02
             -0.111033904327600E+03
             -0.553192103428186E+02
             -0.376172488139431E+02
             -0.660020331359714E+02
             -0.557396090064698E+02
             -0.684287357292254E+02
             -0.448515547498644E+02
             -0.411434139270793E+02
             -0.453406441399723E+02
              0.484728186121374E+02
             -0.294229822049658E+02
             -0.996541825723434E+02
              0.419912374049860E+02
             -0.261199154358285E+02
             -0.793135740577627E+02
              0.946550107433632E+02
             -0.220656157215918E+02
              0.228265440674052E+02
              0.455801801124749E+02
             -0.125051738769002E+01
              0.255465228846738E+02
              0.469620395836981E+01
              0.423556696264420E+00
             -0.151217653227951E+02
             -0.718104838349558E+02
              0.133397079780227E+02
             -0.129681620499393E+03
              0.626787002680408E+02
             -0.441881889772952E+02
             -0.163826434709893E+02
             -0.158972393570687E+02
              0.724196695537845E+01
             -0.227976890376976E+02
              0.297559627186209E+02
             -0.522378447439480E+02
              0.367906789700944E+02
              0.372414399503443E+02
              0.168186723797319E+02
              0.100980410501921E+02
              0.198472884767246E+02
              0.627465765361109E+01
              0.310842844682929E+02
             -0.797441633196743E+01
             -0.595216198128373E+02
              0.759669995447047E+01
             -0.153719948300431E+02
             -0.194929303159205E+01
              0.508344521704951E+02
             -0.828911188801451E+02
             -0.146186371731966E+01
              0.601023832352951E+00
              0.998797589874596E+01
              0.319251939060617E+02
             -0.123917079769384E+02
              0.838087113218778E+02
              0.488003798673969E+02
             -0.183316054292518E+02
             -0.954118383142298E+01
              0.108586830557348E+01
              0.771551365203984E+02
             -0.587441065787408E+02
             -0.106027237155655E+03
              0.310084575034210E+02
             -0.163696227976493E+02
             -0.140104345074179E+02
              0.131254332233019E+02
              0.770425191786752E+02
              0.465157757934293E+02
             -0.153844002187152E+02
             -0.504807806833844E+02
             -0.555303430701792E+01
              0.307153785170281E+02
             -0.112206335550007E+02
             -0.758037209340821E+02
             -0.277738513001171E+01
             -0.893075491682840E+02
             -0.477277569917418E+02
              0.771534102965491E+02
             -0.485203059620640E+02
             -0.638750761154512E+02
             -0.515707492882297E+02
             -0.351095717984021E+02
              0.342048964194240E+02
              0.824076111968597E+02
             -0.364030447199326E+01
              0.277352266569046E+02
             -0.184573770176311E+02
             -0.696123993146637E+02
              0.466534603195546E+02
             -0.446617857741187E+02
              0.322057190346993E+02
              0.376708456447743E+02
             -0.661210709764612E+01
              0.390967224247725E+02
              0.439105098743302E+02
              0.101078671482854E+03
             -0.155899575489258E+02
             -0.458489301874344E+02
             -0.614701770339705E+02
             -0.124791542284129E+02
             -0.234580506733846E+02
              0.103234152160835E+03
             -0.450323445076199E+02
              0.105506835499499E+02
              0.969611455236685E+01
             -0.265020704162439E+02
             -0.801759205703406E+02
             -0.700761841843024E+01
              0.982789866650098E+02
              0.948197372577425E+01
              0.808887233236896E+01
             -0.529292016060538E+02
             -0.607082481270995E+02
             -0.572258098014225E+01
              0.501807609149380E+02
             -0.222720835687465E+02
              0.108244208984831E+03
             -0.437426589591616E+02
              0.146941510836304E+02
             -0.224012003051306E+02
             -0.720309121846514E+02
              0.171454541217827E+01
             -0.503383405378222E+02
             -0.762733969039925E+02
              0.622520355090830E+01
              0.237717464320781E+01
              0.515609308499209E+02
              0.188157885351863E+02
             -0.324773285587058E+02
              0.230406642431175E+02
             -0.814068362165614E+02
             -0.522856542354837E+02
              0.904313470790028E+02
              0.142049632446178E+02
             -0.187789193114306E+02
             -0.352793977639128E+02
             -0.271219117886471E+01
             -0.592657023680351E+01
              0.833266828459311E+02
              0.419025610722351E+02
             -0.165920753408560E+02
             -0.121348011183668E+02
             -0.428362099955519E+02
             -0.200537560288868E+02
             -0.671464965071676E+02
              0.461281404070820E+02
              0.548874382213037E+01
              0.144902611372038E+02
              0.157001526478431E+02
             -0.629599060414670E+00
             -0.169208745258435E+02
             -0.298104463266860E+01
             -0.100781896840865E+03
             -0.230125574436498E+02
             -0.771219549706143E+01
             -0.949658964483646E+01
              0.547321016552525E+02
              0.626014651189914E+02
              0.165449774904405E+02
             -0.973200456479389E+02
              0.649304223031271E+02
             -0.215598793155580E+02
             -0.378122102473323E+02
             -0.866726178368116E+02
             -0.387202101761700E+02
              0.566889257503901E+02
              0.245460615768288E+02
              0.517851534608349E+01
              0.293406073423408E+02
             -0.566468064958977E+02
             -0.423915732888932E+02
              0.517224694078504E+02
              0.388343328153799E+02
              0.520037281371842E+02
             -0.111310218634412E+01
              0.690554301070290E+01
              0.570936306713583E+02
              0.965397878050740E+02
             -0.300400575725281E+02
              0.324317521249607E+02
             -0.120364105666089E+02
             -0.413300954540970E+02
             -0.315550090532683E+02
             -0.301559422825532E+02
             -0.131843332935338E+02
             -0.524633438749643E+02
             -0.217374291797174E+02
             -0.141522832732743E+03
              0.369728124795529E+02
              0.207667884708336E+02
             -0.396444186375604E+01
             -0.381056514565871E+02
             -0.204413648084565E+02
             -0.528764658630917E+02
              0.151125137672043E+02
              0.822185707487874E+02
             -0.252617498702493E+02
             -0.163674402736470E+02
              0.238927339276887E+02
             -0.491056016733088E+02
              0.882574078610191E+02
              0.154581413152869E+02
              0.226047679644164E+02
              0.491579646523911E+02
              0.314101381411939E+01
              0.543754647989470E+02
              0.143844257756886E+02
             -0.106204231933895E+02
              0.735729058455362E+01
              0.722339974900990E+00
              0.728637474143324E+02
              0.101328487202946E+02
              0.121449596956824E+02
             -0.130426142596057E+02
              0.132551386661678E+02
             -0.913719355638775E+02
             -0.326597021649320E+02
             -0.458950176351318E+02
              0.486240913796319E+02
             -0.292225997174069E+02
             -0.659602059682045E+02
              0.540322804806816E+02
             -0.122115736925570E+02
              0.441125003965928E+02
             -0.900961851532504E+02
              0.232109125056164E+02
              0.856370352195128E+01
              0.588855058837657E+01
             -0.838423330468794E+01
             -0.906954517963197E+01
              0.480654845146921E+02
              0.198542900935951E+01
             -0.476999130375240E+02
             -0.176882205294048E+02
              0.276758453809751E+02
             -0.118237534576814E+03
             -0.931884894236339E+02
              0.395035600846859E+01
              0.118375527416798E+02
             -0.415065337755374E+02
             -0.385757964950750E+01
              0.112364815229345E+03
              0.306881958783515E+02
             -0.573026193585874E+02
              0.927192357751460E+01
             -0.967374663574336E+01
              0.106117233719797E+02
             -0.339024191698687E+02
              0.196392797600712E+02
              0.285275551491911E+02
             -0.302234860857538E+01
              0.108507069776525E+03
             -0.140059267680022E+02
             -0.316604825307206E+02
              0.144057355380544E+02
              0.467615431306051E+02
             -0.356428838907806E+02
             -0.318272122970993E+01
              0.967676698844588E+02
             -0.461552541432354E+01
              0.623245749565950E+02
              0.135862140131217E+02
             -0.901626887141292E+01
             -0.305702297891231E+02
              0.567632601347748E+02
             -0.515867088470313E+02
             -0.218496272847420E+01
             -0.170650961053928E+02
             -0.406106514859062E+02
              0.185359736451266E+02
              0.240366767818505E+02
              0.115825804198311E+02
              0.719406870559851E+00
             -0.386025262543500E+02
              0.215556193932613E+02
             -0.673771045663864E+01
             -0.246920281128644E+02
             -0.210955535048136E+02
              0.203238889884030E+02
             -0.596443072360012E+01
             -0.350330966287020E+02
             -0.106944844859984E+03
              0.103435499363370E+02
              0.248698306154909E+02
             -0.388924781386094E+02
             -0.211867219576258E+02
              0.809501197253829E+02
              0.658568120467368E+01
              0.312511823758124E+02
              0.397206833690879E+01
              0.323229965760631E+02
              0.646422609489309E+01
             -0.374097438516445E+02
             -0.242093903153932E+01
              0.877260652896445E+01
              0.274949595268407E+02
              0.783469513862102E+02
              0.508746060259862E+02
              0.197823093128477E+00
              0.169756983820658E+02
              0.615020929293400E+02
              0.236829582115246E+02
             -0.754426220097393E+02
             -0.274330964382232E+02
              0.150979555927596E+02
              0.565289301875981E+01
              0.255818358752937E+02
             -0.548963791213513E+02
              0.897851313562775E+01
              0.387462941872599E+02
              0.499262611299432E+02
             -0.436094971397711E+02
             -0.685888782139324E+01
             -0.209669698191072E+01
             -0.134343095681504E+02
             -0.365989267487686E+02
             -0.215458170444039E+02
             -0.212152282881372E+01
              0.796767640705571E+01
              0.422571014557255E+02
             -0.309279357855225E+02
              0.828458668208773E+02
              0.328417484699273E+02
              0.220761027419273E+02
              0.334280914637503E+02
              0.323447934867237E+02
              0.347652625641173E+02
              0.538711666604011E+02
             -0.435168059516632E+02
              0.621357864292382E+02
             -0.112609383743706E+03
              0.308140446911000E+02
             -0.106810960788562E+03
              0.856912200267151E+02
              0.692925832747635E+02
             -0.110091040590714E+02
             -0.494271310799652E+02
             -0.430854151096516E+02
             -0.624732078316107E+02
             -0.630775125855286E+02
              0.553491067989801E+02
              0.406726298471355E+02
              0.237501893396456E+02
              0.374069857215600E+02
              0.404951251417131E+02
             -0.383307321255138E+02
             -0.198205462711385E+02
              0.588071643467881E+02
             -0.116557666361129E+02
              0.553358814266636E+02
              0.701910884676827E+02
             -0.558666071023930E+01
             -0.708557425861924E+02
             -0.831756501034306E+00
             -0.247757616509411E+01
             -0.885935310646937E+01
             -0.180938060247479E+01
             -0.654604798168592E+02
             -0.210431588107876E+02
              0.544823627692143E+01
              0.906856814699583E+01
              0.470558797205873E+02
             -0.399231612913974E+02
              0.658096606205424E+02
             -0.426421684518335E+02
              0.211523851107269E+02
              0.351629561545680E+02
 
 BEEF-vdW xc energy contributions
           1 :   -784.725683469898     
           2 :    720.645435876823     
           3 :   -609.752919675622     
           4 :    479.298330013299     
           5 :   -356.933568367488     
           6 :    262.562955255287     
           7 :   -203.829188886504     
           8 :    176.100583054388     
           9 :   -166.549141156094     
          10 :    160.391217963624     
          11 :   -146.736964917418     
          12 :    121.836946688632     
          13 :   -88.8818665917870     
          14 :    55.0165030025792     
          15 :   -27.2920148430510     
          16 :    9.39344601900007     
          17 :  -0.404374008891409     
          18 :   -4.16676614588050     
          19 :    9.84244128199066     
          20 :   -20.4601265730394     
          21 :    36.5308509432984     
          22 :   -55.3074751191309     
          23 :    72.3522724747916     
          24 :   -83.7501790759002     
          25 :    87.8819765405196     
          26 :   -85.9842901671443     
          27 :    81.3424273118844     
          28 :   -77.6010374063455     
          29 :    77.0388865701791     
          30 :   -79.6214549222739     
          31 :   -86.1890095422086     
          32 :   -66.0076155669919     

     Writing output data file ./pwscf.save/
 
     init_run     :    317.96s CPU    322.62s WALL (       1 calls)
     electrons    :  13093.00s CPU  13230.26s WALL (       1 calls)
     forces       :    101.28s CPU    102.59s WALL (       1 calls)

     Called by init_run:
     wfcinit      :    269.01s CPU    272.64s WALL (       1 calls)
     potinit      :     45.98s CPU     46.31s WALL (       1 calls)
     hinit0       :      1.20s CPU      1.24s WALL (       1 calls)

     Called by electrons:
     c_bands      :  11000.77s CPU  11107.75s WALL (      21 calls)
     sum_band     :   1440.73s CPU   1454.07s WALL (      21 calls)
     v_of_rho     :    131.62s CPU    136.10s WALL (      21 calls)
     newd         :     30.99s CPU     43.58s WALL (      21 calls)
     PAW_pot      :    147.41s CPU    147.42s WALL (      21 calls)
     mix_rho      :    388.10s CPU    388.87s WALL (      21 calls)
     vdW_kernel   :     33.91s CPU     33.91s WALL (       1 calls)

     Called by c_bands:
     init_us_2    :     83.85s CPU     84.17s WALL (     572 calls)
     cegterg      :  10146.35s CPU  10252.96s WALL (     273 calls)

     Called by *egterg:
     cdiaghg      :    116.90s CPU    116.95s WALL (    1804 calls)
     h_psi        :   6207.35s CPU   6244.24s WALL (    1830 calls)
     s_psi        :   1156.78s CPU   1156.78s WALL (    1830 calls)
     g_psi        :     17.45s CPU     17.45s WALL (    1544 calls)

     Called by h_psi:
     h_psi:calbec :   1067.98s CPU   1068.18s WALL (    1830 calls)
     vloc_psi     :   3955.37s CPU   3956.22s WALL (    1830 calls)
     add_vuspsi   :   1155.99s CPU   1156.11s WALL (    1830 calls)

     General routines
     calbec       :   1561.36s CPU   1561.59s WALL (    2155 calls)
     fft          :     48.42s CPU     48.43s WALL (    3281 calls)
     ffts         :    121.47s CPU    121.48s WALL (    9324 calls)
     fftw         :   4101.16s CPU   4101.59s WALL (  352529 calls)
 
     Parallel routines
 
     PWSCF        :      3h47m CPU      3h50m WALL

 
   This run was terminated on:  19:17:13  20May2022            

=------------------------------------------------------------------------------=
   JOB DONE.
=------------------------------------------------------------------------------=
