
     Program PWSCF v.6.7MaX starts on 26Sep2022 at 22: 7:17 

     This program is part of the open-source Quantum ESPRESSO suite
     for quantum simulation of materials; please cite
         "P. Giannozzi et al., J. Phys.:Condens. Matter 21 395502 (2009);
         "P. Giannozzi et al., J. Phys.:Condens. Matter 29 465901 (2017);
          URL http://www.quantum-espresso.org", 
     in publications or presentations arising from this work. More details at
     http://www.quantum-espresso.org/quote

     Parallel version (MPI), running on     1 processors

     MPI processes distributed on     1 nodes
     Reading input from ch3chch2-bi-ensemble.in
Warning: card &CELL ignored
Warning: card / ignored

     Current dimensions of program PWSCF are:
     Max number of different atomic species (ntypx) = 10
     Max number of k-points (npk) =  40000
     Max angular momentum in pseudopotentials (lmaxx) =  3
     file Pt.pbe-n-kjpaw_psl.1.0.0.UPF: wavefunction(s)  6S 5D renormalized
     file C.pbe-n-kjpaw_psl.1.0.0.UPF: wavefunction(s)  2S 2P renormalized
     file H.pbe-kjpaw_psl.1.0.0.UPF: wavefunction(s)  1S renormalized

     **************************************************************************
     Initializing libbeef V0.1.2 with the BEEF-vdW functional.
     Citation: Wellendorff et al., PRB 85, 235149 (2012).
     **************************************************************************


     IMPORTANT: XC functional enforced from input :
     Exchange-correlation= BEEF-VDW
                           (   1   4  43  14   2   0   0)
     Any further DFT definition will be discarded
     Please, verify this is what you really want


     Subspace diagonalization in iterative solution of the eigenvalue problem:
     a serial algorithm will be used

 
     G-vector sticks info
     --------------------
     sticks:   dense  smooth     PW     G-vecs:    dense   smooth      PW
     Sum        4255    4255   1159               732685   732685  103185
 


     bravais-lattice index     =            0
     lattice parameter (alat)  =      16.0108  a.u.
     unit-cell volume          =   11662.4169 (a.u.)^3
     number of atoms/cell      =           45
     number of atomic types    =            3
     number of electrons       =       378.00
     number of Kohn-Sham states=          227
     kinetic-energy cutoff     =      60.0000  Ry
     charge density cutoff     =     240.0000  Ry
     scf convergence threshold =      1.0E-06
     mixing beta               =       0.7000
     number of iterations used =            8  local-TF  mixing
     Exchange-correlation= BEEF-VDW
                           (   1   4  43  14   2   0   0)

     celldm(1)=  16.010806  celldm(2)=   0.000000  celldm(3)=   0.000000
     celldm(4)=   0.000000  celldm(5)=   0.000000  celldm(6)=   0.000000

     crystal axes: (cart. coord. in units of alat)
               a(1) = (   1.000000   0.000000   0.000000 )  
               a(2) = (   0.500000   0.866025   0.000000 )  
               a(3) = (   0.000000   0.000000   3.281092 )  

     reciprocal axes: (cart. coord. in units 2 pi/alat)
               b(1) = (  1.000000 -0.577350  0.000000 )  
               b(2) = (  0.000000  1.154701  0.000000 )  
               b(3) = (  0.000000  0.000000  0.304777 )  


     PseudoPot. # 1 for Pt read from file:
     /users/bkreitz1/quantum-espresso/potentials/Pt.pbe-n-kjpaw_psl.1.0.0.UPF
     MD5 check sum: 04dc8a03c51ece93fc7b5889c2958091
     Pseudo is Projector augmented-wave + core cor, Zval = 10.0
     Generated using 'atomic' code by A. Dal Corso  v.6.7MaX
     Shape of augmentation charge: PSQ
     Using radial grid of 1277 points,  6 beta functions with: 
                l(1) =   0
                l(2) =   0
                l(3) =   1
                l(4) =   1
                l(5) =   2
                l(6) =   2
     Q(r) pseudized with 0 coefficients 


     PseudoPot. # 2 for C  read from file:
     /users/bkreitz1/quantum-espresso/potentials/C.pbe-n-kjpaw_psl.1.0.0.UPF
     MD5 check sum: a169b0ebad56f5ec0d79c4633f80bf22
     Pseudo is Projector augmented-wave + core cor, Zval =  4.0
     Generated using 'atomic' code by A. Dal Corso  v.6.7MaX
     Shape of augmentation charge: PSQ
     Using radial grid of 1073 points,  4 beta functions with: 
                l(1) =   0
                l(2) =   0
                l(3) =   1
                l(4) =   1
     Q(r) pseudized with 0 coefficients 


     PseudoPot. # 3 for H  read from file:
     /users/bkreitz1/quantum-espresso/potentials/H.pbe-kjpaw_psl.1.0.0.UPF
     MD5 check sum: ae98473e6dc62675f0d0baffdab24f65
     Pseudo is Projector augmented-wave, Zval =  1.0
     Generated using 'atomic' code by A. Dal Corso  v.6.7MaX
     Shape of augmentation charge: PSQ
     Using radial grid of  929 points,  2 beta functions with: 
                l(1) =   0
                l(2) =   0
     Q(r) pseudized with 0 coefficients 


     atomic species   valence    mass     pseudopotential
        Pt            10.00   195.08400     Pt( 1.00)
        C              4.00    12.01100     C ( 1.00)
        H              1.00     1.00800     H ( 1.00)

     No symmetry found



   Cartesian axes

     site n.     atom                  positions (alat units)
         1           Pt  tau(   1) = (   0.0000000   0.0000000   1.0032395  )
         2           Pt  tau(   2) = (   0.3333333   0.0000000   1.0032395  )
         3           Pt  tau(   3) = (   0.6666667   0.0000000   1.0032395  )
         4           Pt  tau(   4) = (   0.1666667   0.2886751   1.0032395  )
         5           Pt  tau(   5) = (   0.5000000   0.2886751   1.0032395  )
         6           Pt  tau(   6) = (   0.8333333   0.2886751   1.0032395  )
         7           Pt  tau(   7) = (   0.3333333   0.5773503   1.0032395  )
         8           Pt  tau(   8) = (   0.6666667   0.5773503   1.0032395  )
         9           Pt  tau(   9) = (   1.0000000   0.5773503   1.0032395  )
        10           Pt  tau(  10) = (   0.1666667   0.0962250   1.2754050  )
        11           Pt  tau(  11) = (   0.5000000   0.0962250   1.2754050  )
        12           Pt  tau(  12) = (   0.8333333   0.0962250   1.2754050  )
        13           Pt  tau(  13) = (   0.3333333   0.3849002   1.2754050  )
        14           Pt  tau(  14) = (   0.6666667   0.3849002   1.2754050  )
        15           Pt  tau(  15) = (   1.0000000   0.3849002   1.2754050  )
        16           Pt  tau(  16) = (   0.5000000   0.6735753   1.2754050  )
        17           Pt  tau(  17) = (   0.8333333   0.6735753   1.2754050  )
        18           Pt  tau(  18) = (   1.1666667   0.6735753   1.2754050  )
        19           Pt  tau(  19) = (  -0.0028401   0.1937330   1.5501040  )
        20           Pt  tau(  20) = (   0.3323674   0.1918670   1.5429906  )
        21           Pt  tau(  21) = (   0.6683835   0.1937877   1.5478647  )
        22           Pt  tau(  22) = (   0.1678311   0.4806615   1.5433129  )
        23           Pt  tau(  23) = (   0.5024448   0.4819933   1.5481674  )
        24           Pt  tau(  24) = (   0.8332318   0.4812619   1.5475382  )
        25           Pt  tau(  25) = (   0.3339244   0.7702292   1.5452611  )
        26           Pt  tau(  26) = (   0.6663721   0.7669026   1.5500851  )
        27           Pt  tau(  27) = (   1.0004021   0.7710457   1.5439144  )
        28           Pt  tau(  28) = (   0.0001768  -0.0002539   1.8217522  )
        29           Pt  tau(  29) = (   0.3327453  -0.0004723   1.8200091  )
        30           Pt  tau(  30) = (   0.6674292   0.0006890   1.8202015  )
        31           Pt  tau(  31) = (   0.1663781   0.2882001   1.8196207  )
        32           Pt  tau(  32) = (   0.4963307   0.2863133   1.8163340  )
        33           Pt  tau(  33) = (   0.8314923   0.2925045   1.8416912  )
        34           Pt  tau(  34) = (   0.3339300   0.5777639   1.8185741  )
        35           Pt  tau(  35) = (   0.6691998   0.5742994   1.8437088  )
        36           Pt  tau(  36) = (   1.0035832   0.5794249   1.8150460  )
        37           C   tau(  37) = (   0.5627196   0.5247341   2.1821048  )
        38           C   tau(  38) = (   0.7139083   0.5155571   2.0859297  )
        39           C   tau(  39) = (   0.7935247   0.3583479   2.0806524  )
        40           H   tau(  40) = (   0.5060421   0.6398330   2.1713641  )
        41           H   tau(  41) = (   0.4778952   0.4338695   2.1478853  )
        42           H   tau(  42) = (   0.5920773   0.5066911   2.3071471  )
        43           H   tau(  43) = (   0.7961432   0.6100308   2.1165218  )
        44           H   tau(  44) = (   0.9133913   0.3586132   2.1277266  )
        45           H   tau(  45) = (   0.7226858   0.2624790   2.1304265  )

     number of k points=    13  Marzari-Vanderbilt smearing, width (Ry)=  0.0200
                       cart. coord. in units 2pi/alat
        k(    1) = (   0.0000000   0.0000000   0.0000000), wk =   0.0800000
        k(    2) = (   0.0000000   0.2309401   0.0000000), wk =   0.1600000
        k(    3) = (   0.0000000   0.4618802   0.0000000), wk =   0.1600000
        k(    4) = (   0.2000000  -0.1154701   0.0000000), wk =   0.1600000
        k(    5) = (   0.2000000   0.1154701   0.0000000), wk =   0.1600000
        k(    6) = (   0.2000000   0.3464102   0.0000000), wk =   0.1600000
        k(    7) = (   0.2000000  -0.5773503   0.0000000), wk =   0.1600000
        k(    8) = (   0.2000000  -0.3464102   0.0000000), wk =   0.1600000
        k(    9) = (   0.4000000  -0.2309401   0.0000000), wk =   0.1600000
        k(   10) = (   0.4000000  -0.0000000   0.0000000), wk =   0.1600000
        k(   11) = (   0.4000000   0.2309401   0.0000000), wk =   0.1600000
        k(   12) = (   0.4000000  -0.6928203   0.0000000), wk =   0.1600000
        k(   13) = (   0.4000000  -0.4618802   0.0000000), wk =   0.1600000

     Dense  grid:   732685 G-vectors     FFT dimensions: (  80,  80, 270)

     Estimated max dynamical RAM per process >       8.92 GB

     Check: negative core charge=   -0.000002

     Initial potential from superposition of free atoms

     starting charge  377.99371, renormalised to  378.00000

     negative rho (up, down):  1.113E-02 0.000E+00


     %%%%%%%%%%%%%%%%%%%%%%%%%%%%%%%%%%%%%%%%%%%%%%%%%%%%%%%%%%%%%%%%%%%%%%%%
     %                                                                      %
     % You are using vdW-DF, which was implemented by the Thonhauser group. %
     % Please cite the following two papers that made this development      %
     % possible and the two reviews that describe the various versions:     %
     %                                                                      %
     %   T. Thonhauser et al., PRL 115, 136402 (2015).                      %
     %   T. Thonhauser et al., PRB 76, 125112 (2007).                       %
     %   K. Berland et al., Rep. Prog. Phys. 78, 066501 (2015).             %
     %   D.C. Langreth et al., J. Phys.: Condens. Matter 21, 084203 (2009). %
     %                                                                      %
     %                                                                      %
     % If you are calculating the stress with vdW-DF, please also cite:     %
     %                                                                      %
     %   R. Sabatini et al., J. Phys.: Condens. Matter 24, 424209 (2012).   %
     %                                                                      %
     %%%%%%%%%%%%%%%%%%%%%%%%%%%%%%%%%%%%%%%%%%%%%%%%%%%%%%%%%%%%%%%%%%%%%%%%


     Starting wfcs are  342 randomized atomic wfcs
     Checking if some PAW data can be deallocated... 

     total cpu time spent up to now is      360.8 secs

     Self-consistent Calculation

     iteration #  1     ecut=    60.00 Ry     beta= 0.70
     Davidson diagonalization with overlap
     ethr =  1.00E-02,  avg # of iterations =  2.6

     Threshold (ethr) on eigenvalues was too large:
     Diagonalizing with lowered threshold

     Davidson diagonalization with overlap
     ethr =  8.78E-04,  avg # of iterations =  2.5

     negative rho (up, down):  1.114E-02 0.000E+00

     total cpu time spent up to now is     1728.6 secs

     total energy              =  -27818.41225849 Ry
     estimated scf accuracy    <       3.57601175 Ry

     iteration #  2     ecut=    60.00 Ry     beta= 0.70
     Davidson diagonalization with overlap
     ethr =  9.46E-04,  avg # of iterations =  2.0

     negative rho (up, down):  8.968E-03 0.000E+00

     total cpu time spent up to now is     2370.4 secs

     total energy              =  -27818.53057286 Ry
     estimated scf accuracy    <       1.36668974 Ry

     iteration #  3     ecut=    60.00 Ry     beta= 0.70
     Davidson diagonalization with overlap
     ethr =  3.62E-04,  avg # of iterations =  4.8

     negative rho (up, down):  5.462E-03 0.000E+00

     total cpu time spent up to now is     3035.1 secs

     total energy              =  -27818.56145162 Ry
     estimated scf accuracy    <       0.54348886 Ry

     iteration #  4     ecut=    60.00 Ry     beta= 0.70
     Davidson diagonalization with overlap
     c_bands:  1 eigenvalues not converged
     ethr =  1.44E-04,  avg # of iterations = 11.9

     negative rho (up, down):  4.204E-03 0.000E+00

     total cpu time spent up to now is     3858.6 secs

     total energy              =  -27818.62806278 Ry
     estimated scf accuracy    <       0.32593586 Ry

     iteration #  5     ecut=    60.00 Ry     beta= 0.70
     Davidson diagonalization with overlap
     ethr =  8.62E-05,  avg # of iterations =  2.0

     negative rho (up, down):  2.593E-03 0.000E+00

     total cpu time spent up to now is     4493.6 secs

     total energy              =  -27818.63260324 Ry
     estimated scf accuracy    <       0.05314009 Ry

     iteration #  6     ecut=    60.00 Ry     beta= 0.70
     Davidson diagonalization with overlap
     c_bands:  1 eigenvalues not converged
     c_bands:  2 eigenvalues not converged
     c_bands:  2 eigenvalues not converged
     c_bands:  1 eigenvalues not converged
     c_bands:  2 eigenvalues not converged
     ethr =  1.41E-05,  avg # of iterations = 13.9

     negative rho (up, down):  2.115E-03 0.000E+00

     total cpu time spent up to now is     5505.7 secs

     total energy              =  -27818.64462446 Ry
     estimated scf accuracy    <       0.02697033 Ry

     iteration #  7     ecut=    60.00 Ry     beta= 0.70
     Davidson diagonalization with overlap
     ethr =  7.14E-06,  avg # of iterations =  8.5

     negative rho (up, down):  2.076E-03 0.000E+00

     total cpu time spent up to now is     6211.2 secs

     total energy              =  -27818.64577481 Ry
     estimated scf accuracy    <       0.01725543 Ry

     iteration #  8     ecut=    60.00 Ry     beta= 0.70
     Davidson diagonalization with overlap
     c_bands:  2 eigenvalues not converged
     c_bands:  1 eigenvalues not converged
     ethr =  4.56E-06,  avg # of iterations = 12.8

     negative rho (up, down):  2.542E-03 0.000E+00

     total cpu time spent up to now is     6966.3 secs

     total energy              =  -27818.64647597 Ry
     estimated scf accuracy    <       0.00887401 Ry

     iteration #  9     ecut=    60.00 Ry     beta= 0.70
     Davidson diagonalization with overlap
     c_bands:  1 eigenvalues not converged
     ethr =  2.35E-06,  avg # of iterations = 12.9

     negative rho (up, down):  4.524E-03 0.000E+00

     total cpu time spent up to now is     7731.5 secs

     total energy              =  -27818.64686546 Ry
     estimated scf accuracy    <       0.00289109 Ry

     iteration # 10     ecut=    60.00 Ry     beta= 0.70
     Davidson diagonalization with overlap
     c_bands:  1 eigenvalues not converged
     ethr =  7.65E-07,  avg # of iterations = 10.0

     negative rho (up, down):  5.014E-03 0.000E+00

     total cpu time spent up to now is     8454.0 secs

     total energy              =  -27818.64708231 Ry
     estimated scf accuracy    <       0.00088384 Ry

     iteration # 11     ecut=    60.00 Ry     beta= 0.70
     Davidson diagonalization with overlap
     ethr =  2.34E-07,  avg # of iterations =  3.8

     negative rho (up, down):  5.919E-03 0.000E+00

     total cpu time spent up to now is     9165.8 secs

     total energy              =  -27818.64725312 Ry
     estimated scf accuracy    <       0.00075296 Ry

     iteration # 12     ecut=    60.00 Ry     beta= 0.70
     Davidson diagonalization with overlap
     ethr =  1.99E-07,  avg # of iterations =  3.5

     negative rho (up, down):  6.293E-03 0.000E+00

     total cpu time spent up to now is     9800.9 secs

     total energy              =  -27818.64730632 Ry
     estimated scf accuracy    <       0.00043593 Ry

     iteration # 13     ecut=    60.00 Ry     beta= 0.70
     Davidson diagonalization with overlap
     ethr =  1.15E-07,  avg # of iterations =  1.9

     negative rho (up, down):  9.345E-03 0.000E+00

     total cpu time spent up to now is    10418.1 secs

     total energy              =  -27818.64730497 Ry
     estimated scf accuracy    <       0.00034805 Ry

     iteration # 14     ecut=    60.00 Ry     beta= 0.70
     Davidson diagonalization with overlap
     ethr =  9.21E-08,  avg # of iterations =  4.2

     negative rho (up, down):  9.391E-03 0.000E+00

     total cpu time spent up to now is    11070.7 secs

     total energy              =  -27818.64729349 Ry
     estimated scf accuracy    <       0.00025071 Ry

     iteration # 15     ecut=    60.00 Ry     beta= 0.70
     Davidson diagonalization with overlap
     ethr =  6.63E-08,  avg # of iterations =  1.4

     negative rho (up, down):  1.110E-02 0.000E+00

     total cpu time spent up to now is    11665.0 secs

     total energy              =  -27818.64728843 Ry
     estimated scf accuracy    <       0.00008011 Ry

     iteration # 16     ecut=    60.00 Ry     beta= 0.70
     Davidson diagonalization with overlap
     ethr =  2.12E-08,  avg # of iterations =  3.8

     negative rho (up, down):  1.227E-02 0.000E+00

     total cpu time spent up to now is    12358.4 secs

     total energy              =  -27818.64729986 Ry
     estimated scf accuracy    <       0.00003701 Ry

     iteration # 17     ecut=    60.00 Ry     beta= 0.70
     Davidson diagonalization with overlap
     ethr =  9.79E-09,  avg # of iterations =  3.7

     negative rho (up, down):  1.202E-02 0.000E+00

     total cpu time spent up to now is    13057.0 secs

     total energy              =  -27818.64730864 Ry
     estimated scf accuracy    <       0.00002424 Ry

     iteration # 18     ecut=    60.00 Ry     beta= 0.70
     Davidson diagonalization with overlap
     ethr =  6.41E-09,  avg # of iterations =  2.0

     negative rho (up, down):  1.232E-02 0.000E+00

     total cpu time spent up to now is    13704.1 secs

     total energy              =  -27818.64731133 Ry
     estimated scf accuracy    <       0.00000827 Ry

     iteration # 19     ecut=    60.00 Ry     beta= 0.70
     Davidson diagonalization with overlap
     ethr =  2.19E-09,  avg # of iterations =  4.0

     negative rho (up, down):  1.256E-02 0.000E+00

     total cpu time spent up to now is    14466.2 secs

     total energy              =  -27818.64731269 Ry
     estimated scf accuracy    <       0.00000358 Ry

     iteration # 20     ecut=    60.00 Ry     beta= 0.70
     Davidson diagonalization with overlap
     ethr =  9.47E-10,  avg # of iterations =  3.7

     negative rho (up, down):  1.241E-02 0.000E+00

     total cpu time spent up to now is    15197.4 secs

     total energy              =  -27818.64731343 Ry
     estimated scf accuracy    <       0.00000138 Ry

     iteration # 21     ecut=    60.00 Ry     beta= 0.70
     Davidson diagonalization with overlap
     ethr =  3.64E-10,  avg # of iterations =  4.1

     negative rho (up, down):  1.254E-02 0.000E+00

     total cpu time spent up to now is    15930.0 secs

     End of self-consistent calculation

          k = 0.0000 0.0000 0.0000 ( 91569 PWs)   bands (ev):

   -13.2022 -10.5576  -7.8052  -6.9168  -5.6656  -5.1078  -4.6435  -4.5242
    -4.5159  -4.4998  -4.4967  -4.4751  -4.4690  -4.4487  -4.1235  -3.9836
    -3.9575  -3.9512  -3.9368  -3.9340  -3.9041  -3.8278  -3.4967  -3.4844
    -3.4809  -3.4775  -3.4710  -3.4349  -3.2989  -3.2711  -3.2605  -3.2538
    -3.2503  -3.2072  -3.0919  -3.0596  -3.0479  -3.0429  -3.0332  -3.0306
    -3.0058  -2.9909  -2.9744  -2.9681  -2.9619  -2.9379  -2.8059  -2.4800
    -2.4334  -2.4189  -2.4132  -2.3863  -2.3658  -2.3376  -2.3344  -2.3161
    -2.2714  -2.2179  -2.1860  -2.1744  -2.1355  -2.0977  -1.8979  -1.6752
    -1.6311  -1.6031  -1.5869  -1.5777  -1.5612  -1.5238  -1.4240  -1.4190
    -1.4075  -1.4040  -1.3900  -1.3887  -1.3832  -1.3578  -1.3526  -1.3424
    -1.3251  -1.3222  -1.2938  -1.2793  -1.2581  -1.2378  -1.2059  -1.1937
    -1.1726  -1.1639  -1.0240  -1.0027  -0.9866  -0.9782  -0.9539  -0.9435
    -0.9232  -0.9172  -0.9083  -0.8842  -0.8624  -0.8336  -0.8261  -0.7595
    -0.7574  -0.7196  -0.7192  -0.6964  -0.6591  -0.5868  -0.5642  -0.5503
    -0.5258  -0.5121  -0.5091  -0.2169  -0.1623  -0.1136  -0.0966  -0.0838
    -0.0641  -0.0418  -0.0345  -0.0279   0.0005   0.0583   0.0787   0.0896
     0.1021   0.1182   0.1914   0.2129   0.2448   0.2571   0.3059   0.3656
     0.3744   0.3937   0.4380   0.4401   0.4495   0.4717   0.5163   0.6597
     0.6864   0.6970   0.7064   0.7125   0.7168   0.7496   0.7623   0.9281
     0.9416   0.9421   0.9531   1.0031   1.0086   1.0974   1.1141   1.1184
     1.1243   1.1337   1.1395   1.1466   1.1585   1.1651   1.1761   1.1833
     1.2286   1.2550   1.2618   1.2761   1.2988   1.3123   1.3177   1.3688
     1.3791   1.3818   1.3959   1.3996   1.4096   1.4350   1.4379   1.4535
     1.5027   1.5107   1.5147   1.5361   1.5406   1.5511   1.5616   1.5997
     1.6286   1.6324   1.6616   1.6621   1.8192   1.8303   1.9141   1.9289
     1.9466   1.9641   1.9718   1.9775   2.2012   2.4949   2.7517   2.8139
     2.8374   2.8491   2.8655   4.1514   4.2023   5.0753   5.1107   5.1354
     5.1517   5.7106   5.9456   6.1530   6.5542   6.7581   6.7872   6.7889
     6.8152   6.8166   6.8349

          k = 0.0000 0.2309 0.0000 ( 91480 PWs)   bands (ev):

   -13.2021 -10.5579  -7.8058  -6.7688  -5.5219  -5.1063  -5.0021  -4.6170
    -4.5932  -4.5108  -4.3827  -4.2987  -4.2575  -4.2439  -4.1398  -4.0545
    -4.0062  -3.9332  -3.8793  -3.8689  -3.8463  -3.7800  -3.5655  -3.4572
    -3.4464  -3.4363  -3.4174  -3.3640  -3.3463  -3.3232  -3.2939  -3.2569
    -3.2431  -3.2275  -3.1599  -3.1345  -3.1067  -3.0605  -3.0433  -3.0370
    -3.0210  -2.9007  -2.8382  -2.8147  -2.8021  -2.7768  -2.7420  -2.5589
    -2.5395  -2.5228  -2.4924  -2.4450  -2.4380  -2.3850  -2.2978  -2.2697
    -2.2223  -2.1634  -2.1528  -2.1267  -2.1084  -2.0904  -1.9597  -1.8419
    -1.7730  -1.7370  -1.7185  -1.7137  -1.6636  -1.6104  -1.6031  -1.5789
    -1.5552  -1.5424  -1.5195  -1.4782  -1.4484  -1.4146  -1.3852  -1.3730
    -1.3113  -1.3049  -1.2936  -1.2241  -1.2111  -1.1886  -1.1598  -1.1314
    -1.1196  -1.0827  -1.0748  -1.0397  -1.0204  -1.0060  -0.9875  -0.9734
    -0.9408  -0.9158  -0.8779  -0.8585  -0.8394  -0.8304  -0.8144  -0.7977
    -0.7933  -0.7548  -0.7400  -0.7206  -0.6359  -0.6155  -0.5772  -0.5614
    -0.5355  -0.5162  -0.5026  -0.4848  -0.4675  -0.4514  -0.4395  -0.3599
    -0.3323  -0.1970  -0.1180  -0.0942  -0.0676  -0.0370  -0.0262  -0.0132
     0.0067   0.0498   0.1383   0.1883   0.2118   0.2427   0.2864   0.3140
     0.3613   0.3805   0.3882   0.4271   0.4330   0.4831   0.5126   0.5433
     0.5653   0.5851   0.5901   0.6211   0.7396   0.7612   0.7900   0.8094
     0.8212   0.8672   0.8806   0.9339   0.9444   0.9633   0.9780   1.0213
     1.0539   1.0715   1.0896   1.1169   1.1804   1.1956   1.2369   1.2754
     1.2953   1.3224   1.3453   1.3713   1.3751   1.3909   1.4573   1.4781
     1.5134   1.5177   1.5505   1.5724   1.5834   1.6116   1.6195   1.6262
     1.6356   1.6747   1.6825   1.7964   1.8118   1.8437   1.8580   1.8733
     1.8862   1.8969   1.9238   1.9520   1.9732   1.9836   2.0770   2.0847
     2.1000   2.2172   2.2622   2.2750   2.2834   2.5464   2.6498   2.9853
     3.3399   3.4384   3.5296   3.8916   4.4387   4.6300   5.0284   5.3668
     5.6203   5.6254   5.7865   5.8665   6.0008   6.4135   6.5520   6.6343
     6.6637   6.7911   6.9808

          k = 0.0000 0.4619 0.0000 ( 91550 PWs)   bands (ev):

   -13.2019 -10.5582  -7.8068  -6.3436  -5.7060  -5.1473  -5.0765  -4.6487
    -4.6253  -4.5689  -4.2766  -4.2401  -4.1167  -4.0044  -3.9388  -3.9131
    -3.9039  -3.8815  -3.7624  -3.7143  -3.6860  -3.6763  -3.6689  -3.5670
    -3.5177  -3.5081  -3.4749  -3.4671  -3.4506  -3.3992  -3.3559  -3.3444
    -3.3334  -3.1598  -3.0961  -3.0757  -3.0672  -3.0554  -3.0402  -2.9586
    -2.8292  -2.8238  -2.8158  -2.7932  -2.7727  -2.7131  -2.6144  -2.5445
    -2.5049  -2.4924  -2.4746  -2.4512  -2.4108  -2.3764  -2.3556  -2.3370
    -2.3226  -2.2735  -2.2352  -2.1450  -2.1207  -2.0823  -2.0725  -2.0148
    -1.9721  -1.9227  -1.8964  -1.8734  -1.8036  -1.7508  -1.6920  -1.6809
    -1.6590  -1.6406  -1.6016  -1.5838  -1.5123  -1.4994  -1.4581  -1.4246
    -1.3945  -1.3439  -1.3340  -1.3008  -1.2810  -1.2780  -1.2483  -1.2084
    -1.1857  -1.1784  -1.1698  -1.1543  -1.1369  -1.1194  -1.0863  -1.0514
    -1.0247  -1.0015  -0.9962  -0.9811  -0.9415  -0.8819  -0.8455  -0.8358
    -0.8090  -0.7739  -0.7582  -0.7401  -0.6982  -0.6841  -0.6269  -0.5800
    -0.5640  -0.5290  -0.5007  -0.4571  -0.4286  -0.3173  -0.3099  -0.2736
    -0.2165  -0.1973  -0.1756  -0.1451  -0.1110  -0.0957  -0.0728  -0.0666
    -0.0215  -0.0048   0.0170   0.0323   0.0546   0.0815   0.0964   0.1155
     0.1316   0.2285   0.2336   0.2596   0.3203   0.3447   0.3781   0.4571
     0.4835   0.5034   0.5705   0.5927   0.6590   0.7069   0.7402   0.7590
     0.7882   0.8112   0.8360   0.8472   0.9005   0.9168   0.9493   0.9914
     1.0045   1.0776   1.1009   1.1106   1.1290   1.1538   1.1885   1.2868
     1.3063   1.3537   1.3812   1.3972   1.4218   1.4496   1.5034   1.5351
     1.5422   1.6070   1.6125   1.6651   1.6762   1.7113   1.7188   1.7722
     1.8270   1.8287   1.8601   1.8684   1.8803   1.9001   1.9219   2.0757
     2.0931   2.0941   2.1155   2.1372   2.2804   2.3454   2.3615   2.6446
     2.7841   2.8437   3.1662   3.1839   3.3485   3.5336   3.5665   3.8087
     3.9038   4.1800   4.3973   4.4067   4.4486   4.5531   4.6585   4.6995
     4.9687   5.0458   5.1857   5.3746   5.7489   5.8563   6.1939   6.3012
     6.3823   6.6435   6.8292

          k = 0.2000-0.1155 0.0000 ( 91480 PWs)   bands (ev):

   -13.2021 -10.5581  -7.8051  -6.7691  -5.5225  -5.1138  -4.9912  -4.6193
    -4.5957  -4.5059  -4.3825  -4.2943  -4.2571  -4.2478  -4.1286  -4.0578
    -4.0272  -3.9282  -3.8863  -3.8651  -3.8463  -3.7730  -3.5734  -3.4510
    -3.4428  -3.4392  -3.4196  -3.3601  -3.3495  -3.3247  -3.2917  -3.2564
    -3.2412  -3.2229  -3.1605  -3.1489  -3.0990  -3.0655  -3.0454  -3.0300
    -3.0201  -2.9024  -2.8351  -2.8153  -2.7983  -2.7874  -2.7507  -2.5598
    -2.5364  -2.5086  -2.4809  -2.4520  -2.4280  -2.3920  -2.3154  -2.2494
    -2.2170  -2.1679  -2.1491  -2.1329  -2.1116  -2.0921  -1.9679  -1.8357
    -1.7752  -1.7339  -1.7177  -1.7111  -1.6678  -1.6176  -1.5985  -1.5767
    -1.5558  -1.5426  -1.5152  -1.4782  -1.4513  -1.4202  -1.3872  -1.3756
    -1.3137  -1.2994  -1.2928  -1.2275  -1.2105  -1.1855  -1.1646  -1.1334
    -1.1181  -1.0798  -1.0784  -1.0348  -1.0199  -1.0067  -0.9926  -0.9711
    -0.9358  -0.9168  -0.8799  -0.8578  -0.8390  -0.8302  -0.8138  -0.7969
    -0.7873  -0.7519  -0.7389  -0.7228  -0.6281  -0.6129  -0.5815  -0.5623
    -0.5359  -0.5222  -0.5091  -0.4849  -0.4666  -0.4576  -0.4413  -0.3502
    -0.3205  -0.2016  -0.1186  -0.0913  -0.0673  -0.0345  -0.0253  -0.0101
     0.0015   0.0462   0.1417   0.1958   0.2066   0.2334   0.2853   0.3145
     0.3614   0.3812   0.3888   0.4233   0.4325   0.4766   0.5141   0.5437
     0.5645   0.5847   0.5920   0.6198   0.7401   0.7605   0.7915   0.8071
     0.8248   0.8688   0.8821   0.9291   0.9472   0.9635   0.9780   1.0266
     1.0546   1.0727   1.0890   1.1155   1.1776   1.1951   1.2358   1.2791
     1.2954   1.3222   1.3436   1.3676   1.3755   1.3938   1.4562   1.4772
     1.5109   1.5175   1.5503   1.5734   1.5839   1.6106   1.6197   1.6263
     1.6361   1.6743   1.6830   1.7935   1.8147   1.8444   1.8588   1.8730
     1.8869   1.8994   1.9229   1.9513   1.9705   1.9858   2.0795   2.0838
     2.0995   2.2192   2.2631   2.2739   2.2831   2.5531   2.6415   2.9888
     3.3319   3.4327   3.5344   3.8970   4.4436   4.6267   5.0300   5.3522
     5.6199   5.6265   5.7830   5.8947   6.0044   6.3998   6.5599   6.6278
     6.6666   6.7648   6.9748

          k = 0.2000 0.1155 0.0000 ( 91480 PWs)   bands (ev):

   -13.2022 -10.5578  -7.8052  -6.7695  -5.5247  -5.1128  -5.0011  -4.6011
    -4.5981  -4.5154  -4.3833  -4.3001  -4.2528  -4.2465  -4.1732  -4.0468
    -3.9638  -3.9170  -3.8874  -3.8687  -3.8585  -3.7982  -3.5642  -3.4639
    -3.4465  -3.4373  -3.4178  -3.3633  -3.3414  -3.3073  -3.2961  -3.2667
    -3.2507  -3.2342  -3.1483  -3.1413  -3.0930  -3.0608  -3.0359  -3.0249
    -3.0161  -2.8774  -2.8360  -2.8325  -2.8047  -2.7818  -2.7547  -2.5481
    -2.5432  -2.5319  -2.4889  -2.4530  -2.4323  -2.3816  -2.3078  -2.2447
    -2.2306  -2.1886  -2.1440  -2.1345  -2.0964  -2.0870  -1.9672  -1.8336
    -1.7884  -1.7434  -1.7066  -1.6974  -1.6757  -1.6151  -1.6094  -1.5735
    -1.5492  -1.5382  -1.5153  -1.4770  -1.4350  -1.4116  -1.4067  -1.3950
    -1.3227  -1.2983  -1.2919  -1.2214  -1.2106  -1.2085  -1.1448  -1.1346
    -1.1292  -1.0874  -1.0795  -1.0356  -1.0307  -1.0055  -0.9885  -0.9646
    -0.9408  -0.9102  -0.8915  -0.8549  -0.8402  -0.8182  -0.8037  -0.7907
    -0.7687  -0.7500  -0.7316  -0.7270  -0.6376  -0.6008  -0.5919  -0.5620
    -0.5486  -0.5281  -0.5057  -0.4988  -0.4718  -0.4593  -0.4368  -0.3845
    -0.2482  -0.2064  -0.1116  -0.1062  -0.0640  -0.0223  -0.0179  -0.0032
     0.0068   0.0256   0.1220   0.1607   0.2212   0.2385   0.2812   0.3446
     0.3537   0.3744   0.3896   0.4216   0.4430   0.5115   0.5254   0.5457
     0.5668   0.5844   0.5908   0.6078   0.7403   0.7547   0.7867   0.8143
     0.8222   0.8481   0.8895   0.9110   0.9577   0.9673   0.9871   1.0279
     1.0593   1.0662   1.0962   1.1102   1.1743   1.1862   1.2419   1.2482
     1.3022   1.3099   1.3456   1.3511   1.3863   1.4129   1.4576   1.4840
     1.4946   1.5177   1.5568   1.5628   1.5796   1.6096   1.6219   1.6259
     1.6345   1.6794   1.6840   1.8084   1.8183   1.8234   1.8723   1.8788
     1.8920   1.9132   1.9194   1.9559   1.9591   1.9725   2.0785   2.0805
     2.0969   2.2401   2.2678   2.2763   2.2912   2.5459   2.5982   3.0312
     3.2477   3.4249   3.5593   4.0618   4.2559   4.6523   5.1661   5.2263
     5.6229   5.6268   5.7646   5.9116   6.1454   6.2497   6.5494   6.6308
     6.6603   6.8443   6.9873

          k = 0.2000 0.3464 0.0000 ( 91528 PWs)   bands (ev):

   -13.2020 -10.5579  -7.8061  -6.4827  -5.2697  -5.2584  -5.2425  -5.0876
    -4.3811  -4.1927  -4.1811  -4.1755  -4.1610  -4.1202  -4.1029  -4.0806
    -4.0253  -3.9834  -3.8929  -3.8345  -3.6214  -3.6038  -3.5858  -3.5780
    -3.5183  -3.4826  -3.3793  -3.3624  -3.3562  -3.3355  -3.3215  -3.2415
    -3.2292  -3.2002  -3.1893  -3.1834  -3.1072  -3.0999  -3.0772  -3.0445
    -3.0125  -2.9410  -2.8644  -2.6807  -2.6213  -2.6114  -2.5834  -2.5743
    -2.5510  -2.5406  -2.5267  -2.4760  -2.4540  -2.3655  -2.3119  -2.3009
    -2.2700  -2.1897  -2.1569  -2.1466  -2.1134  -2.1088  -2.0733  -2.0210
    -1.9227  -1.8781  -1.8364  -1.7849  -1.7522  -1.7301  -1.7222  -1.7011
    -1.6496  -1.6312  -1.6183  -1.5243  -1.4896  -1.4706  -1.4606  -1.4235
    -1.4051  -1.3763  -1.3536  -1.3053  -1.2868  -1.2343  -1.1902  -1.1700
    -1.1578  -1.1296  -1.1269  -1.1046  -1.0851  -1.0662  -1.0490  -1.0255
    -0.9766  -0.9500  -0.9134  -0.8967  -0.8759  -0.8551  -0.8315  -0.8048
    -0.7816  -0.7648  -0.7541  -0.7355  -0.7060  -0.7007  -0.6846  -0.6612
    -0.6247  -0.6024  -0.5758  -0.5305  -0.4946  -0.4757  -0.4069  -0.3774
    -0.3620  -0.2795  -0.1974  -0.1679  -0.1216  -0.0677  -0.0466  -0.0301
    -0.0153   0.0164   0.0331   0.0612   0.0899   0.1037   0.1336   0.2019
     0.2203   0.2789   0.3144   0.3709   0.4102   0.4213   0.4421   0.4911
     0.5112   0.5406   0.6110   0.6304   0.6605   0.6828   0.7055   0.7353
     0.8030   0.8371   0.8605   0.8657   0.9120   0.9281   0.9351   0.9438
     0.9665   0.9781   0.9934   1.0416   1.1358   1.1840   1.1944   1.2642
     1.2984   1.3892   1.4158   1.4907   1.5024   1.5180   1.5708   1.6120
     1.6357   1.6493   1.6723   1.6941   1.7052   1.7131   1.7282   1.7505
     1.7635   1.7805   1.8418   1.8811   1.8925   1.9266   1.9413   1.9806
     2.0232   2.1020   2.1462   2.1750   2.2130   2.2505   2.2547   2.3699
     2.3981   2.5504   2.9191   2.9324   3.2049   3.2704   3.4723   3.4802
     3.6829   3.9202   4.1196   4.3162   4.4163   4.4246   4.7749   5.0275
     5.1757   5.6027   5.7056   5.8178   5.8761   6.1504   6.2524   6.3047
     6.3828   6.4110   6.6205

          k = 0.2000-0.5774 0.0000 ( 91502 PWs)   bands (ev):

   -13.2019 -10.5584  -7.8065  -5.9511  -5.9379  -5.3405  -5.1075  -4.7851
    -4.7188  -4.2905  -4.1735  -4.1187  -4.0248  -3.9916  -3.9149  -3.8899
    -3.8451  -3.7810  -3.7696  -3.6866  -3.6714  -3.6567  -3.6273  -3.6078
    -3.5846  -3.5588  -3.4664  -3.4544  -3.4454  -3.4064  -3.3921  -3.3419
    -3.2725  -3.2009  -3.1851  -3.1140  -3.0740  -3.0538  -3.0367  -3.0000
    -2.9775  -2.9304  -2.8444  -2.8106  -2.7886  -2.6304  -2.6119  -2.5997
    -2.5276  -2.4667  -2.4289  -2.4121  -2.3491  -2.3075  -2.2825  -2.2306
    -2.2102  -2.1960  -2.1589  -2.1353  -2.1085  -2.0252  -2.0117  -1.9868
    -1.9787  -1.9646  -1.9511  -1.9386  -1.8881  -1.8753  -1.8148  -1.7577
    -1.7155  -1.6823  -1.6486  -1.5967  -1.5819  -1.5358  -1.5187  -1.4798
    -1.4569  -1.4320  -1.3997  -1.3660  -1.3586  -1.3402  -1.3195  -1.2908
    -1.2378  -1.2185  -1.1401  -1.1249  -1.1066  -1.0989  -1.0524  -1.0188
    -0.9688  -0.9179  -0.9071  -0.8937  -0.8764  -0.8597  -0.8361  -0.8134
    -0.7980  -0.7892  -0.7719  -0.7422  -0.7215  -0.7087  -0.6803  -0.6775
    -0.6694  -0.6462  -0.6251  -0.6076  -0.5715  -0.5404  -0.3650  -0.3429
    -0.2784  -0.2709  -0.2157  -0.1786  -0.1630  -0.1210  -0.1013  -0.0783
    -0.0696  -0.0448  -0.0024   0.0256   0.0693   0.0881   0.1147   0.1562
     0.1959   0.2111   0.2440   0.3507   0.3885   0.4162   0.4583   0.5036
     0.5144   0.5408   0.5815   0.5955   0.6259   0.6362   0.6652   0.6896
     0.7171   0.7441   0.7853   0.8176   0.8478   0.8745   0.8833   0.9180
     0.9282   1.0014   1.0422   1.0822   1.1761   1.1936   1.2851   1.3159
     1.3413   1.3647   1.4274   1.4678   1.5018   1.5197   1.6060   1.6325
     1.6392   1.6642   1.6895   1.6999   1.7270   1.7503   1.8185   1.8347
     1.8522   1.8710   1.8858   1.9039   1.9077   1.9810   2.0659   2.0850
     2.1111   2.1304   2.1405   2.1796   2.1975   2.3164   2.4326   2.8072
     3.2135   3.2911   3.2943   3.5190   3.6383   3.6573   3.6828   3.8208
     4.2014   4.2931   4.3378   4.4646   4.7491   4.8462   4.8933   4.9322
     4.9726   5.1159   5.2062   5.3251   5.4513   5.6873   5.7735   5.9577
     6.2988   6.3860   6.3957

          k = 0.2000-0.3464 0.0000 ( 91528 PWs)   bands (ev):

   -13.2019 -10.5584  -7.8059  -6.4813  -5.2804  -5.2495  -5.2306  -5.0887
    -4.3725  -4.1896  -4.1812  -4.1673  -4.1577  -4.1329  -4.1148  -4.0659
    -4.0195  -3.9889  -3.9142  -3.8511  -3.6107  -3.5966  -3.5860  -3.5742
    -3.5107  -3.4932  -3.3678  -3.3629  -3.3556  -3.3409  -3.3202  -3.2449
    -3.2172  -3.2064  -3.1874  -3.1724  -3.1154  -3.1014  -3.0779  -3.0553
    -3.0400  -2.9427  -2.8955  -2.6965  -2.6318  -2.6171  -2.5934  -2.5663
    -2.5392  -2.5253  -2.4943  -2.4636  -2.4425  -2.4041  -2.3169  -2.2964
    -2.2290  -2.1954  -2.1534  -2.1430  -2.1188  -2.1059  -2.0650  -2.0316
    -1.9276  -1.8658  -1.8299  -1.7979  -1.7624  -1.7357  -1.7177  -1.6967
    -1.6637  -1.6326  -1.5889  -1.5258  -1.5027  -1.4624  -1.4449  -1.4289
    -1.3854  -1.3657  -1.3578  -1.3175  -1.2721  -1.2174  -1.2025  -1.1702
    -1.1514  -1.1354  -1.1109  -1.1051  -1.0859  -1.0680  -1.0536  -1.0418
    -0.9981  -0.9361  -0.9172  -0.8901  -0.8718  -0.8462  -0.8281  -0.7961
    -0.7862  -0.7769  -0.7542  -0.7349  -0.7201  -0.7029  -0.6712  -0.6526
    -0.6324  -0.6142  -0.5594  -0.5304  -0.4948  -0.4783  -0.4236  -0.4163
    -0.3396  -0.3039  -0.1959  -0.1757  -0.1137  -0.0817  -0.0663  -0.0192
     0.0070   0.0240   0.0410   0.0607   0.0936   0.1013   0.1505   0.1649
     0.2041   0.2535   0.3440   0.3725   0.4066   0.4417   0.4568   0.4722
     0.5074   0.5285   0.5950   0.6392   0.6478   0.6825   0.7061   0.7485
     0.8155   0.8266   0.8600   0.8809   0.9060   0.9180   0.9412   0.9486
     0.9573   0.9761   1.0177   1.0537   1.1437   1.1608   1.2071   1.2869
     1.3111   1.3440   1.4510   1.4895   1.5031   1.5358   1.5521   1.6098
     1.6360   1.6494   1.6588   1.6929   1.7057   1.7135   1.7196   1.7531
     1.7712   1.7841   1.8510   1.8754   1.8919   1.9310   1.9412   1.9695
     2.0475   2.0840   2.1435   2.1838   2.2237   2.2470   2.2613   2.3698
     2.3931   2.5000   2.9127   2.9423   3.1631   3.4396   3.4767   3.4931
     3.5932   3.8831   4.1306   4.2759   4.4134   4.4405   4.8973   4.9315
     5.2135   5.5845   5.6040   5.8447   5.9223   6.1695   6.2297   6.2781
     6.3953   6.4279   6.6526

          k = 0.4000-0.2309 0.0000 ( 91550 PWs)   bands (ev):

   -13.2019 -10.5587  -7.8051  -6.3442  -5.7074  -5.1603  -5.0594  -4.6522
    -4.6275  -4.5553  -4.2685  -4.2415  -4.1207  -4.0071  -3.9558  -3.9273
    -3.9023  -3.8790  -3.7639  -3.7073  -3.6916  -3.6750  -3.6579  -3.5707
    -3.5171  -3.5126  -3.4735  -3.4613  -3.4519  -3.4153  -3.3529  -3.3370
    -3.3282  -3.1562  -3.0893  -3.0744  -3.0663  -3.0546  -3.0468  -2.9791
    -2.8251  -2.8220  -2.8138  -2.7888  -2.7699  -2.7590  -2.5819  -2.5241
    -2.5033  -2.4904  -2.4629  -2.4453  -2.4219  -2.3730  -2.3500  -2.3395
    -2.3244  -2.2809  -2.2317  -2.1442  -2.1181  -2.0897  -2.0751  -2.0202
    -1.9647  -1.9299  -1.8998  -1.8732  -1.7952  -1.7407  -1.6893  -1.6862
    -1.6600  -1.6422  -1.5987  -1.5809  -1.5236  -1.4784  -1.4680  -1.4284
    -1.4085  -1.3508  -1.3253  -1.3063  -1.2835  -1.2736  -1.2473  -1.2106
    -1.1894  -1.1758  -1.1701  -1.1531  -1.1349  -1.1255  -1.1004  -1.0507
    -1.0127  -1.0020  -0.9969  -0.9798  -0.9436  -0.8686  -0.8452  -0.8345
    -0.8101  -0.7724  -0.7560  -0.7347  -0.7042  -0.6938  -0.6193  -0.5793
    -0.5634  -0.5292  -0.5046  -0.4588  -0.4303  -0.3185  -0.3125  -0.2738
    -0.2161  -0.1950  -0.1679  -0.1464  -0.1096  -0.0927  -0.0720  -0.0639
    -0.0209  -0.0020   0.0136   0.0250   0.0500   0.0744   0.0916   0.1243
     0.1357   0.2232   0.2382   0.2605   0.3247   0.3391   0.3786   0.4514
     0.4839   0.5049   0.5674   0.5985   0.6595   0.7059   0.7473   0.7586
     0.7878   0.8131   0.8354   0.8460   0.8988   0.9154   0.9519   0.9951
     1.0033   1.0767   1.1009   1.1118   1.1285   1.1499   1.1910   1.2877
     1.3044   1.3508   1.3798   1.4040   1.4199   1.4494   1.5021   1.5332
     1.5415   1.6066   1.6133   1.6663   1.6769   1.7082   1.7220   1.7715
     1.8241   1.8307   1.8628   1.8687   1.8800   1.8990   1.9220   2.0744
     2.0936   2.0949   2.1147   2.1370   2.2804   2.3459   2.3751   2.6277
     2.7788   2.8436   3.1655   3.1855   3.3425   3.5368   3.5672   3.8106
     3.9049   4.1896   4.3987   4.4076   4.4445   4.5421   4.6625   4.7020
     4.9710   5.0435   5.1853   5.3803   5.7419   5.8353   6.2240   6.2942
     6.3831   6.7013   6.8208

          k = 0.4000-0.0000 0.0000 ( 91528 PWs)   bands (ev):

   -13.2020 -10.5583  -7.8050  -6.4832  -5.2784  -5.2533  -5.2446  -5.0801
    -4.3767  -4.1908  -4.1817  -4.1697  -4.1633  -4.1202  -4.0999  -4.0889
    -4.0160  -3.9845  -3.9146  -3.8373  -3.6201  -3.6055  -3.5930  -3.5730
    -3.5036  -3.4874  -3.3790  -3.3637  -3.3538  -3.3357  -3.3257  -3.2477
    -3.2224  -3.2001  -3.1913  -3.1807  -3.1063  -3.0944  -3.0796  -3.0334
    -3.0240  -2.9382  -2.8770  -2.6990  -2.6172  -2.6092  -2.5954  -2.5779
    -2.5410  -2.5373  -2.4876  -2.4744  -2.4437  -2.3870  -2.3201  -2.2985
    -2.2565  -2.1975  -2.1648  -2.1376  -2.1178  -2.1046  -2.0738  -2.0255
    -1.9174  -1.8695  -1.8421  -1.7818  -1.7506  -1.7411  -1.7153  -1.7017
    -1.6521  -1.6292  -1.6200  -1.5363  -1.4922  -1.4749  -1.4608  -1.4220
    -1.4041  -1.3791  -1.3515  -1.3058  -1.2900  -1.2326  -1.1905  -1.1713
    -1.1578  -1.1329  -1.1198  -1.1032  -1.0833  -1.0638  -1.0458  -1.0287
    -0.9744  -0.9433  -0.9171  -0.8972  -0.8764  -0.8504  -0.8340  -0.8020
    -0.7837  -0.7672  -0.7554  -0.7249  -0.7095  -0.7019  -0.6823  -0.6590
    -0.6254  -0.6029  -0.5696  -0.5292  -0.4887  -0.4780  -0.4048  -0.3774
    -0.3706  -0.2816  -0.2019  -0.1649  -0.1289  -0.0662  -0.0471  -0.0361
    -0.0165   0.0167   0.0358   0.0600   0.0893   0.1021   0.1408   0.1954
     0.2129   0.2792   0.3172   0.3773   0.4139   0.4211   0.4386   0.4926
     0.5107   0.5389   0.6098   0.6277   0.6548   0.6856   0.7052   0.7379
     0.8038   0.8373   0.8577   0.8689   0.9159   0.9266   0.9376   0.9446
     0.9689   0.9776   0.9935   1.0421   1.1347   1.1849   1.1948   1.2636
     1.2984   1.3906   1.4137   1.4902   1.5043   1.5170   1.5690   1.6114
     1.6347   1.6499   1.6735   1.6948   1.7053   1.7134   1.7283   1.7516
     1.7618   1.7822   1.8414   1.8806   1.8917   1.9258   1.9428   1.9810
     2.0311   2.1001   2.1455   2.1730   2.2066   2.2521   2.2544   2.3752
     2.3981   2.5467   2.9168   2.9298   3.2142   3.2650   3.4727   3.4818
     3.6733   3.9250   4.1178   4.3279   4.4147   4.4185   4.7655   5.0218
     5.1949   5.6026   5.7129   5.8287   5.8665   6.1618   6.2392   6.2947
     6.3796   6.4216   6.5555

          k = 0.4000 0.2309 0.0000 ( 91550 PWs)   bands (ev):

   -13.2020 -10.5580  -7.8054  -6.3463  -5.7100  -5.1740  -5.0586  -4.6327
    -4.6312  -4.5821  -4.2973  -4.2117  -4.1223  -4.0026  -3.9442  -3.9074
    -3.8944  -3.8600  -3.7612  -3.7437  -3.6982  -3.6776  -3.6594  -3.5676
    -3.5215  -3.5131  -3.4858  -3.4594  -3.4570  -3.4063  -3.3723  -3.3349
    -3.3254  -3.0970  -3.0883  -3.0808  -3.0732  -3.0427  -3.0390  -2.9123
    -2.8309  -2.8273  -2.8085  -2.8057  -2.7741  -2.7477  -2.6149  -2.5174
    -2.5122  -2.4863  -2.4785  -2.4542  -2.4127  -2.3803  -2.3579  -2.3316
    -2.3177  -2.2803  -2.2454  -2.1402  -2.1096  -2.0967  -2.0844  -2.0249
    -1.9699  -1.9136  -1.8972  -1.8718  -1.7740  -1.7423  -1.7043  -1.6918
    -1.6861  -1.6516  -1.5873  -1.5609  -1.5532  -1.5306  -1.4594  -1.4313
    -1.4240  -1.3466  -1.3331  -1.3008  -1.2958  -1.2759  -1.2364  -1.2071
    -1.2004  -1.1843  -1.1622  -1.1576  -1.1524  -1.1295  -1.0984  -1.0361
    -1.0286  -1.0065  -0.9833  -0.9614  -0.9300  -0.8851  -0.8497  -0.8312
    -0.8053  -0.7489  -0.7400  -0.7350  -0.7080  -0.6968  -0.6203  -0.5698
    -0.5253  -0.5094  -0.4644  -0.4554  -0.4415  -0.2981  -0.2903  -0.2754
    -0.2594  -0.2103  -0.1629  -0.1241  -0.1229  -0.1059  -0.0598  -0.0562
    -0.0098  -0.0005   0.0176   0.0224   0.0315   0.0695   0.0967   0.1110
     0.1456   0.2148   0.2342   0.2578   0.3074   0.3439   0.3895   0.4569
     0.4801   0.4935   0.5611   0.5741   0.6739   0.7260   0.7396   0.7784
     0.7966   0.8178   0.8272   0.8460   0.9073   0.9229   0.9345   0.9809
     0.9958   1.0850   1.0861   1.1108   1.1248   1.1457   1.1928   1.2532
     1.2831   1.3763   1.3880   1.4084   1.4159   1.4552   1.5129   1.5141
     1.5430   1.5972   1.6075   1.6748   1.6807   1.7074   1.7144   1.7984
     1.8002   1.8426   1.8583   1.8675   1.8753   1.9099   1.9235   2.0893
     2.0973   2.1036   2.1080   2.1234   2.2870   2.3468   2.4077   2.5990
     2.7712   2.8231   3.1704   3.1765   3.3414   3.5628   3.5682   3.9062
     3.9485   3.9930   4.3920   4.3999   4.4255   4.5423   4.7023   4.7136
     4.9936   5.0492   5.2067   5.3860   5.6667   5.8662   6.1912   6.3011
     6.4214   6.6624   6.8472

          k = 0.4000-0.6928 0.0000 ( 91502 PWs)   bands (ev):

   -13.2019 -10.5582  -7.8056  -5.9683  -5.9257  -5.3342  -5.1204  -4.7873
    -4.7210  -4.2706  -4.1853  -4.1047  -4.0291  -3.9949  -3.9117  -3.8861
    -3.8665  -3.7888  -3.7595  -3.6992  -3.6716  -3.6497  -3.6278  -3.6162
    -3.5750  -3.5404  -3.4843  -3.4540  -3.4325  -3.4050  -3.3978  -3.3561
    -3.2915  -3.1982  -3.1632  -3.0754  -3.0640  -3.0466  -3.0297  -3.0156
    -2.9369  -2.9327  -2.8755  -2.8292  -2.7873  -2.6359  -2.6052  -2.6012
    -2.5217  -2.4512  -2.4351  -2.4143  -2.3422  -2.3123  -2.2852  -2.2369
    -2.2109  -2.1986  -2.1629  -2.1308  -2.1026  -2.0354  -2.0055  -1.9853
    -1.9827  -1.9690  -1.9507  -1.9222  -1.9059  -1.8534  -1.7944  -1.7648
    -1.7309  -1.7042  -1.6395  -1.6040  -1.5642  -1.5524  -1.5419  -1.5025
    -1.4668  -1.4643  -1.4192  -1.3725  -1.3515  -1.3393  -1.3056  -1.2969
    -1.2450  -1.1867  -1.1559  -1.1113  -1.1085  -1.0887  -1.0481  -0.9999
    -0.9514  -0.9334  -0.9212  -0.9009  -0.8669  -0.8564  -0.8503  -0.8168
    -0.7905  -0.7771  -0.7721  -0.7487  -0.7231  -0.7162  -0.6796  -0.6719
    -0.6637  -0.6533  -0.6254  -0.5950  -0.5722  -0.4597  -0.3753  -0.3087
    -0.2879  -0.2666  -0.2549  -0.1866  -0.1494  -0.1265  -0.0846  -0.0749
    -0.0705  -0.0354  -0.0150   0.0525   0.0618   0.0931   0.1130   0.1181
     0.1995   0.2089   0.2399   0.3311   0.3857   0.4398   0.4523   0.4780
     0.5116   0.5428   0.5838   0.5972   0.6221   0.6459   0.6656   0.6917
     0.7092   0.7355   0.7957   0.8226   0.8644   0.8694   0.8830   0.9123
     0.9209   1.0193   1.0592   1.0660   1.1546   1.2071   1.2504   1.3297
     1.3487   1.3941   1.4240   1.4599   1.4609   1.5458   1.5688   1.6285
     1.6490   1.6692   1.6839   1.7018   1.7293   1.7622   1.8302   1.8412
     1.8484   1.8774   1.8900   1.8965   1.9021   1.9801   2.0865   2.0995
     2.1030   2.1142   2.1318   2.1750   2.2011   2.3186   2.4212   2.7955
     3.2802   3.2882   3.3795   3.4102   3.5934   3.6688   3.6821   3.7775
     4.2491   4.2860   4.3769   4.4644   4.7522   4.7647   4.8995   4.9228
     5.0761   5.1043   5.1869   5.2121   5.5848   5.6781   5.7428   6.0040
     6.2263   6.3837   6.3984

          k = 0.4000-0.4619 0.0000 ( 91502 PWs)   bands (ev):

   -13.2018 -10.5587  -7.8054  -5.9506  -5.9400  -5.3374  -5.1152  -4.7712
    -4.7169  -4.3144  -4.1684  -4.0860  -4.0350  -3.9956  -3.9224  -3.8918
    -3.8444  -3.7797  -3.7654  -3.6830  -3.6725  -3.6615  -3.6289  -3.6171
    -3.5863  -3.5783  -3.4626  -3.4532  -3.4417  -3.3986  -3.3925  -3.3496
    -3.2597  -3.1979  -3.1710  -3.1166  -3.0731  -3.0498  -3.0307  -3.0118
    -2.9876  -2.9330  -2.8589  -2.8094  -2.7971  -2.6317  -2.6110  -2.5573
    -2.5202  -2.4882  -2.4298  -2.4111  -2.3288  -2.3175  -2.2819  -2.2361
    -2.2126  -2.1915  -2.1539  -2.1357  -2.1094  -2.0435  -2.0131  -1.9923
    -1.9837  -1.9544  -1.9501  -1.9378  -1.8930  -1.8701  -1.7934  -1.7537
    -1.7207  -1.6842  -1.6517  -1.5968  -1.5868  -1.5403  -1.5182  -1.4755
    -1.4604  -1.4246  -1.3980  -1.3693  -1.3553  -1.3426  -1.3225  -1.2933
    -1.2481  -1.2158  -1.1377  -1.1255  -1.1027  -1.1014  -1.0505  -1.0186
    -0.9662  -0.9207  -0.9097  -0.8920  -0.8768  -0.8614  -0.8263  -0.8145
    -0.7973  -0.7901  -0.7741  -0.7390  -0.7277  -0.7076  -0.6844  -0.6777
    -0.6699  -0.6492  -0.6302  -0.6057  -0.5656  -0.5311  -0.3733  -0.3425
    -0.2806  -0.2692  -0.2157  -0.1803  -0.1596  -0.1215  -0.1052  -0.0809
    -0.0685  -0.0441  -0.0065   0.0344   0.0630   0.0867   0.1257   0.1557
     0.1985   0.2130   0.2402   0.3516   0.3855   0.4188   0.4662   0.4996
     0.5084   0.5372   0.5797   0.5962   0.6252   0.6406   0.6632   0.6964
     0.7122   0.7419   0.7853   0.8189   0.8502   0.8733   0.8882   0.9196
     0.9285   0.9970   1.0409   1.0807   1.1719   1.1997   1.2852   1.3148
     1.3411   1.3668   1.4260   1.4677   1.5023   1.5172   1.6036   1.6351
     1.6392   1.6649   1.6895   1.7015   1.7229   1.7516   1.8158   1.8405
     1.8526   1.8709   1.8861   1.9025   1.9098   1.9805   2.0662   2.0854
     2.1122   2.1291   2.1402   2.1816   2.1986   2.3166   2.4329   2.7989
     3.2118   3.2913   3.2949   3.5196   3.6333   3.6586   3.6780   3.8271
     4.2092   4.2965   4.3316   4.4568   4.7501   4.8453   4.8944   4.9215
     4.9911   5.1179   5.2107   5.3248   5.4381   5.6904   5.7840   5.9389
     6.2979   6.3869   6.4131

     the Fermi energy is     1.8956 ev

!    total energy              =  -27818.64731316 Ry

     total all-electron energy =  -1326878.704999 Ry
     estimated scf accuracy    <       0.00000034 Ry
     smearing contrib. (-TS)   =       0.00243480 Ry
     internal energy E=F+TS    =  -27818.64974796 Ry

     The total energy is F=E-TS. E is the sum of the following terms:
     one-electron contribution =  -28845.70749393 Ry
     hartree contribution      =   14727.97638046 Ry
     xc contribution           =    -909.09971290 Ry
     ewald contribution        =   12701.79270588 Ry
     one-center paw contrib.   =  -25493.61162747 Ry

     convergence has been achieved in  21 iterations

     negative rho (up, down):  1.254E-02 0.000E+00

     Forces acting on atoms (cartesian axes, Ry/au):

     atom    1 type  1   force =     0.00074643    0.00052445   -0.00445317
     atom    2 type  1   force =     0.00020509   -0.00089378   -0.00771216
     atom    3 type  1   force =    -0.00069505   -0.00016771   -0.00526310
     atom    4 type  1   force =    -0.00074417    0.00034652   -0.00774993
     atom    5 type  1   force =    -0.00035550   -0.00019198   -0.00449726
     atom    6 type  1   force =     0.00072218   -0.00018457   -0.00548913
     atom    7 type  1   force =    -0.00035212   -0.00048083   -0.00512564
     atom    8 type  1   force =     0.00014901    0.00058264   -0.00539380
     atom    9 type  1   force =    -0.00020276    0.00000199   -0.00557289
     atom   10 type  1   force =    -0.00088021   -0.00054861    0.00254385
     atom   11 type  1   force =    -0.00058406   -0.00001853    0.00071397
     atom   12 type  1   force =     0.00131249    0.00191846    0.01112626
     atom   13 type  1   force =     0.00027144   -0.00044906    0.00018315
     atom   14 type  1   force =     0.00032643    0.00038214    0.01278047
     atom   15 type  1   force =     0.00047962   -0.00314186    0.00492650
     atom   16 type  1   force =     0.00230976   -0.00006692    0.01100659
     atom   17 type  1   force =    -0.00225638    0.00226319    0.00541583
     atom   18 type  1   force =     0.00049760    0.00055461    0.00228509
     atom   19 type  1   force =    -0.00022088   -0.00003852   -0.00000820
     atom   20 type  1   force =    -0.00005474    0.00007619    0.00019052
     atom   21 type  1   force =     0.00063207    0.00006217    0.00026309
     atom   22 type  1   force =    -0.00028874    0.00022732    0.00038560
     atom   23 type  1   force =     0.00013186    0.00033322    0.00013011
     atom   24 type  1   force =    -0.00016661   -0.00042091    0.00062198
     atom   25 type  1   force =    -0.00015647    0.00007176    0.00012645
     atom   26 type  1   force =    -0.00013115    0.00009090   -0.00001954
     atom   27 type  1   force =     0.00007296   -0.00035225    0.00006664
     atom   28 type  1   force =    -0.00020019   -0.00023000   -0.00022654
     atom   29 type  1   force =     0.00022163    0.00053181   -0.00005602
     atom   30 type  1   force =    -0.00033766   -0.00016519   -0.00054023
     atom   31 type  1   force =     0.00018688    0.00016941   -0.00023076
     atom   32 type  1   force =    -0.00012215   -0.00010234    0.00003263
     atom   33 type  1   force =    -0.00007243   -0.00045912    0.00099269
     atom   34 type  1   force =    -0.00028802   -0.00006222   -0.00049638
     atom   35 type  1   force =    -0.00019509    0.00034384   -0.00007633
     atom   36 type  1   force =    -0.00016471   -0.00034003   -0.00018289
     atom   37 type  2   force =    -0.00005083    0.00036121    0.00035905
     atom   38 type  2   force =    -0.00076771    0.00054724    0.00259675
     atom   39 type  2   force =    -0.00194837   -0.00382589   -0.00040289
     atom   40 type  3   force =     0.00012543   -0.00030116    0.00012936
     atom   41 type  3   force =     0.00058479   -0.00000439    0.00029731
     atom   42 type  3   force =     0.00044528   -0.00029681   -0.00027842
     atom   43 type  3   force =    -0.00050887   -0.00030897    0.00005798
     atom   44 type  3   force =     0.00001725    0.00048996   -0.00041491
     atom   45 type  3   force =     0.00230668    0.00317266   -0.00304171

     Total force =     0.007585     Total SCF correction =     0.001886
     SCF correction compared to forces is large: reduce conv_thr to get better values

     negative rho (up, down):  1.254E-02 0.000E+00

     negative rho (up, down):  1.254E-02 0.000E+00

     negative rho (up, down):  1.254E-02 0.000E+00

     negative rho (up, down):  1.254E-02 0.000E+00

     negative rho (up, down):  1.254E-02 0.000E+00

     negative rho (up, down):  1.254E-02 0.000E+00

     negative rho (up, down):  1.254E-02 0.000E+00

     negative rho (up, down):  1.254E-02 0.000E+00

     negative rho (up, down):  1.254E-02 0.000E+00

     negative rho (up, down):  1.254E-02 0.000E+00

     negative rho (up, down):  1.254E-02 0.000E+00

     negative rho (up, down):  1.254E-02 0.000E+00

     negative rho (up, down):  1.254E-02 0.000E+00

     negative rho (up, down):  1.254E-02 0.000E+00

     negative rho (up, down):  1.254E-02 0.000E+00

     negative rho (up, down):  1.254E-02 0.000E+00

     negative rho (up, down):  1.254E-02 0.000E+00

     negative rho (up, down):  1.254E-02 0.000E+00

     negative rho (up, down):  1.254E-02 0.000E+00

     negative rho (up, down):  1.254E-02 0.000E+00

     negative rho (up, down):  1.254E-02 0.000E+00

     negative rho (up, down):  1.254E-02 0.000E+00

     negative rho (up, down):  1.254E-02 0.000E+00

     negative rho (up, down):  1.254E-02 0.000E+00

     negative rho (up, down):  1.254E-02 0.000E+00

     negative rho (up, down):  1.254E-02 0.000E+00

     negative rho (up, down):  1.254E-02 0.000E+00

     negative rho (up, down):  1.254E-02 0.000E+00

     negative rho (up, down):  1.254E-02 0.000E+00

     negative rho (up, down):  1.254E-02 0.000E+00

     negative rho (up, down):  1.254E-02 0.000E+00

     negative rho (up, down):  1.254E-02 0.000E+00

     negative rho (up, down):  1.254E-02 0.000E+00

     negative rho (up, down):  1.254E-02 0.000E+00
 BEEFens 2000 ensemble energies
             -0.608905777911392E+02
             -0.361598016126081E+01
             -0.158691390041984E+02
              0.430646970840180E+02
             -0.221763953278492E+02
             -0.205702951332333E+02
             -0.353889161108432E+02
             -0.868011455398972E+02
             -0.465901484153344E+02
             -0.473388887760137E+02
             -0.370370298156301E+02
              0.231210733781064E+01
              0.409549484558752E+01
              0.757915640411477E+01
              0.266599429562433E+01
              0.476379734574141E+02
             -0.209248679879242E+02
             -0.230212130306120E+02
              0.193826552045858E+02
             -0.112720382625082E+03
              0.537989490647054E+02
             -0.290166111192082E+02
             -0.335639135121316E+01
             -0.114226045607218E+02
             -0.880506157046591E+01
             -0.463694963059831E+01
              0.885383865888252E+02
             -0.188034051532399E+02
             -0.902259304212419E+01
             -0.520258339324563E+02
              0.817168725949023E+02
             -0.187076931454040E+02
             -0.376146342981374E+02
              0.249593939418921E+02
             -0.284331007489334E+01
              0.165224758390611E+02
             -0.483499682040087E+01
              0.107868062004187E+02
              0.289895133662302E+02
             -0.103548356482220E+03
              0.560075211279108E+02
              0.142854557781605E+02
             -0.177850927854007E+01
             -0.362290091439053E+02
              0.123574104043845E+02
             -0.147377827565480E+02
              0.400000205376801E+02
              0.365775747879184E+02
             -0.308358955951824E+02
             -0.276051353509027E+02
             -0.329370326107386E+02
             -0.353399895389362E+02
              0.137400579662514E+02
             -0.492431266683922E+02
              0.116147119680404E+02
              0.625076858118331E+02
              0.637840374665840E+02
              0.356731498980919E+02
              0.154522165371133E+02
              0.271755176803281E+02
              0.894245137958094E+02
              0.212813860002539E+02
             -0.550127181617338E+02
             -0.157275309228410E+02
             -0.236906387048690E+02
              0.631664964321820E+02
             -0.775347475999124E+02
             -0.673486164144560E+02
             -0.260728194113809E+02
             -0.657818703080602E+01
             -0.471769844962694E+02
              0.271520630006657E+02
              0.805086774802214E+01
              0.872887007088292E+01
             -0.398445443537861E+02
             -0.347913803891793E+02
             -0.543794619126758E+02
              0.390961300840078E+02
             -0.297025217122515E+02
              0.266455330342472E+02
             -0.719623734880859E+01
             -0.318761510816639E+02
             -0.577375323872181E+02
             -0.177009461080075E+02
             -0.910726287250395E+01
             -0.124946739566302E+02
              0.413429517862464E+02
              0.685473108113542E+02
             -0.387072946921550E+02
             -0.796949858701428E+02
             -0.220184377539047E+02
              0.111812675769104E+03
             -0.594167423648417E+02
              0.356982681481274E+02
             -0.962118636301329E+01
             -0.664819175849131E+02
              0.255260885065030E+02
              0.398686695032156E+02
             -0.199294841782177E+02
              0.400990040766173E+02
             -0.296603707516417E+02
             -0.480344900134244E+02
              0.869140247860593E+02
              0.455184104917387E+02
              0.336813991726110E+02
              0.146780854370821E+02
              0.206509842848689E+02
              0.858949866659299E+02
             -0.257553582824893E+02
              0.788735009344619E+01
             -0.142804126913268E+03
              0.181477485172121E+02
             -0.718114420907213E+02
              0.151329870992603E+02
              0.205272555068299E+02
             -0.334190670891730E+02
             -0.558538195722301E+02
              0.652462776232858E+01
             -0.305190769807915E+02
              0.309402256773992E+02
             -0.531177443762737E+02
              0.167601356582873E+01
             -0.358126870766442E+02
             -0.424692935487548E+01
             -0.985037000480560E+00
              0.182257109905180E+02
              0.141603715705162E+01
             -0.652635692720810E+01
              0.592638471355254E+02
              0.911034369792546E+02
              0.485694022770348E+02
              0.831842643051546E+02
             -0.115470586016614E+02
              0.143110099419317E+02
              0.542506042681113E+02
             -0.110232660413315E+02
             -0.738046030893434E+02
             -0.385679765041552E+02
             -0.523232994760673E+02
             -0.277568447211786E+02
              0.328072978656502E+02
             -0.117148993926707E+03
             -0.187421032172874E+02
              0.415550342451988E+02
             -0.387502625478757E+02
             -0.365923938267064E+02
              0.546270448113050E+02
              0.402112525638781E+02
             -0.354720806403583E+02
              0.139154984390277E+02
             -0.274059756516551E+02
              0.344281793435835E+02
              0.446937523045949E+01
              0.211303210345692E+02
             -0.887062198113586E+02
             -0.481525412393573E+02
             -0.998886489681536E+01
              0.320353333286209E+01
             -0.368154064242108E+02
              0.106367449900606E+03
             -0.231046867139424E+02
             -0.399423651229450E+02
              0.389883876344056E+02
             -0.495423226038670E+02
             -0.364688215809272E+02
              0.325963086155191E+02
              0.125003198840420E+02
              0.165113437557850E+02
              0.117276919770787E+02
             -0.133166509040467E+02
              0.225253713847545E+02
              0.591823469378969E+02
             -0.312260276342867E+02
              0.163225438680140E+02
              0.937073599905207E+02
              0.341675435435901E+02
             -0.729188538488734E+01
             -0.189318065659710E+02
              0.153813113909641E+03
             -0.165036758710611E+02
              0.364554816978999E+02
              0.195587141889118E+02
              0.362116330724756E+02
              0.894697835837695E+02
              0.544246060152350E+02
             -0.241553189311688E+01
              0.228629369605583E+02
              0.486504879749092E+02
              0.364522138090784E+02
             -0.527457723013032E+02
              0.938824438608117E+02
             -0.828181211723585E+02
             -0.198100697105483E+02
              0.584383301087543E+02
              0.685093651485259E+01
              0.791381595822133E+01
              0.341458252824999E+02
              0.299501026786121E+02
              0.354532678422672E+02
             -0.639377106618012E+02
              0.286846502001333E+01
             -0.298251628762990E+02
             -0.869705265763044E+01
             -0.146891690618963E+01
             -0.728146719326332E+01
             -0.416862824752712E+01
              0.861818328031696E+02
             -0.101193998644148E+02
             -0.277105844826089E+02
             -0.496413158080381E+01
              0.140502257225140E+02
             -0.565921228197865E+02
             -0.409298252636310E+02
             -0.383042688886790E+02
             -0.632075522458078E+02
             -0.170290454767735E+02
             -0.448683550837524E+02
              0.163741857957600E+02
             -0.236922538156291E+01
             -0.104880953478666E+02
             -0.936190631638740E+01
              0.808522459193631E+01
             -0.242793461573868E+02
              0.691347346840835E+02
             -0.809986168351278E+02
             -0.141434221529092E+02
             -0.174356841055038E+02
              0.182352905371031E+02
              0.215434376680805E+02
             -0.465362606448639E+02
             -0.202037401009031E+02
              0.442313376338379E+02
             -0.276655366847275E+02
              0.187478241254551E+02
              0.383675100232768E+02
             -0.321911516035675E+01
              0.114466634402698E+03
             -0.229990287366008E+02
             -0.341881928728877E+02
              0.576725608996412E+01
             -0.229187975747335E+02
              0.529323292864491E+02
             -0.339036541299893E+02
              0.107113131139943E+02
              0.641620074091009E+02
             -0.126628444482234E+02
              0.120574660956441E+03
              0.126239537234933E+03
             -0.651910346451671E+02
              0.592281146360870E+02
              0.167505448429067E+02
             -0.519522629964047E+02
              0.216552085193177E+02
              0.355521766751859E+02
              0.364373701578797E+02
              0.135328870143897E+01
              0.160576163934378E+02
              0.698219075882339E+02
             -0.247686460977270E+02
              0.181552728422894E+02
              0.740695612219969E+02
             -0.373542112618390E+02
             -0.130755371417208E+02
              0.510557520214155E+02
              0.298436453915502E+02
              0.782446692347235E+02
              0.224006508660018E+02
              0.631938415023160E+01
              0.281202451542171E+02
              0.384642835228571E+02
             -0.473743077260739E+02
              0.336733115373488E+01
              0.130998257827231E+02
              0.114095543676688E+02
              0.221371306048453E+02
             -0.576836454117177E+02
              0.366838593451346E+02
             -0.445060639674682E+02
             -0.348429657896547E+02
              0.178843098306326E+02
             -0.181532428070786E+02
              0.557051878734665E+02
             -0.255939663233737E+02
              0.267690709047992E+02
              0.369113224008645E+02
              0.831411862779284E+02
              0.576125600372125E+02
              0.463364868175167E+02
             -0.105165440385173E+02
             -0.395944092230383E+01
             -0.332986143483837E+02
              0.753302548368752E+02
              0.799656599816119E+02
              0.363155643317498E+02
             -0.192976331743415E+02
              0.513247607104044E+02
             -0.162526147589703E+02
              0.214977774671362E+02
              0.616758855500770E+02
              0.212253000680730E+01
             -0.104771529370238E+02
             -0.283309491201039E+02
             -0.513861356330412E+02
              0.948153965344161E+02
              0.441654839362758E+02
             -0.561245592885511E+02
             -0.970592255863718E+01
              0.250482212172418E+02
             -0.998648706904947E+01
              0.594169681755339E+02
              0.152592229639417E+02
              0.801667127535948E+02
              0.280667666281089E+02
             -0.264274564092568E+02
              0.249167959693949E+02
             -0.504627616533122E+01
             -0.324062151293497E+02
              0.133554781341450E+02
              0.205906043799200E+02
              0.935777967162675E+02
              0.799582742141753E+02
              0.552906517422473E+02
              0.732459745939188E+02
              0.803374017557545E+01
             -0.274341788245207E+02
              0.163529232471068E+02
             -0.368977281189226E+02
             -0.478241329000051E+02
             -0.565141131330255E+02
             -0.267678960656413E+02
             -0.110021673462412E+03
             -0.292733121439243E+02
             -0.839992333076053E+02
              0.210799813696484E+02
             -0.478378768699479E+02
              0.398680811496448E+02
             -0.944639791887529E+02
             -0.330911492374684E+02
              0.549240004632513E+02
              0.208239934181409E+02
             -0.833540831832385E+02
              0.632268829595748E+02
             -0.257809952821278E+02
              0.514183787923374E+02
             -0.243189450806910E+02
             -0.753659338657668E+02
              0.112558650968017E+02
             -0.613437177189559E+02
             -0.167920159005084E+02
             -0.151194672414391E+01
              0.419349122383250E+02
              0.127396053319696E+03
             -0.462854901837479E+02
             -0.363741104553847E+02
             -0.101344318659903E+01
             -0.130356836805927E+02
             -0.824966120432241E+02
             -0.598455325375531E+02
              0.518546047856637E+02
             -0.289322668679699E+02
              0.170217224469452E+02
             -0.490889455370439E+02
             -0.132560102284659E+02
             -0.438527610289254E+02
              0.566976803410681E+02
              0.151050777421773E+02
             -0.232416996968495E+02
             -0.127759710934924E+02
              0.672244287584515E+01
             -0.621420622468986E+01
              0.442728893662196E+02
             -0.252786476656345E+02
              0.284513652141015E+01
              0.340370810029705E+02
              0.171412641714752E+02
             -0.160806628323188E+02
              0.156726205094285E+03
              0.540119933804802E+02
              0.121164678469543E+01
              0.161757649697920E+02
             -0.616682107624306E+02
              0.316144308318619E+02
             -0.724227243688381E+02
             -0.253308898332720E+02
             -0.524481605012024E+02
             -0.220673398426777E+02
              0.571118160195005E+02
             -0.538754984383447E+02
              0.161996383157798E+02
             -0.410802474697471E+01
              0.387288468686327E+01
             -0.434725288588000E+02
             -0.479506746514342E+02
             -0.406260167216283E+01
             -0.425457058590584E+02
             -0.217704555187667E+02
             -0.439816950809701E+02
             -0.119336186689339E+02
             -0.359925829210209E+02
             -0.517914389136632E+02
              0.213230484284776E+02
             -0.209485843526544E+02
              0.188684889849815E+02
              0.976204407189280E+01
             -0.740395017439741E+02
             -0.549473020292646E+02
             -0.400106322730896E+02
              0.355024485202382E+02
              0.267027859508190E+01
             -0.628422538997839E+02
              0.587518507976491E+02
             -0.402450404166042E+02
              0.546868061478884E+02
             -0.290673586376958E+02
             -0.447384283043887E+02
              0.299024578600519E+02
             -0.659934704562448E+02
             -0.380652444818853E+02
              0.674345056679483E+02
              0.204684675056561E+02
             -0.361778561469966E+02
              0.491258247596966E+02
             -0.174570923739998E+02
             -0.323988638187274E+02
             -0.302656524975816E+02
             -0.502311919084406E+02
              0.250429865118414E+02
             -0.935667318436102E+02
             -0.842348739669931E+02
             -0.736880759365113E+01
             -0.307690729845208E+02
             -0.577700143989344E+02
              0.724277481600583E+02
              0.131965694498934E+03
             -0.361253049102591E+02
             -0.257598346673183E+01
             -0.638808598826902E+02
              0.652573173023625E+02
              0.171529740351702E+02
             -0.182598619583373E+02
             -0.411061394426104E+02
              0.149017345017340E+02
             -0.587864680907912E+02
             -0.198027535566840E+02
             -0.907207310959433E+02
              0.338149224627051E+02
              0.169180612092247E+02
              0.180802270207198E+01
             -0.712007676199619E+01
             -0.331325493673166E+02
             -0.763745228736133E+01
              0.125966124013854E+03
             -0.199399379840695E+02
             -0.439093536821024E+02
             -0.686189958748090E+02
              0.109730631589747E+02
             -0.343482493451756E+02
              0.595501054291418E+01
              0.262597758550592E+02
              0.102345274507770E+02
              0.279159821571168E+02
              0.120632013158167E+02
              0.631389415310904E+02
              0.317269117561475E+02
             -0.327803498382351E+02
              0.357679047513374E+02
              0.380582885286129E+02
              0.121301285494216E+02
              0.488066652099789E+02
             -0.226053274164442E+02
              0.768002268608107E+02
              0.173474295714442E+02
             -0.273332544909949E+02
             -0.725111643560196E+01
             -0.186871954608465E+02
              0.262095768407947E+02
             -0.235006439616542E+02
             -0.193990030684972E+00
             -0.853886992841069E+01
              0.812099163576826E+02
              0.501921855204412E+02
             -0.688796544883231E+02
             -0.481237586715963E+01
             -0.556826081774144E+02
             -0.159678946872675E+02
             -0.269016634321533E+02
              0.380189917820462E+01
              0.589354489580479E+00
             -0.258608217670690E+02
              0.821364884632490E+01
             -0.606254736358363E+01
             -0.128647823578688E+02
              0.861691287489617E+02
              0.182122146243933E+02
             -0.809659419816117E+02
             -0.459319848104035E+02
              0.948158911188551E+02
              0.278555839998601E+02
             -0.107122992281535E+02
              0.104901719499849E+03
             -0.195125307023940E+02
             -0.123167576937674E+02
             -0.544483280299812E+01
              0.107989758567023E+02
              0.273666729807591E+02
              0.781779381030537E+01
              0.306329392027855E+02
             -0.188106339852635E+02
             -0.305388189679381E+02
             -0.419037494297803E+02
             -0.478344188034374E+02
              0.465065978994396E+02
              0.127312095091251E+02
              0.388841888235544E+02
              0.133992953012267E+02
              0.858485391830496E+02
              0.157229062858272E+02
             -0.848420024531459E+02
             -0.335465811752283E+02
              0.133650408037965E+02
             -0.303744642815088E+02
              0.628687411979128E+02
             -0.891877924754704E+01
              0.149218370404617E+02
              0.499158469154203E+02
             -0.709941153231207E+02
              0.150198183850140E+03
              0.209347889968450E+02
              0.272162786813268E+02
              0.348906962807418E+02
              0.103801577067159E+02
             -0.156245986785848E+01
              0.359347548505140E+02
             -0.358343486356347E+02
              0.776100670296055E+02
              0.687366673156117E+02
             -0.407274565241630E+02
              0.150126424714814E+02
              0.672540762673701E+02
             -0.224562557997743E+02
              0.155156825853169E+02
              0.435827447937565E+02
              0.423369988595607E+02
             -0.787094479252192E+02
             -0.152694365546961E+02
             -0.356745474574448E+02
             -0.150498451322051E+01
             -0.770303915791422E+01
             -0.539209245711379E+01
             -0.180783031862363E+02
             -0.294992877907287E+02
              0.642193494967165E+01
              0.111757852452252E+02
              0.537348025079948E+02
             -0.391891605473197E+02
              0.376222878068676E+02
              0.440207575472636E+02
             -0.186610158000145E+02
              0.874260090247207E+02
             -0.700022924628260E+02
             -0.103499594654855E+03
             -0.663343278096262E+01
             -0.270275065373653E+01
              0.384733110807076E+01
              0.792030329778002E+02
             -0.106979062363929E+02
              0.418131463879348E+02
              0.445878195654024E+02
              0.386448313940704E+02
             -0.997585088967730E+01
              0.629172126169356E+02
             -0.134110763833657E+02
             -0.308861746070949E+02
             -0.480216159698414E+02
              0.593985069471654E+01
              0.370444849013631E+02
             -0.602047849249382E+01
              0.393862322690911E+02
             -0.173685748202018E+01
              0.656782908274691E+02
              0.187623172473861E+02
              0.100089956462038E+02
             -0.121580269051211E+02
              0.332969171316123E+02
              0.363905774173310E+02
              0.233001312261630E+02
             -0.527202165583617E+00
             -0.552419709623595E+02
              0.261674037097305E+02
              0.175854416273214E+02
              0.403524041602782E+02
              0.273102530537425E+02
              0.373724904530869E+02
             -0.608466154564272E+01
              0.252441284343530E+02
             -0.299641434649452E+02
             -0.198533690708587E+01
             -0.570767090472357E+02
             -0.309019806160675E+02
              0.380201094229610E+02
             -0.938361506519092E+02
              0.294997669365206E+02
              0.184423246352842E+02
              0.843025255673384E+02
             -0.300481136972663E+02
              0.330654635825890E+02
             -0.138003862513862E+02
             -0.465553284378457E+02
             -0.763438329044607E+02
             -0.533130183596546E+01
             -0.862931197670177E+02
              0.199733954539737E+02
             -0.248164746944292E+02
              0.306971574514242E+02
              0.237893788675207E+02
             -0.242219223052115E+02
             -0.266622063753795E+02
              0.392329956619780E+02
             -0.590243448035046E+02
             -0.117177622539968E+02
             -0.196533776075964E+02
              0.213802484225768E+02
             -0.885379692205464E+01
              0.361911671988062E+01
             -0.200934887350112E+02
              0.560361899570779E+02
             -0.441867221124236E+02
              0.788297291862943E+01
              0.587348162670678E+02
             -0.324702354864641E+02
              0.362784743567920E+01
             -0.878734409376580E+01
             -0.671256546515839E+02
             -0.483364752252006E+02
             -0.859600810006374E+01
              0.241854868836282E+02
              0.303536375285971E+02
              0.861751615483871E+01
             -0.419305678847161E+01
              0.152171336738314E+02
             -0.440986902001805E+02
              0.329049966967887E+01
             -0.532950440747812E+02
             -0.325695040476098E+02
              0.476423280647356E+02
             -0.296140605180697E+02
              0.624893123809499E+02
             -0.215643817202053E+02
              0.354630641949799E+02
              0.242526698937771E+02
             -0.646009074016692E+02
             -0.281059629503501E+02
              0.936661669677699E+01
             -0.373237934500517E+02
             -0.341004941986804E+02
             -0.832896881554466E+02
             -0.540996865793252E+02
             -0.511938803867144E+02
             -0.417105914154066E+02
             -0.997109606906207E+00
              0.100563155531433E+02
              0.111047959013490E+01
              0.154325917284082E+02
             -0.551189156916393E+02
              0.142351999483770E+02
              0.258044741451239E+02
             -0.669061658992863E+02
             -0.703722719515529E+02
             -0.432629784530526E+02
             -0.173316602124395E+02
              0.178752883978471E+02
              0.452771973606968E+01
             -0.427188053816830E+02
              0.366842121290017E+02
             -0.217142096546572E+02
              0.519158510222708E+02
             -0.890053782758635E+02
              0.599987231926808E+02
             -0.219449553333910E+01
             -0.370025335244498E+02
             -0.217151202125527E+02
              0.470915134162523E+01
              0.376409094096240E+02
             -0.758462806954489E+02
             -0.121079290381007E+02
             -0.217171724583235E+02
              0.512176480283043E+02
              0.867421758540434E+02
             -0.968589296888682E+02
              0.946902380360065E+02
              0.468746178703875E+02
             -0.727918904721262E+02
             -0.367422599740233E+02
              0.754630768330655E+02
              0.633754774647260E+02
             -0.182000032745194E+02
             -0.467285887878427E+01
              0.740589627135451E+01
              0.651828853135848E+02
             -0.510567735927089E+02
              0.158595443136551E+02
[...]
              0.284193912676440E+02
              0.142185159507862E+03
              0.243557709096684E+02
              0.123164645995249E+02
             -0.465675765466289E+02
             -0.639116814945827E+02
             -0.189358624832627E+02
              0.330663437546553E+02
             -0.429358886047146E+01
              0.190957800669531E+02
              0.337209594939802E+02
             -0.588133230997377E+02
              0.223312523902817E+02
              0.582516435439984E+02
              0.554390851340131E+02
             -0.423060170578913E+01
             -0.133037823384620E+01
             -0.995621200196473E+01
             -0.483451989822633E+02
             -0.677318595046484E+02
              0.787473125317850E+02
             -0.527037897945991E+01
             -0.589268134638643E+02
              0.175913150796566E+01
             -0.206371014838336E+02
              0.940930292543329E+02
             -0.217210597650417E+02
             -0.354844904740847E+02
              0.336587588439729E+02
             -0.146336318602057E+02
              0.391043091809463E+02
             -0.232685474020491E+01
              0.101335929952267E+03
              0.491451558039890E+02
             -0.503348847718934E+01
             -0.323187254073868E+02
              0.233335751340591E+02
             -0.530071209909513E+02
             -0.127847784189022E+02
              0.587632600775846E+02
             -0.288425271161709E+02
             -0.439441966178392E+02
             -0.223970564253930E+02
              0.520101106335613E+02
              0.124999955506783E+02
             -0.851233544425470E+02
              0.305015286756603E+02
              0.151961752583932E+02
              0.582064088545033E+01
             -0.514837001014348E+02
             -0.373300941799977E+01
              0.324011722960310E+02
              0.513953622144123E+02
              0.634722721096945E+02
              0.230191802835204E+02
              0.777873643763087E+00
             -0.499881993982688E+02
             -0.511237613216351E+02
             -0.749437793232759E+02
             -0.621404761460292E+01
              0.310053803180172E+02
             -0.378750688532639E+01
              0.548268233872479E+02
             -0.319017565533724E+02
              0.166844935776154E+02
             -0.103692932848005E+02
             -0.290374298729497E+02
              0.587474506686269E+02
              0.793173814399876E+01
              0.606273022002563E+02
              0.512342353872066E+01
              0.265375987692928E+02
             -0.193108336631415E+02
              0.587817013202744E+02
             -0.112245156182806E+02
             -0.116275030895160E+00
             -0.792449353458114E+02
             -0.128439565137762E+02
              0.721022637310109E+02
              0.674873616197459E+02
              0.252670732271768E+02
             -0.130948652723858E+02
              0.347036185777114E+01
             -0.174423204141359E+02
             -0.216617360712775E+01
              0.910594418605815E+02
              0.128683132361857E+01
             -0.191445581879800E+02
             -0.111044858431331E+03
             -0.553449590106548E+02
             -0.376182811004980E+02
             -0.660207383394722E+02
             -0.557368116353853E+02
             -0.684584452744386E+02
             -0.448399669633990E+02
             -0.411372349022975E+02
             -0.453388560676682E+02
              0.484786530937228E+02
             -0.294344077356729E+02
             -0.997279213990746E+02
              0.420196360246210E+02
             -0.261062942305668E+02
             -0.793031970538907E+02
              0.946831052618128E+02
             -0.220525692466592E+02
              0.228343725113172E+02
              0.456137412387222E+02
             -0.126148532661239E+01
              0.255254068480612E+02
              0.472103155142588E+01
              0.426446685043889E+00
             -0.151085310968507E+02
             -0.718020094022351E+02
              0.133642951788314E+02
             -0.129698710896285E+03
              0.626602241137194E+02
             -0.441782791917765E+02
             -0.163710554283038E+02
             -0.158820728624804E+02
              0.723567828896000E+01
             -0.228033119180748E+02
              0.297857236384706E+02
             -0.522383151609195E+02
              0.368079953843403E+02
              0.372370426630923E+02
              0.168308491358107E+02
              0.100900561727238E+02
              0.198516928820157E+02
              0.626443842262239E+01
              0.311042762301182E+02
             -0.798983090363632E+01
             -0.594992502041393E+02
              0.760064762098074E+01
             -0.153764364168109E+02
             -0.194872210311257E+01
              0.508217671959536E+02
             -0.829070125879059E+02
             -0.148162371879891E+01
              0.591942913227626E+00
              0.999027891412987E+01
              0.319190517368938E+02
             -0.123821852168743E+02
              0.838092680135862E+02
              0.488339668405648E+02
             -0.183590730597052E+02
             -0.956552018123045E+01
              0.110100933096777E+01
              0.771753002576573E+02
             -0.587458543428714E+02
             -0.106052106083378E+03
              0.310127631273619E+02
             -0.163443600881126E+02
             -0.140145123793452E+02
              0.131102887917707E+02
              0.770619715958510E+02
              0.465237161858278E+02
             -0.153795416707594E+02
             -0.504687827797247E+02
             -0.555047794255525E+01
              0.307167449193270E+02
             -0.112265256167140E+02
             -0.758010412780789E+02
             -0.276410845147433E+01
             -0.892916493109730E+02
             -0.477248560005796E+02
              0.771237384255800E+02
             -0.485112956286398E+02
             -0.638757961248021E+02
             -0.515831129680075E+02
             -0.351005553357234E+02
              0.342120269620976E+02
              0.824235480116122E+02
             -0.361992058548532E+01
              0.277272048492588E+02
             -0.184561626863329E+02
             -0.695932800165284E+02
              0.466578640010374E+02
             -0.446566849315458E+02
              0.322303396556696E+02
              0.376854847279772E+02
             -0.663128598668686E+01
              0.391270236562725E+02
              0.439295110968203E+02
              0.101057088918682E+03
             -0.156037952921678E+02
             -0.458130047130539E+02
             -0.614639968654303E+02
             -0.124599742892037E+02
             -0.234644233906624E+02
              0.103246518103951E+03
             -0.450327642350462E+02
              0.105533960311214E+02
              0.970212905913888E+01
             -0.264941608465487E+02
             -0.801624934800138E+02
             -0.701498857994801E+01
              0.982830486241350E+02
              0.948687982175591E+01
              0.811134281100061E+01
             -0.528997761230026E+02
             -0.606846372705154E+02
             -0.571358424041907E+01
              0.501519849655201E+02
             -0.222793765052570E+02
              0.108243083119753E+03
             -0.437299579217359E+02
              0.146980543536484E+02
             -0.224122541956795E+02
             -0.720164735365551E+02
              0.170942589687075E+01
             -0.503395279824820E+02
             -0.762744066552850E+02
              0.621239725609939E+01
              0.235910437862063E+01
              0.515549254357076E+02
              0.188198138611744E+02
             -0.324628124421242E+02
              0.230613740863139E+02
             -0.813878831371064E+02
             -0.522848880251098E+02
              0.904432791051882E+02
              0.142133234290440E+02
             -0.187830772518092E+02
             -0.352927498336342E+02
             -0.269733810648052E+01
             -0.591828303498914E+01
              0.833237562765547E+02
              0.418997319737114E+02
             -0.165995506726641E+02
             -0.121583758066319E+02
             -0.428664458398529E+02
             -0.200797586551046E+02
             -0.671526991236069E+02
              0.461217860184018E+02
              0.548213807676208E+01
              0.144861823702357E+02
              0.156861801943174E+02
             -0.621246788953744E+00
             -0.169225276813226E+02
             -0.301340092745347E+01
             -0.100770038346538E+03
             -0.229979092987671E+02
             -0.769221472747239E+01
             -0.949017101995651E+01
              0.547395332593617E+02
              0.625837608618119E+02
              0.165399779540967E+02
             -0.973229671985527E+02
              0.649243186306694E+02
             -0.215692730957971E+02
             -0.378024831034601E+02
             -0.866717336169471E+02
             -0.387463926637283E+02
              0.566631977700604E+02
              0.245473285270342E+02
              0.520273411306738E+01
              0.293452987711186E+02
             -0.566459943750664E+02
             -0.423956490324896E+02
              0.517174508506632E+02
              0.388433752519580E+02
              0.520028001828938E+02
             -0.115604870225778E+01
              0.689328837006701E+01
              0.570960264440113E+02
              0.965521599702231E+02
             -0.300454785506153E+02
              0.324157000226160E+02
             -0.120065477670867E+02
             -0.413469844547879E+02
             -0.315387306202543E+02
             -0.301390237018704E+02
             -0.131706165827380E+02
             -0.524641670371640E+02
             -0.217493214424618E+02
             -0.141515486551595E+03
              0.369769046551215E+02
              0.207776759048480E+02
             -0.395621534033850E+01
             -0.380922772820630E+02
             -0.204537854522457E+02
             -0.528529912198281E+02
              0.151232096736820E+02
              0.822175643440055E+02
             -0.252726078655375E+02
             -0.163567612002813E+02
              0.238621981086200E+02
             -0.490992179070482E+02
              0.882846875257255E+02
              0.154705792736083E+02
              0.226162306553580E+02
              0.491538594169573E+02
              0.315597104401149E+01
              0.543744665376930E+02
              0.143673379558184E+02
             -0.106263780786466E+02
              0.734860700018490E+01
              0.730441044985980E+00
              0.728865890653002E+02
              0.101384643239143E+02
              0.121365720251685E+02
             -0.130422904960618E+02
              0.132675393552365E+02
             -0.913873885750804E+02
             -0.326687921264902E+02
             -0.458907778148216E+02
              0.486452697897942E+02
             -0.292253403832814E+02
             -0.659794920025972E+02
              0.540186938405160E+02
             -0.122387110734724E+02
              0.441061568256121E+02
             -0.901191875430220E+02
              0.232140426395294E+02
              0.857192247898635E+01
              0.585293456160514E+01
             -0.837776912147348E+01
             -0.906429455297439E+01
              0.480943500395569E+02
              0.201492748578835E+01
             -0.476735517938843E+02
             -0.176912400490337E+02
              0.276987617274789E+02
             -0.118250788654886E+03
             -0.931926152412707E+02
              0.396111223520660E+01
              0.118335794601681E+02
             -0.414867617064456E+02
             -0.386982641045586E+01
              0.112376632711498E+03
              0.307072132585943E+02
             -0.572967214675306E+02
              0.927361746719552E+01
             -0.968296158080031E+01
              0.106143416310731E+02
             -0.338773052230117E+02
              0.196312582852480E+02
              0.285135998332158E+02
             -0.301269091264362E+01
              0.108493403285116E+03
             -0.140195451057538E+02
             -0.316852946302372E+02
              0.144214923122294E+02
              0.467902040227373E+02
             -0.356615006614807E+02
             -0.317143967395347E+01
              0.967659859806410E+02
             -0.464997340236323E+01
              0.623078328572373E+02
              0.135926293317168E+02
             -0.901777688237785E+01
             -0.305490922373037E+02
              0.567611462405391E+02
             -0.516071474824660E+02
             -0.220883046072248E+01
             -0.170788708664491E+02
             -0.406214334994950E+02
              0.185202052123659E+02
              0.240093396927762E+02
              0.115797670264438E+02
              0.724218722932278E+00
             -0.385765242305428E+02
              0.215644050577334E+02
             -0.674741450229459E+01
             -0.246963807607519E+02
             -0.211054483118186E+02
              0.203551709508100E+02
             -0.596067939772172E+01
             -0.350308295005803E+02
             -0.106948215075609E+03
              0.103165937250490E+02
              0.248866219580875E+02
             -0.388749298596449E+02
             -0.211700257711840E+02
              0.809382915315725E+02
              0.657758701523744E+01
              0.312338937231227E+02
              0.395191787230377E+01
              0.323102634114825E+02
              0.647204235223154E+01
             -0.374046360953074E+02
             -0.240284369522053E+01
              0.876480490895619E+01
              0.274979067643941E+02
              0.783719616840692E+02
              0.508846280122232E+02
              0.201706399021703E+00
              0.169502038242003E+02
              0.614935115908467E+02
              0.236751041419897E+02
             -0.754611918625868E+02
             -0.274605755928082E+02
              0.151209978889176E+02
              0.564734860262882E+01
              0.255655748041756E+02
             -0.549175509955027E+02
              0.897468969828151E+01
              0.387271937081921E+02
              0.499378124092228E+02
             -0.436024422195788E+02
             -0.685647983642883E+01
             -0.209359333663429E+01
             -0.134579328809788E+02
             -0.365995253831192E+02
             -0.215364805109747E+02
             -0.210084181467290E+01
              0.797507165295241E+01
              0.422613730717073E+02
             -0.309219350532573E+02
              0.828435796273582E+02
              0.328356363718579E+02
              0.220587653441208E+02
              0.334253238732521E+02
              0.323628035390970E+02
              0.347415853099754E+02
              0.538746503015901E+02
             -0.435290565948377E+02
              0.621331493737563E+02
             -0.112609213307592E+03
              0.308277346792676E+02
             -0.106814896002406E+03
              0.856881794151110E+02
              0.692985792169450E+02
             -0.110020460893954E+02
             -0.494500288709203E+02
             -0.430825001319777E+02
             -0.624919606096507E+02
             -0.630709945607366E+02
              0.553358628619087E+02
              0.406609196378587E+02
              0.237474261068955E+02
              0.374283000647713E+02
              0.404681998419181E+02
             -0.383353876123872E+02
             -0.198162713262272E+02
              0.587874887216734E+02
             -0.116380791914563E+02
              0.553173891578756E+02
              0.701711288735505E+02
             -0.556285906722686E+01
             -0.708493670971969E+02
             -0.859110936560683E+00
             -0.247306094336955E+01
             -0.885869864968299E+01
             -0.179056566998548E+01
             -0.654649665678841E+02
             -0.210553018369336E+02
              0.545408690951080E+01
              0.905807634142278E+01
              0.470409884317796E+02
             -0.399087558014612E+02
              0.658471703538546E+02
             -0.426342136219728E+02
              0.211409195859183E+02
              0.351647234664510E+02
 
 BEEF-vdW xc energy contributions
           1 :   -784.819949302692     
           2 :    720.774148676313     
           3 :   -609.937800776027     
           4 :    479.527186099676     
           5 :   -357.144249580369     
           6 :    262.663635069292     
           7 :   -203.754911809063     
           8 :    175.868457787088     
           9 :   -166.265847833570     
          10 :    160.199037011833     
          11 :   -146.732163032400     
          12 :    122.012517865930     
          13 :   -89.1294053982519     
          14 :    55.1851057291981     
          15 :   -27.2710352144112     
          16 :    9.17154561580571     
          17 :  -7.370531555670823E-002
          18 :   -4.46020502320562     
          19 :    9.97451969306280     
          20 :   -20.3897067868136     
          21 :    36.3161760185485     
          22 :   -55.0716890858693     
          23 :    72.2154014020192     
          24 :   -83.7638092861932     
          25 :    88.0041824137902     
          26 :   -86.1056592593497     
          27 :    81.3461646767256     
          28 :   -77.4292973021782     
          29 :    76.7321452617948     
          30 :   -79.3045038667627     
          31 :   -86.1958737434686     
          32 :   -66.0239973856145     

     Writing output data file ./pwscf.save/
 
     init_run     :    356.16s CPU    360.62s WALL (       1 calls)
     electrons    :  15420.24s CPU  15613.14s WALL (       1 calls)
     forces       :    105.21s CPU    106.43s WALL (       1 calls)

     Called by init_run:
     wfcinit      :    308.67s CPU    312.15s WALL (       1 calls)
     potinit      :     44.44s CPU     44.76s WALL (       1 calls)
     hinit0       :      1.15s CPU      1.19s WALL (       1 calls)

     Called by electrons:
     c_bands      :  12885.12s CPU  13003.57s WALL (      22 calls)
     sum_band     :   1833.54s CPU   1846.98s WALL (      22 calls)
     v_of_rho     :    116.84s CPU    121.42s WALL (      22 calls)
     newd         :     33.69s CPU     46.27s WALL (      22 calls)
     PAW_pot      :    147.51s CPU    147.52s WALL (      22 calls)
     mix_rho      :    448.72s CPU    449.52s WALL (      22 calls)
     vdW_kernel   :     33.58s CPU     33.58s WALL (       1 calls)

     Called by c_bands:
     init_us_2    :     90.22s CPU     90.41s WALL (     598 calls)
     cegterg      :  11981.70s CPU  12089.80s WALL (     286 calls)

     Called by *egterg:
     cdiaghg      :    115.24s CPU    115.26s WALL (    1835 calls)
     h_psi        :   7743.04s CPU   7780.25s WALL (    1861 calls)
     s_psi        :   1259.27s CPU   1259.29s WALL (    1861 calls)
     g_psi        :     18.22s CPU     18.23s WALL (    1562 calls)

     Called by h_psi:
     h_psi:calbec :   1175.66s CPU   1175.74s WALL (    1861 calls)
     vloc_psi     :   5278.48s CPU   5280.01s WALL (    1861 calls)
     add_vuspsi   :   1259.23s CPU   1259.25s WALL (    1861 calls)

     General routines
     calbec       :   1717.01s CPU   1717.11s WALL (    2199 calls)
     fft          :     54.98s CPU     55.00s WALL (    3342 calls)
     ffts         :    146.29s CPU    146.31s WALL (    9488 calls)
     fftw         :   5376.39s CPU   5377.37s WALL (  366804 calls)
 
     Parallel routines
 
     PWSCF        :      4h26m CPU      4h31m WALL

 
   This run was terminated on:   2:38:59  27Sep2022            

=------------------------------------------------------------------------------=
   JOB DONE.
=------------------------------------------------------------------------------=
