
     Program PWSCF v.6.7MaX starts on 20May2022 at 16:57:37 

     This program is part of the open-source Quantum ESPRESSO suite
     for quantum simulation of materials; please cite
         "P. Giannozzi et al., J. Phys.:Condens. Matter 21 395502 (2009);
         "P. Giannozzi et al., J. Phys.:Condens. Matter 29 465901 (2017);
          URL http://www.quantum-espresso.org", 
     in publications or presentations arising from this work. More details at
     http://www.quantum-espresso.org/quote

     Parallel version (MPI), running on     1 processors

     MPI processes distributed on     1 nodes
     Reading input from ch3choh-ensemble.in
Warning: card &CELL ignored
Warning: card / ignored

     Current dimensions of program PWSCF are:
     Max number of different atomic species (ntypx) = 10
     Max number of k-points (npk) =  40000
     Max angular momentum in pseudopotentials (lmaxx) =  3
     file Pt.pbe-n-kjpaw_psl.1.0.0.UPF: wavefunction(s)  6S 5D renormalized
     file C.pbe-n-kjpaw_psl.1.0.0.UPF: wavefunction(s)  2S 2P renormalized
     file O.pbe-nl-kjpaw_psl.1.0.0.UPF: wavefunction(s)  2S 2P renormalized
     file H.pbe-kjpaw_psl.1.0.0.UPF: wavefunction(s)  1S renormalized

     **************************************************************************
     Initializing libbeef V0.1.2 with the BEEF-vdW functional.
     Citation: Wellendorff et al., PRB 85, 235149 (2012).
     **************************************************************************


     IMPORTANT: XC functional enforced from input :
     Exchange-correlation= BEEF-VDW
                           (   1   4  43  14   2   0   0)
     Any further DFT definition will be discarded
     Please, verify this is what you really want


     Subspace diagonalization in iterative solution of the eigenvalue problem:
     a serial algorithm will be used

 
     G-vector sticks info
     --------------------
     sticks:   dense  smooth     PW     G-vecs:    dense   smooth      PW
     Sum        4267    4267   1159               742695   742695  104711
 


     bravais-lattice index     =            0
     lattice parameter (alat)  =      16.0349  a.u.
     unit-cell volume          =   11821.7818 (a.u.)^3
     number of atoms/cell      =           44
     number of atomic types    =            4
     number of electrons       =       379.00
     number of Kohn-Sham states=          228
     kinetic-energy cutoff     =      60.0000  Ry
     charge density cutoff     =     240.0000  Ry
     scf convergence threshold =      1.0E-06
     mixing beta               =       0.7000
     number of iterations used =            8  local-TF  mixing
     Exchange-correlation= BEEF-VDW
                           (   1   4  43  14   2   0   0)

     celldm(1)=  16.034858  celldm(2)=   0.000000  celldm(3)=   0.000000
     celldm(4)=   0.000000  celldm(5)=   0.000000  celldm(6)=   0.000000

     crystal axes: (cart. coord. in units of alat)
               a(1) = (   1.000000   0.000000   0.000000 )  
               a(2) = (   0.500000   0.866025   0.000000 )  
               a(3) = (   0.000000   0.000000   3.310983 )  

     reciprocal axes: (cart. coord. in units 2 pi/alat)
               b(1) = (  1.000000 -0.577350  0.000000 )  
               b(2) = (  0.000000  1.154701  0.000000 )  
               b(3) = (  0.000000  0.000000  0.302025 )  


     PseudoPot. # 1 for Pt read from file:
     /users/bkreitz1/quantum-espresso/potentials/Pt.pbe-n-kjpaw_psl.1.0.0.UPF
     MD5 check sum: 04dc8a03c51ece93fc7b5889c2958091
     Pseudo is Projector augmented-wave + core cor, Zval = 10.0
     Generated using 'atomic' code by A. Dal Corso  v.6.7MaX
     Shape of augmentation charge: PSQ
     Using radial grid of 1277 points,  6 beta functions with: 
                l(1) =   0
                l(2) =   0
                l(3) =   1
                l(4) =   1
                l(5) =   2
                l(6) =   2
     Q(r) pseudized with 0 coefficients 


     PseudoPot. # 2 for C  read from file:
     /users/bkreitz1/quantum-espresso/potentials/C.pbe-n-kjpaw_psl.1.0.0.UPF
     MD5 check sum: a169b0ebad56f5ec0d79c4633f80bf22
     Pseudo is Projector augmented-wave + core cor, Zval =  4.0
     Generated using 'atomic' code by A. Dal Corso  v.6.7MaX
     Shape of augmentation charge: PSQ
     Using radial grid of 1073 points,  4 beta functions with: 
                l(1) =   0
                l(2) =   0
                l(3) =   1
                l(4) =   1
     Q(r) pseudized with 0 coefficients 


     PseudoPot. # 3 for O  read from file:
     /users/bkreitz1/quantum-espresso/potentials/O.pbe-nl-kjpaw_psl.1.0.0.UPF
     MD5 check sum: eef08af8b58d9ec80f8fdb78829eb7cf
     Pseudo is Projector augmented-wave + core cor, Zval =  6.0
     Generated using 'atomic' code by A. Dal Corso  v.6.7MaX
     Shape of augmentation charge: PSQ
     Using radial grid of 1095 points,  4 beta functions with: 
                l(1) =   0
                l(2) =   0
                l(3) =   1
                l(4) =   1
     Q(r) pseudized with 0 coefficients 


     PseudoPot. # 4 for H  read from file:
     /users/bkreitz1/quantum-espresso/potentials/H.pbe-kjpaw_psl.1.0.0.UPF
     MD5 check sum: ae98473e6dc62675f0d0baffdab24f65
     Pseudo is Projector augmented-wave, Zval =  1.0
     Generated using 'atomic' code by A. Dal Corso  v.6.7MaX
     Shape of augmentation charge: PSQ
     Using radial grid of  929 points,  2 beta functions with: 
                l(1) =   0
                l(2) =   0
     Q(r) pseudized with 0 coefficients 


     atomic species   valence    mass     pseudopotential
        Pt            10.00   195.08400     Pt( 1.00)
        C              4.00    12.01100     C ( 1.00)
        O              6.00    15.99900     O ( 1.00)
        H              1.00     1.00800     H ( 1.00)

     No symmetry found



   Cartesian axes

     site n.     atom                  positions (alat units)
         1           Pt  tau(   1) = (   0.0000000   0.0000000   1.0017346  )
         2           Pt  tau(   2) = (   0.3333333   0.0000000   1.0017346  )
         3           Pt  tau(   3) = (   0.6666667   0.0000000   1.0017346  )
         4           Pt  tau(   4) = (   0.1666667   0.2886751   1.0017346  )
         5           Pt  tau(   5) = (   0.5000000   0.2886751   1.0017346  )
         6           Pt  tau(   6) = (   0.8333333   0.2886751   1.0017346  )
         7           Pt  tau(   7) = (   0.3333333   0.5773503   1.0017346  )
         8           Pt  tau(   8) = (   0.6666667   0.5773503   1.0017346  )
         9           Pt  tau(   9) = (   1.0000000   0.5773503   1.0017346  )
        10           Pt  tau(  10) = (   0.1666667   0.0962250   1.2739001  )
        11           Pt  tau(  11) = (   0.5000000   0.0962250   1.2739001  )
        12           Pt  tau(  12) = (   0.8333333   0.0962250   1.2739001  )
        13           Pt  tau(  13) = (   0.3333333   0.3849002   1.2739001  )
        14           Pt  tau(  14) = (   0.6666667   0.3849002   1.2739001  )
        15           Pt  tau(  15) = (   1.0000000   0.3849002   1.2739001  )
        16           Pt  tau(  16) = (   0.5000000   0.6735753   1.2739001  )
        17           Pt  tau(  17) = (   0.8333333   0.6735753   1.2739001  )
        18           Pt  tau(  18) = (   1.1666667   0.6735753   1.2739001  )
        19           Pt  tau(  19) = (   0.0007673   0.1924413   1.5414840  )
        20           Pt  tau(  20) = (   0.3362625   0.1939938   1.5468790  )
        21           Pt  tau(  21) = (   0.6652456   0.1936575   1.5467450  )
        22           Pt  tau(  22) = (   0.1671982   0.4810121   1.5422906  )
        23           Pt  tau(  23) = (   0.5006529   0.4785391   1.5469258  )
        24           Pt  tau(  24) = (   0.8336779   0.4810338   1.5426085  )
        25           Pt  tau(  25) = (   0.3339430   0.7697029   1.5410555  )
        26           Pt  tau(  26) = (   0.6670898   0.7694983   1.5415605  )
        27           Pt  tau(  27) = (   1.0005303   0.7700114   1.5424226  )
        28           Pt  tau(  28) = (   0.0010097   0.0000204   1.8156475  )
        29           Pt  tau(  29) = (   0.3336195  -0.0002345   1.8148831  )
        30           Pt  tau(  30) = (   0.6684914  -0.0005285   1.8157198  )
        31           Pt  tau(  31) = (   0.1676581   0.2886093   1.8161375  )
        32           Pt  tau(  32) = (   0.5010741   0.2887307   1.8480432  )
        33           Pt  tau(  33) = (   0.8350395   0.2884755   1.8157612  )
        34           Pt  tau(  34) = (   0.3345706   0.5777545   1.8149730  )
        35           Pt  tau(  35) = (   0.6675004   0.5769101   1.8165362  )
        36           Pt  tau(  36) = (   1.0009595   0.5773333   1.8164378  )
        37           C   tau(  37) = (   0.5159764   0.2738838   2.1001719  )
        38           C   tau(  38) = (   0.4317124   0.4066224   2.1825102  )
        39           O   tau(  39) = (   0.4539629   0.1304405   2.1500486  )
        40           H   tau(  40) = (   0.6442774   0.2781171   2.1125183  )
        41           H   tau(  41) = (   0.4492658   0.3925966   2.3097430  )
        42           H   tau(  42) = (   0.4794206   0.5203618   2.1466962  )
        43           H   tau(  43) = (   0.3053212   0.4040113   2.1589900  )
        44           H   tau(  44) = (   0.5198752   0.0453273   2.1114418  )

     number of k points=    13  Marzari-Vanderbilt smearing, width (Ry)=  0.0200
                       cart. coord. in units 2pi/alat
        k(    1) = (   0.0000000   0.0000000   0.0000000), wk =   0.0800000
        k(    2) = (   0.0000000   0.2309401   0.0000000), wk =   0.1600000
        k(    3) = (   0.0000000   0.4618802   0.0000000), wk =   0.1600000
        k(    4) = (   0.2000000  -0.1154701   0.0000000), wk =   0.1600000
        k(    5) = (   0.2000000   0.1154701   0.0000000), wk =   0.1600000
        k(    6) = (   0.2000000   0.3464102   0.0000000), wk =   0.1600000
        k(    7) = (   0.2000000  -0.5773503   0.0000000), wk =   0.1600000
        k(    8) = (   0.2000000  -0.3464102   0.0000000), wk =   0.1600000
        k(    9) = (   0.4000000  -0.2309401   0.0000000), wk =   0.1600000
        k(   10) = (   0.4000000  -0.0000000   0.0000000), wk =   0.1600000
        k(   11) = (   0.4000000   0.2309401   0.0000000), wk =   0.1600000
        k(   12) = (   0.4000000  -0.6928203   0.0000000), wk =   0.1600000
        k(   13) = (   0.4000000  -0.4618802   0.0000000), wk =   0.1600000

     Dense  grid:   742695 G-vectors     FFT dimensions: (  80,  80, 270)

     Estimated max dynamical RAM per process >       9.08 GB

     Check: negative core charge=   -0.000002

     Initial potential from superposition of free atoms

     starting charge  378.99376, renormalised to  379.00000

     negative rho (up, down):  1.169E-02 0.000E+00


     %%%%%%%%%%%%%%%%%%%%%%%%%%%%%%%%%%%%%%%%%%%%%%%%%%%%%%%%%%%%%%%%%%%%%%%%
     %                                                                      %
     % You are using vdW-DF, which was implemented by the Thonhauser group. %
     % Please cite the following two papers that made this development      %
     % possible and the two reviews that describe the various versions:     %
     %                                                                      %
     %   T. Thonhauser et al., PRL 115, 136402 (2015).                      %
     %   T. Thonhauser et al., PRB 76, 125112 (2007).                       %
     %   K. Berland et al., Rep. Prog. Phys. 78, 066501 (2015).             %
     %   D.C. Langreth et al., J. Phys.: Condens. Matter 21, 084203 (2009). %
     %                                                                      %
     %                                                                      %
     % If you are calculating the stress with vdW-DF, please also cite:     %
     %                                                                      %
     %   R. Sabatini et al., J. Phys.: Condens. Matter 24, 424209 (2012).   %
     %                                                                      %
     %%%%%%%%%%%%%%%%%%%%%%%%%%%%%%%%%%%%%%%%%%%%%%%%%%%%%%%%%%%%%%%%%%%%%%%%


     Starting wfcs are  341 randomized atomic wfcs
     Checking if some PAW data can be deallocated... 

     total cpu time spent up to now is      359.3 secs

     Self-consistent Calculation

     iteration #  1     ecut=    60.00 Ry     beta= 0.70
     Davidson diagonalization with overlap
     ethr =  1.00E-02,  avg # of iterations =  2.6

     Threshold (ethr) on eigenvalues was too large:
     Diagonalizing with lowered threshold

     Davidson diagonalization with overlap
     ethr =  7.39E-04,  avg # of iterations =  2.9

     negative rho (up, down):  1.168E-02 0.000E+00

     total cpu time spent up to now is     1766.4 secs

     total energy              =  -27840.65742182 Ry
     estimated scf accuracy    <       3.01780288 Ry

     iteration #  2     ecut=    60.00 Ry     beta= 0.70
     Davidson diagonalization with overlap
     ethr =  7.96E-04,  avg # of iterations =  3.5

     negative rho (up, down):  9.907E-03 0.000E+00

     total cpu time spent up to now is     2410.0 secs

     total energy              =  -27840.78460459 Ry
     estimated scf accuracy    <       1.17679364 Ry

     iteration #  3     ecut=    60.00 Ry     beta= 0.70
     Davidson diagonalization with overlap
     ethr =  3.10E-04,  avg # of iterations =  6.6

     negative rho (up, down):  6.696E-03 0.000E+00

     total cpu time spent up to now is     3112.5 secs

     total energy              =  -27840.82858411 Ry
     estimated scf accuracy    <       0.41970525 Ry

     iteration #  4     ecut=    60.00 Ry     beta= 0.70
     Davidson diagonalization with overlap
     c_bands:  1 eigenvalues not converged
     ethr =  1.11E-04,  avg # of iterations =  9.8

     negative rho (up, down):  5.381E-03 0.000E+00

     total cpu time spent up to now is     3924.3 secs

     total energy              =  -27840.88369716 Ry
     estimated scf accuracy    <       0.26499277 Ry

     iteration #  5     ecut=    60.00 Ry     beta= 0.70
     Davidson diagonalization with overlap
     ethr =  6.99E-05,  avg # of iterations =  3.3

     negative rho (up, down):  3.439E-03 0.000E+00

     total cpu time spent up to now is     4572.2 secs

     total energy              =  -27840.88719111 Ry
     estimated scf accuracy    <       0.04200226 Ry

     iteration #  6     ecut=    60.00 Ry     beta= 0.70
     Davidson diagonalization with overlap
     c_bands:  1 eigenvalues not converged
     c_bands:  2 eigenvalues not converged
     c_bands:  1 eigenvalues not converged
     ethr =  1.11E-05,  avg # of iterations = 15.0

     negative rho (up, down):  3.088E-03 0.000E+00

     total cpu time spent up to now is     5635.1 secs

     total energy              =  -27840.89905618 Ry
     estimated scf accuracy    <       0.02350212 Ry

     iteration #  7     ecut=    60.00 Ry     beta= 0.70
     Davidson diagonalization with overlap
     c_bands:  1 eigenvalues not converged
     ethr =  6.20E-06,  avg # of iterations =  7.8

     negative rho (up, down):  3.297E-03 0.000E+00

     total cpu time spent up to now is     6315.5 secs

     total energy              =  -27840.89951769 Ry
     estimated scf accuracy    <       0.01714644 Ry

     iteration #  8     ecut=    60.00 Ry     beta= 0.70
     Davidson diagonalization with overlap
     c_bands:  1 eigenvalues not converged
     ethr =  4.52E-06,  avg # of iterations = 11.2

     negative rho (up, down):  4.583E-03 0.000E+00

     total cpu time spent up to now is     7046.9 secs

     total energy              =  -27840.90001716 Ry
     estimated scf accuracy    <       0.01087997 Ry

     iteration #  9     ecut=    60.00 Ry     beta= 0.70
     Davidson diagonalization with overlap
     c_bands:  1 eigenvalues not converged
     c_bands:  1 eigenvalues not converged
     c_bands:  1 eigenvalues not converged
     ethr =  2.87E-06,  avg # of iterations = 11.8

     negative rho (up, down):  6.825E-03 0.000E+00

     total cpu time spent up to now is     7766.5 secs

     total energy              =  -27840.90025940 Ry
     estimated scf accuracy    <       0.00267786 Ry

     iteration # 10     ecut=    60.00 Ry     beta= 0.70
     Davidson diagonalization with overlap
     ethr =  7.07E-07,  avg # of iterations =  7.2

     negative rho (up, down):  8.137E-03 0.000E+00

     total cpu time spent up to now is     8444.5 secs

     total energy              =  -27840.90040164 Ry
     estimated scf accuracy    <       0.00078157 Ry

     iteration # 11     ecut=    60.00 Ry     beta= 0.70
     Davidson diagonalization with overlap
     ethr =  2.06E-07,  avg # of iterations =  3.4

     negative rho (up, down):  8.526E-03 0.000E+00

     total cpu time spent up to now is     9120.6 secs

     total energy              =  -27840.90051027 Ry
     estimated scf accuracy    <       0.00054403 Ry

     iteration # 12     ecut=    60.00 Ry     beta= 0.70
     Davidson diagonalization with overlap
     ethr =  1.44E-07,  avg # of iterations =  1.8

     negative rho (up, down):  8.773E-03 0.000E+00

     total cpu time spent up to now is     9733.4 secs

     total energy              =  -27840.90055912 Ry
     estimated scf accuracy    <       0.00032667 Ry

     iteration # 13     ecut=    60.00 Ry     beta= 0.70
     Davidson diagonalization with overlap
     ethr =  8.62E-08,  avg # of iterations =  2.0

     negative rho (up, down):  1.031E-02 0.000E+00

     total cpu time spent up to now is    10367.8 secs

     total energy              =  -27840.90057361 Ry
     estimated scf accuracy    <       0.00013717 Ry

     iteration # 14     ecut=    60.00 Ry     beta= 0.70
     Davidson diagonalization with overlap
     ethr =  3.62E-08,  avg # of iterations =  2.2

     negative rho (up, down):  1.009E-02 0.000E+00

     total cpu time spent up to now is    11033.3 secs

     total energy              =  -27840.90058526 Ry
     estimated scf accuracy    <       0.00008299 Ry

     iteration # 15     ecut=    60.00 Ry     beta= 0.70
     Davidson diagonalization with overlap
     ethr =  2.19E-08,  avg # of iterations =  2.0

     negative rho (up, down):  1.090E-02 0.000E+00

     total cpu time spent up to now is    11662.2 secs

     total energy              =  -27840.90058007 Ry
     estimated scf accuracy    <       0.00003876 Ry

     iteration # 16     ecut=    60.00 Ry     beta= 0.70
     Davidson diagonalization with overlap
     ethr =  1.02E-08,  avg # of iterations =  2.0

     negative rho (up, down):  1.203E-02 0.000E+00

     total cpu time spent up to now is    12358.3 secs

     total energy              =  -27840.90057915 Ry
     estimated scf accuracy    <       0.00001920 Ry

     iteration # 17     ecut=    60.00 Ry     beta= 0.70
     Davidson diagonalization with overlap
     ethr =  5.07E-09,  avg # of iterations =  2.5

     negative rho (up, down):  1.241E-02 0.000E+00

     total cpu time spent up to now is    13055.0 secs

     total energy              =  -27840.90058180 Ry
     estimated scf accuracy    <       0.00001352 Ry

     iteration # 18     ecut=    60.00 Ry     beta= 0.70
     Davidson diagonalization with overlap
     ethr =  3.57E-09,  avg # of iterations =  2.0

     negative rho (up, down):  1.294E-02 0.000E+00

     total cpu time spent up to now is    13705.8 secs

     total energy              =  -27840.90058156 Ry
     estimated scf accuracy    <       0.00000583 Ry

     iteration # 19     ecut=    60.00 Ry     beta= 0.70
     Davidson diagonalization with overlap
     ethr =  1.54E-09,  avg # of iterations =  2.3

     negative rho (up, down):  1.314E-02 0.000E+00

     total cpu time spent up to now is    14415.5 secs

     total energy              =  -27840.90058193 Ry
     estimated scf accuracy    <       0.00000196 Ry

     iteration # 20     ecut=    60.00 Ry     beta= 0.70
     Davidson diagonalization with overlap
     ethr =  5.16E-10,  avg # of iterations =  4.0

     negative rho (up, down):  1.310E-02 0.000E+00

     total cpu time spent up to now is    15318.2 secs

     total energy              =  -27840.90058256 Ry
     estimated scf accuracy    <       0.00000141 Ry

     iteration # 21     ecut=    60.00 Ry     beta= 0.70
     Davidson diagonalization with overlap
     ethr =  3.71E-10,  avg # of iterations =  2.0

     negative rho (up, down):  1.319E-02 0.000E+00

     total cpu time spent up to now is    15929.9 secs

     End of self-consistent calculation

          k = 0.0000 0.0000 0.0000 ( 92867 PWs)   bands (ev):

   -20.1914 -12.5097  -8.8974  -7.1675  -7.0423  -5.8248  -4.9168  -4.7142
    -4.7067  -4.7035  -4.7014  -4.6829  -4.6624  -4.6596  -4.5717  -4.1581
    -4.1444  -4.1410  -4.1308  -4.1212  -4.1074  -4.0904  -3.6789  -3.6759
    -3.6673  -3.6589  -3.6529  -3.6239  -3.4695  -3.4563  -3.4506  -3.4485
    -3.4426  -3.4004  -3.2687  -3.2287  -3.2264  -3.2216  -3.2136  -3.2115
    -3.2044  -3.2023  -3.1848  -3.1721  -3.1645  -3.1527  -3.1462  -2.7625
    -2.6085  -2.6063  -2.5859  -2.5720  -2.5661  -2.5289  -2.5131  -2.5105
    -2.5094  -2.4600  -2.3799  -2.3645  -2.3051  -2.2848  -2.1494  -1.8760
    -1.7879  -1.7853  -1.7711  -1.7501  -1.7393  -1.7098  -1.6220  -1.6134
    -1.6059  -1.6044  -1.5820  -1.5758  -1.5708  -1.5541  -1.5535  -1.5383
    -1.5307  -1.5295  -1.4996  -1.4971  -1.4878  -1.4036  -1.3793  -1.3756
    -1.3634  -1.3606  -1.3061  -1.2100  -1.2062  -1.2039  -1.1710  -1.1546
    -1.1520  -1.1091  -1.1083  -1.0637  -1.0545  -1.0050  -1.0019  -0.9441
    -0.9439  -0.9049  -0.9044  -0.8559  -0.8390  -0.8240  -0.7543  -0.7483
    -0.7379  -0.7228  -0.7003  -0.6197  -0.3246  -0.3025  -0.2911  -0.2615
    -0.2485  -0.2475  -0.2402  -0.1911  -0.1809  -0.1797  -0.1397  -0.1053
    -0.0940  -0.0800  -0.0124   0.0470   0.0552   0.0596   0.1105   0.1227
     0.1866   0.2037   0.2327   0.2400   0.2464   0.2496   0.3240   0.4656
     0.4751   0.4854   0.4899   0.4955   0.5180   0.5567   0.5572   0.7345
     0.7405   0.7446   0.7592   0.7629   0.8278   0.9046   0.9083   0.9189
     0.9221   0.9285   0.9400   0.9437   0.9569   0.9618   0.9660   0.9700
     1.0401   1.0758   1.0826   1.0837   1.0988   1.1014   1.1115   1.1399
     1.1870   1.1903   1.1931   1.1957   1.2181   1.2266   1.2333   1.2373
     1.3048   1.3057   1.3280   1.3315   1.3345   1.3509   1.3536   1.4201
     1.4309   1.4319   1.4597   1.4606   1.4964   1.6337   1.6403   1.7301
     1.7317   1.7682   1.7705   1.7726   1.7847   2.1736   2.5630   2.6113
     2.6409   2.6428   2.6561   2.6858   3.8917   4.8505   4.9021   4.9581
     4.9753   4.9860   5.6975   5.8167   6.4616   6.5214   6.5455   6.5656
     6.5710   6.5864   6.5939   6.8360

          k = 0.0000 0.2309 0.0000 ( 92788 PWs)   bands (ev):

   -20.1914 -12.5097  -8.8971  -7.1223  -6.9394  -5.6840  -5.2054  -4.8939
    -4.7981  -4.7647  -4.5715  -4.5255  -4.4930  -4.4470  -4.4380  -4.2452
    -4.2261  -4.1288  -4.0732  -4.0639  -4.0508  -4.0200  -3.7647  -3.6389
    -3.6369  -3.6276  -3.6064  -3.5468  -3.5349  -3.4868  -3.4757  -3.4614
    -3.4453  -3.4071  -3.3578  -3.3372  -3.2883  -3.2456  -3.2383  -3.2112
    -3.1930  -3.1793  -3.0273  -3.0122  -3.0063  -2.9792  -2.9700  -2.7898
    -2.7326  -2.7181  -2.6661  -2.6488  -2.6180  -2.6069  -2.5738  -2.4454
    -2.4170  -2.3544  -2.3487  -2.3072  -2.3004  -2.2747  -2.1784  -2.0512
    -1.9733  -1.9677  -1.9130  -1.8876  -1.8617  -1.8140  -1.7852  -1.7603
    -1.7517  -1.7319  -1.7217  -1.6762  -1.6354  -1.6046  -1.5870  -1.5717
    -1.5019  -1.4925  -1.4871  -1.4261  -1.4180  -1.4124  -1.3633  -1.3178
    -1.3121  -1.3010  -1.2960  -1.2352  -1.2144  -1.2007  -1.1973  -1.1719
    -1.1338  -1.1177  -1.0809  -1.0565  -1.0329  -1.0207  -1.0146  -0.9817
    -0.9702  -0.9520  -0.9290  -0.8912  -0.8283  -0.7772  -0.7615  -0.7593
    -0.7414  -0.7302  -0.7194  -0.6815  -0.6686  -0.6481  -0.6398  -0.5694
    -0.5368  -0.4494  -0.3258  -0.2818  -0.2581  -0.2465  -0.2098  -0.2014
    -0.1946  -0.1833  -0.0814  -0.0365   0.0235   0.0332   0.0987   0.1115
     0.1561   0.1740   0.2059   0.2212   0.2564   0.2799   0.3352   0.3425
     0.3721   0.3784   0.4013   0.4160   0.5492   0.5655   0.5975   0.6211
     0.6375   0.6506   0.6717   0.7212   0.7505   0.7741   0.7837   0.8058
     0.8556   0.8687   0.8781   0.8943   0.9753   0.9842   1.0066   1.0617
     1.0993   1.1145   1.1379   1.1651   1.1768   1.2086   1.2186   1.2616
     1.2944   1.3059   1.3495   1.3637   1.3681   1.4060   1.4127   1.4176
     1.4230   1.4259   1.4789   1.4889   1.6180   1.6211   1.6622   1.6785
     1.6814   1.6946   1.7251   1.7560   1.7596   1.7771   1.8642   1.8760
     1.9001   1.9885   2.0528   2.0633   2.0809   2.1002   2.3976   2.5079
     2.9327   3.2343   3.2507   3.3528   3.8795   4.3721   4.6387   4.9752
     5.3907   5.3947   5.4940   5.6682   5.8754   5.9704   6.3469   6.3723
     6.4944   6.5830   6.7530   6.7644

          k = 0.0000 0.4619 0.0000 ( 92810 PWs)   bands (ev):

   -20.1914 -12.5099  -8.8967  -7.1037  -6.5344  -5.9029  -5.2943  -4.9113
    -4.8310  -4.7971  -4.6311  -4.4655  -4.3157  -4.2012  -4.1711  -4.1241
    -4.1075  -4.0914  -3.9499  -3.9203  -3.8922  -3.8739  -3.8698  -3.7669
    -3.7220  -3.7201  -3.6666  -3.6659  -3.6327  -3.6016  -3.5360  -3.5340
    -3.5232  -3.2769  -3.2728  -3.2683  -3.2622  -3.2494  -3.2332  -3.2235
    -3.0258  -3.0193  -2.9927  -2.9837  -2.9681  -2.9499  -2.8299  -2.7265
    -2.6894  -2.6730  -2.6608  -2.6351  -2.6082  -2.6030  -2.5370  -2.5282
    -2.5061  -2.4746  -2.4565  -2.3409  -2.3156  -2.2979  -2.2751  -2.2207
    -2.1657  -2.1308  -2.1037  -2.0800  -2.0357  -1.9503  -1.8853  -1.8709
    -1.8660  -1.8444  -1.7907  -1.7624  -1.7476  -1.7052  -1.6374  -1.6217
    -1.6077  -1.5352  -1.4986  -1.4954  -1.4818  -1.4748  -1.4297  -1.4044
    -1.3925  -1.3754  -1.3712  -1.3542  -1.3330  -1.3279  -1.3094  -1.2327
    -1.2193  -1.2182  -1.1926  -1.1630  -1.1422  -1.1155  -1.0385  -1.0204
    -0.9750  -0.9600  -0.9381  -0.9291  -0.8983  -0.8702  -0.8594  -0.7551
    -0.7465  -0.7341  -0.6954  -0.6463  -0.6246  -0.5006  -0.4928  -0.4578
    -0.4120  -0.3980  -0.3435  -0.3219  -0.3146  -0.2824  -0.2698  -0.2535
    -0.2141  -0.1942  -0.1912  -0.1832  -0.1446  -0.1291  -0.1213  -0.0854
    -0.0665  -0.0259   0.0509   0.0543   0.1065   0.1602   0.2037   0.2575
     0.2629   0.3107   0.3675   0.3933   0.4519   0.5140   0.5465   0.5697
     0.5830   0.5976   0.6361   0.6513   0.6970   0.7041   0.7494   0.7786
     0.7969   0.8675   0.8876   0.9047   0.9216   0.9414   0.9664   1.0516
     1.1105   1.1283   1.1765   1.2067   1.2104   1.2255   1.2981   1.3190
     1.3376   1.3975   1.4138   1.4206   1.4753   1.4880   1.5079   1.5335
     1.6118   1.6222   1.6540   1.6700   1.6845   1.6953   1.7017   1.7078
     1.8810   1.8869   1.9042   1.9283   1.9315   2.0943   2.1398   2.3766
     2.5133   2.5863   2.7315   2.9563   2.9693   3.2735   3.3514   3.3768
     3.6975   3.7596   4.1744   4.1831   4.2064   4.3343   4.4412   4.4818
     4.5394   4.8064   4.8330   5.0279   5.4472   5.5708   5.9861   6.0616
     6.2070   6.4522   6.5639   6.6762

          k = 0.2000-0.1155 0.0000 ( 92788 PWs)   bands (ev):

   -20.1914 -12.5097  -8.8972  -7.1233  -6.9389  -5.6841  -5.2066  -4.8864
    -4.8000  -4.7712  -4.5714  -4.5247  -4.4886  -4.4499  -4.4379  -4.2398
    -4.2220  -4.1312  -4.0733  -4.0695  -4.0504  -4.0191  -3.7641  -3.6385
    -3.6374  -3.6217  -3.6041  -3.5540  -3.5332  -3.4921  -3.4752  -3.4612
    -3.4447  -3.4061  -3.3592  -3.3381  -3.2946  -3.2524  -3.2294  -3.2107
    -3.1932  -3.1721  -3.0252  -3.0137  -3.0081  -2.9799  -2.9630  -2.7829
    -2.7309  -2.7181  -2.6875  -2.6506  -2.6330  -2.6080  -2.5593  -2.4492
    -2.4041  -2.3721  -2.3459  -2.3148  -2.2882  -2.2719  -2.1776  -2.0575
    -1.9752  -1.9658  -1.9117  -1.8908  -1.8537  -1.8115  -1.7860  -1.7645
    -1.7528  -1.7333  -1.7312  -1.6762  -1.6248  -1.5965  -1.5849  -1.5729
    -1.5011  -1.4914  -1.4847  -1.4278  -1.4189  -1.3967  -1.3680  -1.3192
    -1.3157  -1.3015  -1.2966  -1.2362  -1.2149  -1.2000  -1.1981  -1.1707
    -1.1415  -1.1213  -1.0777  -1.0543  -1.0352  -1.0195  -1.0146  -0.9838
    -0.9639  -0.9438  -0.9281  -0.8949  -0.8255  -0.7826  -0.7629  -0.7602
    -0.7397  -0.7303  -0.7203  -0.6827  -0.6776  -0.6492  -0.6423  -0.5841
    -0.5567  -0.3936  -0.3310  -0.2850  -0.2673  -0.2465  -0.2128  -0.2020
    -0.1913  -0.1794  -0.0582  -0.0346   0.0035   0.0421   0.0951   0.1119
     0.1525   0.1774   0.2152   0.2233   0.2565   0.2761   0.3331   0.3428
     0.3741   0.3773   0.3974   0.4068   0.5571   0.5658   0.5970   0.6164
     0.6323   0.6610   0.6721   0.7201   0.7491   0.7703   0.7802   0.7971
     0.8564   0.8674   0.8768   0.8962   0.9760   0.9817   1.0034   1.0806
     1.0944   1.1171   1.1381   1.1608   1.1767   1.2121   1.2153   1.2669
     1.2976   1.3044   1.3493   1.3616   1.3684   1.4056   1.4136   1.4167
     1.4232   1.4265   1.4796   1.4910   1.6164   1.6212   1.6625   1.6784
     1.6801   1.6935   1.7232   1.7548   1.7580   1.7758   1.8662   1.8764
     1.8998   1.9963   2.0502   2.0618   2.0795   2.0987   2.3863   2.5075
     2.9416   3.2280   3.2582   3.3571   3.8733   4.3759   4.6363   4.9806
     5.3919   5.3936   5.4858   5.6714   5.8791   5.9548   6.3302   6.3758
     6.5459   6.6143   6.7558   6.7638

          k = 0.2000 0.1155 0.0000 ( 92788 PWs)   bands (ev):

   -20.1914 -12.5097  -8.8974  -7.1232  -6.9389  -5.6842  -5.2089  -4.8846
    -4.7985  -4.7723  -4.5714  -4.5260  -4.4874  -4.4477  -4.4390  -4.2431
    -4.2212  -4.1226  -4.0754  -4.0689  -4.0484  -4.0280  -3.7652  -3.6387
    -3.6371  -3.6213  -3.5971  -3.5515  -3.5357  -3.4950  -3.4785  -3.4613
    -3.4438  -3.3991  -3.3580  -3.3372  -3.2933  -3.2492  -3.2355  -3.2177
    -3.2002  -3.1686  -3.0276  -3.0121  -3.0109  -2.9792  -2.9629  -2.7794
    -2.7311  -2.7180  -2.6993  -2.6429  -2.6306  -2.6025  -2.5682  -2.4377
    -2.4054  -2.3589  -2.3452  -2.3225  -2.2913  -2.2675  -2.1805  -2.0569
    -1.9744  -1.9618  -1.9151  -1.8837  -1.8560  -1.8168  -1.7850  -1.7667
    -1.7538  -1.7362  -1.7121  -1.6761  -1.6253  -1.5997  -1.5850  -1.5716
    -1.5038  -1.5000  -1.4917  -1.4259  -1.4160  -1.4020  -1.3727  -1.3186
    -1.3057  -1.3018  -1.2989  -1.2379  -1.2139  -1.2012  -1.1980  -1.1697
    -1.1334  -1.1178  -1.0801  -1.0592  -1.0344  -1.0215  -1.0166  -0.9813
    -0.9730  -0.9515  -0.9286  -0.8949  -0.8259  -0.7874  -0.7660  -0.7557
    -0.7422  -0.7251  -0.7160  -0.6832  -0.6749  -0.6494  -0.6357  -0.5993
    -0.5322  -0.4110  -0.3238  -0.2821  -0.2588  -0.2456  -0.2140  -0.2019
    -0.1949  -0.1809  -0.0584  -0.0370   0.0013   0.0384   0.0965   0.1139
     0.1599   0.1712   0.2156   0.2229   0.2547   0.2785   0.3180   0.3402
     0.3734   0.3767   0.3979   0.4036   0.5524   0.5658   0.5992   0.6088
     0.6369   0.6608   0.6716   0.7291   0.7510   0.7764   0.7824   0.8152
     0.8539   0.8687   0.8785   0.8954   0.9758   0.9795   1.0063   1.0671
     1.0922   1.1141   1.1375   1.1646   1.1752   1.2124   1.2132   1.2595
     1.2943   1.3056   1.3515   1.3632   1.3705   1.4051   1.4113   1.4183
     1.4248   1.4269   1.4781   1.4889   1.6202   1.6209   1.6625   1.6797
     1.6821   1.6947   1.7265   1.7586   1.7597   1.7776   1.8657   1.8766
     1.9007   1.9790   2.0517   2.0645   2.0806   2.1041   2.3877   2.5168
     2.9411   3.2123   3.2559   3.3637   3.8816   4.3474   4.6515   4.9961
     5.3909   5.3921   5.4903   5.6646   5.8765   5.9725   6.3204   6.3692
     6.5144   6.5754   6.7541   6.7699

          k = 0.2000 0.3464 0.0000 ( 92766 PWs)   bands (ev):

   -20.1914 -12.5098  -8.8970  -7.1063  -6.6693  -5.4595  -5.4467  -5.4155
    -4.8266  -4.3825  -4.3745  -4.3649  -4.3392  -4.3146  -4.3008  -4.2792
    -4.2363  -4.1901  -4.1755  -4.1000  -3.8118  -3.7981  -3.7857  -3.7777
    -3.7117  -3.6906  -3.5589  -3.5472  -3.5399  -3.5232  -3.5102  -3.4330
    -3.3984  -3.3775  -3.3706  -3.3601  -3.3056  -3.2872  -3.2635  -3.2277
    -3.2141  -3.2015  -3.1314  -2.8850  -2.8494  -2.7867  -2.7817  -2.7571
    -2.7396  -2.7337  -2.7182  -2.6625  -2.6461  -2.5936  -2.5012  -2.4894
    -2.4731  -2.4024  -2.3636  -2.3246  -2.3129  -2.3054  -2.2548  -2.2168
    -2.1540  -2.0728  -2.0266  -2.0047  -1.9551  -1.9294  -1.9209  -1.9054
    -1.8703  -1.8372  -1.8216  -1.6922  -1.6852  -1.6664  -1.6516  -1.6153
    -1.5845  -1.5675  -1.5369  -1.5139  -1.4905  -1.4181  -1.3861  -1.3616
    -1.3449  -1.3349  -1.3287  -1.3080  -1.2856  -1.2640  -1.2539  -1.1985
    -1.1818  -1.1564  -1.1070  -1.0915  -1.0678  -1.0298  -1.0114  -0.9816
    -0.9745  -0.9610  -0.9444  -0.9276  -0.9132  -0.8909  -0.8838  -0.8558
    -0.8275  -0.8084  -0.7939  -0.7170  -0.6798  -0.6484  -0.6206  -0.5991
    -0.5542  -0.5393  -0.3984  -0.3895  -0.2929  -0.2628  -0.2356  -0.2112
    -0.2063  -0.1825  -0.1662  -0.1361  -0.1153  -0.0968  -0.0830  -0.0322
     0.0119   0.1037   0.1321   0.1732   0.2154   0.2432   0.2478   0.2764
     0.3143   0.3392   0.4120   0.4322   0.4355   0.4882   0.5020   0.5572
     0.6101   0.6402   0.6605   0.6692   0.7117   0.7336   0.7393   0.7519
     0.7603   0.7755   0.7936   0.8087   0.8912   0.9495   0.9919   1.0336
     1.1031   1.1170   1.2150   1.2824   1.2992   1.3097   1.3414   1.4143
     1.4293   1.4409   1.4568   1.4769   1.4999   1.5085   1.5133   1.5281
     1.5595   1.5838   1.5988   1.6549   1.6893   1.6959   1.7320   1.7407
     1.7816   1.8778   1.9390   1.9760   2.0025   2.0304   2.0491   2.0614
     2.1879   2.1954   2.5165   2.7104   2.7280   3.0645   3.2566   3.2655
     3.2845   3.5733   3.9249   3.9619   4.1751   4.1926   4.2286   4.6564
     4.9123   5.3757   5.3831   5.5982   5.6231   5.9295   6.0564   6.1248
     6.1661   6.1968   6.2354   6.5261

          k = 0.2000-0.5774 0.0000 ( 92772 PWs)   bands (ev):

   -20.1914 -12.5099  -8.8967  -7.1021  -6.1532  -6.1256  -5.5352  -5.0186
    -4.9107  -4.6998  -4.3764  -4.3372  -4.2376  -4.1953  -4.1381  -4.0897
    -4.0767  -3.9817  -3.9712  -3.8847  -3.8636  -3.8508  -3.8279  -3.8137
    -3.7833  -3.7775  -3.6673  -3.6481  -3.6338  -3.5993  -3.5887  -3.5246
    -3.4416  -3.3924  -3.3394  -3.2643  -3.2487  -3.2390  -3.2220  -3.2102
    -3.1887  -3.1179  -3.1005  -3.0137  -2.9865  -2.8426  -2.8115  -2.8038
    -2.7035  -2.6693  -2.6501  -2.6023  -2.5888  -2.4934  -2.4534  -2.4214
    -2.4083  -2.3820  -2.3400  -2.3249  -2.3062  -2.2680  -2.2023  -2.1886
    -2.1681  -2.1608  -2.1538  -2.1354  -2.1014  -2.0864  -2.0321  -1.9588
    -1.9371  -1.8949  -1.8695  -1.7762  -1.7581  -1.7343  -1.7104  -1.6941
    -1.6651  -1.6434  -1.6264  -1.5401  -1.5317  -1.5216  -1.4842  -1.4792
    -1.4440  -1.3911  -1.3496  -1.3146  -1.3075  -1.2849  -1.2655  -1.1953
    -1.1411  -1.1195  -1.1016  -1.0892  -1.0651  -1.0498  -1.0413  -1.0095
    -0.9995  -0.9777  -0.9604  -0.9403  -0.9114  -0.8991  -0.8878  -0.8800
    -0.8658  -0.8572  -0.8312  -0.7910  -0.7841  -0.7115  -0.5802  -0.5558
    -0.4693  -0.4591  -0.4010  -0.3735  -0.3424  -0.3153  -0.2932  -0.2745
    -0.2579  -0.2253  -0.2124  -0.1447  -0.1233  -0.1072  -0.0756  -0.0617
    -0.0003   0.0285   0.0612   0.0755   0.2115   0.2145   0.2529   0.2957
     0.3149   0.3528   0.3858   0.4008   0.4256   0.4409   0.4473   0.4918
     0.5048   0.5440   0.5898   0.6096   0.6540   0.6759   0.6901   0.7061
     0.7215   0.7429   0.8409   0.8718   0.9479   0.9807   1.0460   1.0964
     1.1369   1.1460   1.2175   1.2613   1.2671   1.3045   1.3669   1.4179
     1.4456   1.4656   1.4865   1.4927   1.5126   1.5443   1.5641   1.6459
     1.6491   1.6657   1.6840   1.7039   1.7081   1.7239   1.7761   1.8840
     1.8970   1.9183   1.9265   1.9375   1.9906   2.0330   2.1125   2.2380
     2.9089   3.0722   3.0785   3.2312   3.3347   3.4469   3.4547   3.4759
     3.6838   4.0604   4.0845   4.1745   4.5283   4.5532   4.6635   4.6753
     4.7042   4.8861   4.9814   5.0062   5.1947   5.4545   5.5121   5.6150
     5.9946   6.1689   6.1705   6.4472

          k = 0.2000-0.3464 0.0000 ( 92766 PWs)   bands (ev):

   -20.1914 -12.5098  -8.8968  -7.1065  -6.6691  -5.4609  -5.4448  -5.4145
    -4.8270  -4.3823  -4.3719  -4.3625  -4.3429  -4.3157  -4.3009  -4.2828
    -4.2354  -4.1905  -4.1729  -4.1040  -3.8097  -3.7965  -3.7838  -3.7757
    -3.7120  -3.6886  -3.5611  -3.5464  -3.5398  -3.5253  -3.5150  -3.4355
    -3.3981  -3.3770  -3.3727  -3.3686  -3.3073  -3.2922  -3.2615  -3.2327
    -3.2036  -3.1907  -3.1257  -2.8837  -2.8288  -2.7879  -2.7812  -2.7595
    -2.7413  -2.7264  -2.7126  -2.6673  -2.6566  -2.6023  -2.5112  -2.4959
    -2.4835  -2.3910  -2.3721  -2.3348  -2.3164  -2.2952  -2.2346  -2.2217
    -2.1695  -2.0633  -2.0273  -2.0159  -1.9603  -1.9246  -1.9172  -1.9054
    -1.8733  -1.8410  -1.8225  -1.7018  -1.6790  -1.6617  -1.6452  -1.6113
    -1.5821  -1.5626  -1.5374  -1.5118  -1.4928  -1.4125  -1.3895  -1.3626
    -1.3457  -1.3357  -1.3298  -1.3083  -1.2839  -1.2650  -1.2525  -1.1972
    -1.1828  -1.1506  -1.1058  -1.0939  -1.0685  -1.0323  -1.0133  -0.9808
    -0.9728  -0.9594  -0.9426  -0.9248  -0.9157  -0.8907  -0.8818  -0.8591
    -0.8334  -0.8117  -0.7890  -0.7153  -0.6791  -0.6516  -0.6173  -0.5932
    -0.5631  -0.5215  -0.4004  -0.3917  -0.2944  -0.2577  -0.2324  -0.2098
    -0.2025  -0.1881  -0.1624  -0.1342  -0.1197  -0.0963  -0.0844  -0.0376
     0.0054   0.1094   0.1185   0.1759   0.2094   0.2453   0.2571   0.2793
     0.3156   0.3434   0.4124   0.4324   0.4432   0.4914   0.5028   0.5646
     0.6122   0.6295   0.6490   0.6666   0.7125   0.7334   0.7391   0.7480
     0.7577   0.7740   0.7845   0.8057   0.8981   0.9617   0.9901   1.0221
     1.1061   1.1286   1.2106   1.2885   1.3024   1.3045   1.3421   1.4061
     1.4269   1.4442   1.4563   1.4736   1.5012   1.5088   1.5140   1.5293
     1.5577   1.5831   1.5994   1.6578   1.6900   1.6952   1.7324   1.7409
     1.7823   1.8798   1.9356   1.9728   2.0013   2.0304   2.0542   2.0562
     2.1888   2.1950   2.5179   2.7137   2.7299   3.0544   3.2549   3.2616
     3.2896   3.5743   3.9337   3.9589   4.1679   4.1922   4.2320   4.6663
     4.9121   5.3788   5.3910   5.5454   5.6234   5.9845   6.0795   6.0982
     6.1606   6.2008   6.2224   6.5096

          k = 0.4000-0.2309 0.0000 ( 92810 PWs)   bands (ev):

   -20.1914 -12.5098  -8.8968  -7.1055  -6.5339  -5.9030  -5.2960  -4.9046
    -4.8329  -4.8071  -4.6198  -4.4613  -4.3157  -4.1942  -4.1694  -4.1308
    -4.1047  -4.0916  -3.9567  -3.9200  -3.8911  -3.8728  -3.8713  -3.7632
    -3.7220  -3.7192  -3.6691  -3.6644  -3.6306  -3.5951  -3.5365  -3.5345
    -3.5231  -3.3019  -3.2730  -3.2694  -3.2629  -3.2519  -3.2364  -3.2086
    -3.0243  -3.0142  -2.9869  -2.9844  -2.9594  -2.9528  -2.7916  -2.7712
    -2.6936  -2.6755  -2.6667  -2.6591  -2.6165  -2.5835  -2.5459  -2.5349
    -2.5176  -2.4750  -2.4393  -2.3455  -2.3150  -2.2927  -2.2707  -2.2206
    -2.1690  -2.1320  -2.1013  -2.0782  -2.0684  -1.9497  -1.8834  -1.8694
    -1.8559  -1.8412  -1.7877  -1.7652  -1.7212  -1.7000  -1.6310  -1.6064
    -1.5969  -1.5366  -1.5037  -1.4954  -1.4794  -1.4738  -1.4290  -1.4020
    -1.3942  -1.3746  -1.3695  -1.3534  -1.3366  -1.3285  -1.3065  -1.2406
    -1.2254  -1.2184  -1.1936  -1.1731  -1.1381  -1.1199  -1.0368  -1.0199
    -0.9811  -0.9650  -0.9365  -0.9288  -0.9027  -0.8743  -0.8620  -0.7533
    -0.7509  -0.7358  -0.6951  -0.6403  -0.6269  -0.5036  -0.4940  -0.4511
    -0.4125  -0.3965  -0.3439  -0.3258  -0.3129  -0.2826  -0.2723  -0.2546
    -0.1994  -0.1911  -0.1822  -0.1792  -0.1463  -0.1266  -0.1117  -0.0868
    -0.0589  -0.0250   0.0536   0.0632   0.1003   0.1569   0.2217   0.2551
     0.2610   0.2822   0.3689   0.3882   0.4523   0.5189   0.5389   0.5670
     0.5796   0.5992   0.6328   0.6493   0.6970   0.7008   0.7456   0.7783
     0.7962   0.8661   0.8840   0.9078   0.9188   0.9395   0.9690   1.0558
     1.1138   1.1275   1.1786   1.2099   1.2173   1.2242   1.2986   1.3197
     1.3339   1.3974   1.4121   1.4237   1.4759   1.4922   1.5078   1.5348
     1.6089   1.6225   1.6542   1.6696   1.6844   1.6942   1.6998   1.7056
     1.8807   1.8822   1.9020   1.9276   1.9293   2.0948   2.1399   2.3657
     2.5155   2.5959   2.7328   2.9564   2.9688   3.2831   3.3478   3.3774
     3.6944   3.7594   4.1740   4.1823   4.2055   4.3422   4.4193   4.4882
     4.5454   4.8223   4.8264   5.0228   5.4396   5.5760   5.9759   6.0603
     6.1958   6.4229   6.6037   6.7068

          k = 0.4000-0.0000 0.0000 ( 92766 PWs)   bands (ev):

   -20.1914 -12.5097  -8.8972  -7.1076  -6.6687  -5.4614  -5.4468  -5.4141
    -4.8257  -4.3789  -4.3720  -4.3690  -4.3359  -4.3162  -4.3005  -4.2845
    -4.2329  -4.1841  -4.1700  -4.1078  -3.8118  -3.7970  -3.7867  -3.7759
    -3.7115  -3.6902  -3.5611  -3.5437  -3.5395  -3.5233  -3.5095  -3.4359
    -3.4012  -3.3780  -3.3708  -3.3586  -3.3144  -3.2923  -3.2639  -3.2415
    -3.2125  -3.1780  -3.1290  -2.8826  -2.8071  -2.7893  -2.7866  -2.7539
    -2.7371  -2.7317  -2.7204  -2.7069  -2.6587  -2.6301  -2.5004  -2.4916
    -2.4386  -2.4011  -2.3698  -2.3229  -2.3033  -2.2995  -2.2489  -2.2214
    -2.1799  -2.0655  -2.0281  -2.0073  -1.9456  -1.9297  -1.9143  -1.9097
    -1.8729  -1.8393  -1.8229  -1.6929  -1.6770  -1.6576  -1.6501  -1.6123
    -1.5774  -1.5698  -1.5363  -1.5147  -1.4908  -1.4205  -1.3878  -1.3596
    -1.3466  -1.3358  -1.3299  -1.3080  -1.2876  -1.2649  -1.2548  -1.1977
    -1.1786  -1.1565  -1.1066  -1.0928  -1.0656  -1.0321  -1.0116  -0.9819
    -0.9765  -0.9565  -0.9383  -0.9291  -0.9196  -0.8914  -0.8834  -0.8670
    -0.8276  -0.8105  -0.7921  -0.7170  -0.6841  -0.6652  -0.6053  -0.5980
    -0.5577  -0.5171  -0.4037  -0.3867  -0.2921  -0.2627  -0.2307  -0.2076
    -0.2019  -0.1933  -0.1590  -0.1334  -0.1123  -0.0960  -0.0799  -0.0320
     0.0115   0.0924   0.1217   0.1758   0.2092   0.2401   0.2552   0.2767
     0.3160   0.3425   0.4105   0.4306   0.4399   0.4922   0.5064   0.5591
     0.6156   0.6366   0.6481   0.6719   0.7114   0.7331   0.7383   0.7490
     0.7596   0.7765   0.7866   0.8073   0.8895   0.9611   0.9894   1.0209
     1.1031   1.1248   1.2138   1.2861   1.3018   1.3072   1.3458   1.4087
     1.4283   1.4435   1.4564   1.4752   1.5029   1.5087   1.5143   1.5286
     1.5581   1.5844   1.5971   1.6564   1.6908   1.6957   1.7320   1.7403
     1.7819   1.8750   1.9370   1.9738   2.0012   2.0334   2.0520   2.0574
     2.1886   2.1944   2.5114   2.7109   2.7320   3.0498   3.2587   3.2634
     3.2933   3.5800   3.9296   3.9584   4.1827   4.1926   4.2275   4.6615
     4.8998   5.3758   5.3900   5.5841   5.6194   5.9656   6.0496   6.1155
     6.1765   6.1964   6.2176   6.5195

          k = 0.4000 0.2309 0.0000 ( 92810 PWs)   bands (ev):

   -20.1914 -12.5097  -8.8973  -7.1052  -6.5341  -5.9036  -5.2972  -4.9053
    -4.8315  -4.8074  -4.6218  -4.4594  -4.3128  -4.2008  -4.1743  -4.1177
    -4.1047  -4.0902  -3.9551  -3.9253  -3.8946  -3.8769  -3.8716  -3.7640
    -3.7204  -3.7187  -3.6708  -3.6643  -3.6286  -3.5949  -3.5354  -3.5332
    -3.5083  -3.3012  -3.2731  -3.2698  -3.2626  -3.2484  -3.2410  -3.2118
    -3.0293  -3.0192  -2.9910  -2.9872  -2.9715  -2.9494  -2.8151  -2.7573
    -2.6871  -2.6794  -2.6701  -2.6463  -2.6092  -2.5766  -2.5479  -2.5353
    -2.5215  -2.4641  -2.4382  -2.3254  -2.3204  -2.2949  -2.2677  -2.2163
    -2.1683  -2.1249  -2.1056  -2.0862  -2.0427  -1.9491  -1.8776  -1.8733
    -1.8637  -1.8382  -1.7898  -1.7609  -1.7296  -1.7178  -1.6385  -1.6183
    -1.6019  -1.5407  -1.5006  -1.4905  -1.4808  -1.4715  -1.4295  -1.4042
    -1.3904  -1.3760  -1.3720  -1.3547  -1.3384  -1.3253  -1.3072  -1.2380
    -1.2214  -1.2146  -1.1932  -1.1634  -1.1376  -1.1269  -1.0417  -1.0252
    -0.9813  -0.9613  -0.9389  -0.9265  -0.9070  -0.8792  -0.8538  -0.7592
    -0.7526  -0.7346  -0.6966  -0.6465  -0.6246  -0.5019  -0.4971  -0.4532
    -0.4111  -0.3823  -0.3437  -0.3233  -0.3071  -0.2747  -0.2688  -0.2616
    -0.1991  -0.1927  -0.1895  -0.1831  -0.1468  -0.1308  -0.1145  -0.0783
    -0.0686  -0.0249   0.0501   0.0606   0.1036   0.1594   0.2026   0.2561
     0.2612   0.2771   0.3693   0.3848   0.4579   0.5171   0.5427   0.5690
     0.5796   0.5982   0.6397   0.6509   0.7037   0.7084   0.7489   0.7790
     0.7998   0.8664   0.8833   0.9061   0.9178   0.9420   0.9583   1.0573
     1.1132   1.1290   1.1761   1.2089   1.2128   1.2254   1.2961   1.3199
     1.3360   1.4021   1.4130   1.4169   1.4755   1.4895   1.5083   1.5337
     1.6083   1.6227   1.6559   1.6684   1.6853   1.6914   1.7030   1.7099
     1.8806   1.8850   1.9058   1.9299   1.9321   2.0945   2.1399   2.3675
     2.5209   2.5914   2.7246   2.9570   2.9692   3.2817   3.3496   3.3741
     3.7012   3.7651   4.1743   4.1826   4.2093   4.3052   4.4397   4.4870
     4.5531   4.8227   4.8258   5.0300   5.4465   5.5565   5.9762   6.0517
     6.2138   6.4540   6.5954   6.7155

          k = 0.4000-0.6928 0.0000 ( 92772 PWs)   bands (ev):

   -20.1914 -12.5097  -8.8971  -7.1029  -6.1517  -6.1276  -5.5340  -5.0328
    -4.9027  -4.6863  -4.3814  -4.3388  -4.2324  -4.1965  -4.1436  -4.0890
    -4.0799  -3.9832  -3.9671  -3.8797  -3.8626  -3.8491  -3.8269  -3.8101
    -3.7850  -3.7733  -3.6686  -3.6493  -3.6361  -3.5995  -3.5905  -3.5190
    -3.4266  -3.3926  -3.3511  -3.2755  -3.2480  -3.2400  -3.2325  -3.2036
    -3.1901  -3.1161  -3.1022  -3.0105  -2.9859  -2.8459  -2.8128  -2.7859
    -2.7513  -2.6710  -2.6340  -2.6119  -2.5782  -2.4953  -2.4521  -2.4160
    -2.3960  -2.3782  -2.3488  -2.3300  -2.3142  -2.2526  -2.1948  -2.1902
    -2.1698  -2.1592  -2.1545  -2.1419  -2.1036  -2.0729  -2.0460  -1.9486
    -1.9265  -1.8927  -1.8702  -1.7741  -1.7644  -1.7311  -1.7220  -1.6961
    -1.6662  -1.6420  -1.6239  -1.5374  -1.5364  -1.5191  -1.4858  -1.4765
    -1.4378  -1.3924  -1.3491  -1.3115  -1.3070  -1.2901  -1.2627  -1.1973
    -1.1346  -1.1161  -1.1006  -1.0911  -1.0680  -1.0503  -1.0397  -1.0101
    -1.0024  -0.9762  -0.9592  -0.9377  -0.9261  -0.9043  -0.8888  -0.8802
    -0.8651  -0.8582  -0.8306  -0.7975  -0.7821  -0.7309  -0.5724  -0.5536
    -0.4681  -0.4613  -0.3935  -0.3737  -0.3423  -0.3156  -0.2814  -0.2740
    -0.2588  -0.2210  -0.2121  -0.1440  -0.1273  -0.1050  -0.0676  -0.0470
    -0.0046   0.0217   0.0527   0.0700   0.2042   0.2166   0.2605   0.2927
     0.3165   0.3490   0.3925   0.4020   0.4299   0.4379   0.4493   0.4868
     0.5052   0.5341   0.5941   0.6049   0.6552   0.6810   0.6911   0.7039
     0.7218   0.7404   0.8297   0.8704   0.9544   0.9810   1.0449   1.0944
     1.1364   1.1486   1.2190   1.2642   1.2714   1.3015   1.3678   1.4201
     1.4435   1.4648   1.4882   1.4938   1.5112   1.5448   1.5656   1.6459
     1.6512   1.6611   1.6822   1.7049   1.7073   1.7212   1.7761   1.8835
     1.8964   1.9184   1.9277   1.9385   1.9911   2.0378   2.1124   2.2377
     2.9027   3.0722   3.0774   3.2402   3.3183   3.4459   3.4544   3.4775
     3.6919   4.0679   4.0849   4.1877   4.5376   4.5467   4.6528   4.6745
     4.6999   4.8957   4.9837   5.0214   5.1423   5.4738   5.5071   5.6034
     6.0432   6.1611   6.1714   6.4255

          k = 0.4000-0.4619 0.0000 ( 92772 PWs)   bands (ev):

   -20.1914 -12.5098  -8.8968  -7.1032  -6.1511  -6.1275  -5.5345  -5.0294
    -4.9053  -4.6857  -4.3766  -4.3446  -4.2371  -4.1958  -4.1417  -4.0842
    -4.0792  -3.9822  -3.9701  -3.8781  -3.8642  -3.8488  -3.8277  -3.8106
    -3.7829  -3.7752  -3.6674  -3.6490  -3.6338  -3.5996  -3.5910  -3.5230
    -3.4392  -3.3943  -3.3571  -3.2684  -3.2470  -3.2411  -3.2281  -3.2052
    -3.1836  -3.1084  -3.0980  -3.0136  -2.9889  -2.8309  -2.8093  -2.7796
    -2.7559  -2.6831  -2.6266  -2.6129  -2.6001  -2.4927  -2.4505  -2.4201
    -2.3992  -2.3751  -2.3438  -2.3339  -2.3084  -2.2631  -2.2036  -2.1827
    -2.1712  -2.1618  -2.1503  -2.1461  -2.1052  -2.0994  -2.0486  -1.9475
    -1.9153  -1.8938  -1.8560  -1.7746  -1.7616  -1.7327  -1.7129  -1.6868
    -1.6647  -1.6402  -1.6205  -1.5371  -1.5344  -1.5225  -1.4822  -1.4776
    -1.4457  -1.3951  -1.3472  -1.3141  -1.3089  -1.2868  -1.2719  -1.1939
    -1.1365  -1.1188  -1.1022  -1.0885  -1.0660  -1.0512  -1.0405  -1.0065
    -0.9987  -0.9745  -0.9592  -0.9384  -0.9259  -0.9050  -0.8912  -0.8810
    -0.8662  -0.8572  -0.8273  -0.7986  -0.7804  -0.7234  -0.5714  -0.5455
    -0.4682  -0.4609  -0.4033  -0.3747  -0.3453  -0.3146  -0.2813  -0.2736
    -0.2576  -0.2202  -0.2161  -0.1504  -0.1253  -0.0998  -0.0642  -0.0505
     0.0008   0.0273   0.0428   0.0685   0.2118   0.2263   0.2548   0.2955
     0.3120   0.3524   0.3900   0.3997   0.4271   0.4421   0.4522   0.4833
     0.5033   0.5416   0.5913   0.6044   0.6468   0.6754   0.6883   0.7080
     0.7215   0.7406   0.8369   0.8679   0.9567   0.9800   1.0415   1.0946
     1.1352   1.1498   1.2195   1.2613   1.2687   1.3093   1.3635   1.4200
     1.4452   1.4657   1.4854   1.4958   1.5152   1.5475   1.5616   1.6431
     1.6495   1.6659   1.6845   1.7000   1.7062   1.7282   1.7779   1.8830
     1.8934   1.9176   1.9249   1.9362   1.9912   2.0319   2.1121   2.2381
     2.9131   3.0726   3.0785   3.2179   3.3343   3.4490   3.4523   3.4854
     3.6905   4.0576   4.0841   4.1868   4.5293   4.5464   4.6642   4.6728
     4.7059   4.8871   4.9650   4.9888   5.2167   5.4578   5.5117   5.6070
     6.0196   6.1646   6.1731   6.3878

     the Fermi energy is     1.6928 ev

!    total energy              =  -27840.90058218 Ry

     total all-electron energy =  -1326952.041071 Ry
     estimated scf accuracy    <       0.00000031 Ry
     smearing contrib. (-TS)   =       0.00298009 Ry
     internal energy E=F+TS    =  -27840.90356226 Ry

     The total energy is F=E-TS. E is the sum of the following terms:
     one-electron contribution =  -29388.44712181 Ry
     hartree contribution      =   14997.68253149 Ry
     xc contribution           =    -911.18294434 Ry
     ewald contribution        =   12958.22556291 Ry
     one-center paw contrib.   =  -25497.18159052 Ry

     convergence has been achieved in  21 iterations

     negative rho (up, down):  1.319E-02 0.000E+00

     Forces acting on atoms (cartesian axes, Ry/au):

     atom    1 type  1   force =    -0.00025398    0.00001586   -0.00694278
     atom    2 type  1   force =    -0.00060625    0.00007408   -0.00334399
     atom    3 type  1   force =     0.00044618    0.00008611   -0.00340887
     atom    4 type  1   force =    -0.00037638   -0.00032698   -0.00334382
     atom    5 type  1   force =    -0.00009094   -0.00008787   -0.00323289
     atom    6 type  1   force =     0.00019056   -0.00049699   -0.00347234
     atom    7 type  1   force =     0.00032970    0.00065761   -0.00365749
     atom    8 type  1   force =    -0.00047314    0.00056347   -0.00314409
     atom    9 type  1   force =    -0.00004332   -0.00001514   -0.00331037
     atom   10 type  1   force =     0.00057871    0.00010567   -0.00078687
     atom   11 type  1   force =     0.00000073    0.00220332    0.00954818
     atom   12 type  1   force =     0.00022949    0.00040449   -0.00065615
     atom   13 type  1   force =     0.00203699   -0.00104336    0.00954610
     atom   14 type  1   force =    -0.00136839   -0.00091691    0.00947313
     atom   15 type  1   force =    -0.00005759   -0.00001781    0.00207243
     atom   16 type  1   force =     0.00084343   -0.00014594   -0.00139363
     atom   17 type  1   force =     0.00011901   -0.00011323    0.00188021
     atom   18 type  1   force =    -0.00003013   -0.00008476    0.00215722
     atom   19 type  1   force =    -0.00002802    0.00000666    0.00010975
     atom   20 type  1   force =    -0.00020235   -0.00016822   -0.00002981
     atom   21 type  1   force =     0.00019995   -0.00016407   -0.00000453
     atom   22 type  1   force =    -0.00001231   -0.00007395    0.00014101
     atom   23 type  1   force =    -0.00009198    0.00026874   -0.00021867
     atom   24 type  1   force =     0.00000151   -0.00006020    0.00000139
     atom   25 type  1   force =    -0.00002134   -0.00007550    0.00023774
     atom   26 type  1   force =     0.00005011    0.00002072    0.00003114
     atom   27 type  1   force =    -0.00006726   -0.00002490    0.00008713
     atom   28 type  1   force =    -0.00009406   -0.00008141    0.00014022
     atom   29 type  1   force =    -0.00006154   -0.00008548    0.00020088
     atom   30 type  1   force =    -0.00021534   -0.00013835    0.00032441
     atom   31 type  1   force =    -0.00020755   -0.00010477    0.00038224
     atom   32 type  1   force =    -0.00005800   -0.00010575    0.00053693
     atom   33 type  1   force =    -0.00007911   -0.00003845    0.00023966
     atom   34 type  1   force =    -0.00036427    0.00000787    0.00026571
     atom   35 type  1   force =    -0.00002822    0.00006158    0.00005496
     atom   36 type  1   force =    -0.00015868   -0.00008007    0.00003967
     atom   37 type  2   force =     0.00064330   -0.00206535   -0.00484713
     atom   38 type  2   force =    -0.00085500    0.00110394    0.00077388
     atom   39 type  3   force =    -0.00318090    0.00440985    0.00334518
     atom   40 type  4   force =    -0.00024348    0.00003517    0.00075367
     atom   41 type  4   force =    -0.00000083    0.00035691    0.00087731
     atom   42 type  4   force =    -0.00037167   -0.00048807    0.00026526
     atom   43 type  4   force =     0.00036283   -0.00005320    0.00035762
     atom   44 type  4   force =     0.00360951   -0.00332532   -0.00204964

     Total force =     0.010171     Total SCF correction =     0.002142
     SCF correction compared to forces is large: reduce conv_thr to get better values

     negative rho (up, down):  1.319E-02 0.000E+00

     negative rho (up, down):  1.319E-02 0.000E+00

     negative rho (up, down):  1.319E-02 0.000E+00

     negative rho (up, down):  1.319E-02 0.000E+00

     negative rho (up, down):  1.319E-02 0.000E+00

     negative rho (up, down):  1.319E-02 0.000E+00

     negative rho (up, down):  1.319E-02 0.000E+00

     negative rho (up, down):  1.319E-02 0.000E+00

     negative rho (up, down):  1.319E-02 0.000E+00

     negative rho (up, down):  1.319E-02 0.000E+00

     negative rho (up, down):  1.319E-02 0.000E+00

     negative rho (up, down):  1.319E-02 0.000E+00

     negative rho (up, down):  1.319E-02 0.000E+00

     negative rho (up, down):  1.319E-02 0.000E+00

     negative rho (up, down):  1.319E-02 0.000E+00

     negative rho (up, down):  1.319E-02 0.000E+00

     negative rho (up, down):  1.319E-02 0.000E+00

     negative rho (up, down):  1.319E-02 0.000E+00

     negative rho (up, down):  1.319E-02 0.000E+00

     negative rho (up, down):  1.319E-02 0.000E+00

     negative rho (up, down):  1.319E-02 0.000E+00

     negative rho (up, down):  1.319E-02 0.000E+00

     negative rho (up, down):  1.319E-02 0.000E+00

     negative rho (up, down):  1.319E-02 0.000E+00

     negative rho (up, down):  1.319E-02 0.000E+00

     negative rho (up, down):  1.319E-02 0.000E+00

     negative rho (up, down):  1.319E-02 0.000E+00

     negative rho (up, down):  1.319E-02 0.000E+00

     negative rho (up, down):  1.319E-02 0.000E+00

     negative rho (up, down):  1.319E-02 0.000E+00

     negative rho (up, down):  1.319E-02 0.000E+00

     negative rho (up, down):  1.319E-02 0.000E+00

     negative rho (up, down):  1.319E-02 0.000E+00

     negative rho (up, down):  1.319E-02 0.000E+00
 BEEFens 2000 ensemble energies
             -0.610244227464947E+02
             -0.362799274919922E+01
             -0.159038669100110E+02
              0.431883124011577E+02
             -0.222364804255094E+02
             -0.206189868105597E+02
             -0.354889236064220E+02
             -0.870204835360917E+02
             -0.467010101457759E+02
             -0.474748640476678E+02
             -0.371290696262202E+02
              0.232059748800275E+01
              0.408536731265423E+01
              0.760222185605346E+01
              0.267775807674448E+01
              0.477469572797164E+02
             -0.209865652781270E+02
             -0.230686459570887E+02
              0.194075355366887E+02
             -0.112993902643156E+03
              0.539440654114900E+02
             -0.290859115898210E+02
             -0.337805527197910E+01
             -0.114646656686255E+02
             -0.881621648199427E+01
             -0.464757981658187E+01
              0.887514472849084E+02
             -0.188504640104838E+02
             -0.904460911629246E+01
             -0.521377882645658E+02
              0.819107736443827E+02
             -0.187498419964052E+02
             -0.377109295188483E+02
              0.250212680051198E+02
             -0.286289124756087E+01
              0.165573296769907E+02
             -0.484467340161297E+01
              0.108144410725572E+02
              0.290385082899563E+02
             -0.103803253853283E+03
              0.561488272711400E+02
              0.143091530733989E+02
             -0.179016617255047E+01
             -0.363132674674497E+02
              0.123817714690346E+02
             -0.147983968468701E+02
              0.401049718998872E+02
              0.366691427087781E+02
             -0.309120266063485E+02
             -0.276682874862254E+02
             -0.330028677276931E+02
             -0.354179705534549E+02
              0.137561599548227E+02
             -0.493635571627057E+02
              0.116529241325770E+02
              0.626469370854485E+02
              0.639454510541647E+02
              0.357706681842367E+02
              0.154945988873688E+02
              0.272383738968435E+02
              0.896464975823906E+02
              0.213391794627618E+02
             -0.551548715021942E+02
             -0.157591997616694E+02
             -0.237495547772014E+02
              0.633102828848496E+02
             -0.777329904032558E+02
             -0.675046420209837E+02
             -0.261406089156696E+02
             -0.659570901353527E+01
             -0.472777064333795E+02
              0.272195355917920E+02
              0.807214485072041E+01
              0.875517344001327E+01
             -0.399421772864891E+02
             -0.348793117685908E+02
             -0.545105510207477E+02
              0.392000165878655E+02
             -0.297905360156028E+02
              0.267051899522505E+02
             -0.720772844351578E+01
             -0.319491256633087E+02
             -0.578936292413116E+02
             -0.177358559060671E+02
             -0.912503554408715E+01
             -0.125408450322842E+02
              0.414445028794012E+02
              0.687129684569366E+02
             -0.388053235251275E+02
             -0.798946330224839E+02
             -0.220615914814797E+02
              0.112093137876746E+03
             -0.595658280332385E+02
              0.357778655436308E+02
             -0.963806718029571E+01
             -0.666361985988576E+02
              0.255812765572314E+02
              0.399650857215622E+02
             -0.199698379546379E+02
              0.401833843201653E+02
             -0.297218348558247E+02
             -0.481540385949603E+02
              0.871212799583026E+02
              0.456308219557568E+02
              0.337770269369975E+02
              0.147080753736890E+02
              0.207031650067949E+02
              0.860878203951238E+02
             -0.258158952891527E+02
              0.790397699445313E+01
             -0.143135285244455E+03
              0.182014376192428E+02
             -0.719754865425469E+02
              0.151768984633747E+02
              0.205836208193789E+02
             -0.334925906155067E+02
             -0.559933069267892E+02
              0.654028376570488E+01
             -0.305866699013102E+02
              0.310180836259740E+02
             -0.532431250579091E+02
              0.167715581740651E+01
             -0.358928141037315E+02
             -0.425701479848806E+01
             -0.101425457375478E+01
              0.182573371980702E+02
              0.142113559294489E+01
             -0.654409013521251E+01
              0.594089683004747E+02
              0.913296587419210E+02
              0.486817381046540E+02
              0.833905179656779E+02
             -0.115837214329399E+02
              0.143477048313672E+02
              0.544005439528059E+02
             -0.110640283236658E+02
             -0.740088925858924E+02
             -0.386637563056932E+02
             -0.524514156073602E+02
             -0.278307179814822E+02
              0.328695849012862E+02
             -0.117427738874043E+03
             -0.187957575806535E+02
              0.416524679876840E+02
             -0.388314320801368E+02
             -0.366952145991611E+02
              0.547397844355329E+02
              0.403149899091438E+02
             -0.355699806034885E+02
              0.139434681524983E+02
             -0.274730408835311E+02
              0.345175068814472E+02
              0.447709396366059E+01
              0.211645306868861E+02
             -0.889293855296286E+02
             -0.482734498380020E+02
             -0.100191207463657E+02
              0.319418614525452E+01
             -0.369082360028516E+02
              0.106611428625188E+03
             -0.231699430921132E+02
             -0.400338481066375E+02
              0.390814366528518E+02
             -0.496580224428666E+02
             -0.365363835690541E+02
              0.326549129386748E+02
              0.125155894179709E+02
              0.165389882576628E+02
              0.117452531031930E+02
             -0.133418680100450E+02
              0.225780121941797E+02
              0.593163107368852E+02
             -0.313061197594812E+02
              0.163469999445576E+02
              0.939344189639184E+02
              0.342512577467812E+02
             -0.731861295815213E+01
             -0.189772724347026E+02
              0.154186414184390E+03
             -0.165387250885767E+02
              0.365400016755426E+02
              0.196037847265882E+02
              0.363000821640380E+02
              0.896839150594807E+02
              0.545397063842083E+02
             -0.241686693828239E+01
              0.229140989267402E+02
              0.487617202394674E+02
              0.365594062753586E+02
             -0.528878293580924E+02
              0.941073300994660E+02
             -0.830358301741601E+02
             -0.198650032969281E+02
              0.585747652276784E+02
              0.686099805878031E+01
              0.791393764287000E+01
              0.342276053762328E+02
              0.300124754699741E+02
              0.355457082113942E+02
             -0.640864329112553E+02
              0.287691386564302E+01
             -0.298909260003616E+02
             -0.872532583192661E+01
             -0.147262469465454E+01
             -0.730340376906955E+01
             -0.418789467748599E+01
              0.863888090257990E+02
             -0.101379563588423E+02
             -0.277890582703350E+02
             -0.497205674767706E+01
              0.140687929140854E+02
             -0.567313165711537E+02
             -0.410279323824560E+02
             -0.383852483939854E+02
             -0.633662611128936E+02
             -0.170622093913904E+02
             -0.449651506995133E+02
              0.164328897505986E+02
             -0.237906971181380E+01
             -0.105170047104319E+02
             -0.938482300110684E+01
              0.810265303799258E+01
             -0.243349202095197E+02
              0.692951324778892E+02
             -0.811982625735960E+02
             -0.141863524320623E+02
             -0.174728154740124E+02
              0.182778814212853E+02
              0.215766155813081E+02
             -0.466355003247381E+02
             -0.202476003457629E+02
              0.443333758493599E+02
             -0.277263013944606E+02
              0.187891285556542E+02
              0.384661890704271E+02
             -0.322961801519739E+01
              0.114743822320345E+03
             -0.230515587968981E+02
             -0.342682411401069E+02
              0.579307002236595E+01
             -0.229722700482197E+02
              0.530528506220958E+02
             -0.339770777882691E+02
              0.107143450559547E+02
              0.643287537897357E+02
             -0.127027942993342E+02
              0.120878199117255E+03
              0.126568118148512E+03
             -0.653551526277433E+02
              0.593700043512683E+02
              0.167747626761577E+02
             -0.520806970115861E+02
              0.216959365139460E+02
              0.356351298541038E+02
              0.365227798342602E+02
              0.135997152225494E+01
              0.160661469245873E+02
              0.699986298217530E+02
             -0.248190452063151E+02
              0.181969928727994E+02
              0.742666918517168E+02
             -0.374455618985099E+02
             -0.131076583974080E+02
              0.511781143839175E+02
              0.299054608160019E+02
              0.784175564711926E+02
              0.224516838788959E+02
              0.633194929451474E+01
              0.281733675891865E+02
              0.385586620995314E+02
             -0.474877034558367E+02
              0.336776964301157E+01
              0.131379790138587E+02
              0.114441940809987E+02
              0.221891237626720E+02
             -0.578301903357498E+02
              0.367672092989455E+02
             -0.446141689722995E+02
             -0.349217144473249E+02
              0.179230688327977E+02
             -0.181870471746779E+02
              0.558277738068714E+02
             -0.256717087164644E+02
              0.268372762609692E+02
              0.369716372617993E+02
              0.833346846486667E+02
              0.577560129422893E+02
              0.464586730411083E+02
             -0.105498041076549E+02
             -0.396814640585615E+01
             -0.333853095550007E+02
              0.755064480892211E+02
              0.801501082352487E+02
              0.364065678259472E+02
             -0.193512884955460E+02
              0.514433617546045E+02
             -0.162819692772985E+02
              0.215628139459236E+02
              0.618180124384640E+02
              0.212519403703510E+01
             -0.104933755276213E+02
             -0.283913272959468E+02
             -0.515130635139329E+02
              0.950618556868277E+02
              0.442725182584390E+02
             -0.562553745892372E+02
             -0.974341170655563E+01
              0.251162980804334E+02
             -0.100172176199782E+02
              0.595646613330673E+02
              0.152831339599427E+02
              0.803436508355279E+02
              0.281361589979839E+02
             -0.265022265770160E+02
              0.249811028108386E+02
             -0.504798080034897E+01
             -0.324905333565534E+02
              0.133942480380412E+02
              0.206352685952668E+02
              0.937920023968811E+02
              0.801535666173089E+02
              0.554129447513836E+02
              0.734146234419181E+02
              0.805186985846390E+01
             -0.275119077485467E+02
              0.163885951727628E+02
             -0.369706263224473E+02
             -0.479447593827587E+02
             -0.566632849091868E+02
             -0.268244412336311E+02
             -0.110281890453391E+03
             -0.293442478546789E+02
             -0.842158318028880E+02
              0.211335760177847E+02
             -0.479524801320194E+02
              0.399511219785726E+02
             -0.946910005972597E+02
             -0.331717218852022E+02
              0.550528529355769E+02
              0.208785585637283E+02
             -0.835589487335968E+02
              0.633795777438654E+02
             -0.258397407650782E+02
              0.515384339581482E+02
             -0.243824884754356E+02
             -0.755710141418101E+02
              0.112701030167181E+02
             -0.614911890071858E+02
             -0.168360874267012E+02
             -0.150539258225257E+01
              0.420407446198871E+02
              0.127694108035115E+03
             -0.464006399183762E+02
             -0.364505633101637E+02
             -0.100233406111266E+01
             -0.130858614223056E+02
             -0.826931533585010E+02
             -0.599805710777979E+02
              0.519797255485818E+02
             -0.290037345983822E+02
              0.170508153324580E+02
             -0.491996468259628E+02
             -0.132796704263596E+02
             -0.439403647315211E+02
              0.568252611991470E+02
              0.151487005683715E+02
             -0.232960832892633E+02
             -0.128002014016453E+02
              0.674412642695144E+01
             -0.623552585652408E+01
              0.443799535656584E+02
             -0.253346501526013E+02
              0.285301053581657E+01
              0.341349452803911E+02
              0.171844996245392E+02
             -0.161194955572918E+02
              0.157102445258809E+03
              0.541396190118614E+02
              0.121438811160458E+01
              0.161822567395760E+02
             -0.618253853249734E+02
              0.316747701111799E+02
             -0.725984212177878E+02
             -0.253818999224373E+02
             -0.525873504754037E+02
             -0.221122542727811E+02
              0.572437559962167E+02
             -0.540172485614968E+02
              0.162365879310258E+02
             -0.411907608435013E+01
              0.387551043205235E+01
             -0.435627289196073E+02
             -0.480547136278939E+02
             -0.404931008691062E+01
             -0.426644734660267E+02
             -0.218305292105897E+02
             -0.440761353135276E+02
             -0.119616582058478E+02
             -0.360814355817872E+02
             -0.519243734857499E+02
              0.213901185118388E+02
             -0.209890041301999E+02
              0.189091708946229E+02
              0.979784307096799E+01
             -0.742198839120080E+02
             -0.550840684570687E+02
             -0.400979201467954E+02
              0.355973894449037E+02
              0.267519668192321E+01
             -0.629967605062135E+02
              0.588972051651360E+02
             -0.403469577079057E+02
              0.548156354301566E+02
             -0.291418166970210E+02
             -0.448555581254303E+02
              0.299635623991435E+02
             -0.661551164885247E+02
             -0.381827691519146E+02
              0.675921016360230E+02
              0.205178177296197E+02
             -0.362735846506901E+02
              0.492576558230013E+02
             -0.175037370481485E+02
             -0.325043914796742E+02
             -0.303462793247975E+02
             -0.503462413604035E+02
              0.250920848412842E+02
             -0.937924836171593E+02
             -0.844472760853428E+02
             -0.739615537775035E+01
             -0.308364003487376E+02
             -0.578949856531399E+02
              0.725917283129359E+02
              0.132275435763711E+03
             -0.362257326380698E+02
             -0.257510879507828E+01
             -0.640453664610865E+02
              0.654114881456886E+02
              0.171963268575184E+02
             -0.183054152188687E+02
             -0.412010937541631E+02
              0.149434678005725E+02
             -0.589340177410048E+02
             -0.198673566523861E+02
             -0.909381732270151E+02
              0.338990580071104E+02
              0.169505515775757E+02
              0.181893942690124E+01
             -0.712933100277201E+01
             -0.332113627997926E+02
             -0.765751289295542E+01
              0.126281653672120E+03
             -0.199811415722929E+02
             -0.440299409200695E+02
             -0.687739423135158E+02
              0.110092395412474E+02
             -0.344357728881619E+02
              0.597331455481492E+01
              0.263308696433127E+02
              0.102493662810990E+02
              0.279858582540843E+02
              0.120907527210663E+02
              0.632830708636992E+02
              0.318101205467727E+02
             -0.328625982965735E+02
              0.358641617942083E+02
              0.381361451926999E+02
              0.121500542334676E+02
              0.489268106762747E+02
             -0.226554399173250E+02
              0.769650070433725E+02
              0.173699946649355E+02
             -0.274004751897548E+02
             -0.727316927994827E+01
             -0.187420628690594E+02
              0.262754741174788E+02
             -0.235684725920136E+02
             -0.190679443073577E+00
             -0.857005751561360E+01
              0.814110780561317E+02
              0.503214132508241E+02
             -0.690450449155111E+02
             -0.481291841516062E+01
             -0.558101248342143E+02
             -0.160085871937579E+02
             -0.269562494871824E+02
              0.382055464069936E+01
              0.587248877842956E+00
             -0.259230445174996E+02
              0.823111619408405E+01
             -0.607406675109191E+01
             -0.128935343221192E+02
              0.863703878977272E+02
              0.182647719051748E+02
             -0.811707155352753E+02
             -0.460552829139806E+02
              0.950335508279477E+02
              0.279286852439955E+02
             -0.107267224956449E+02
              0.105171991599402E+03
             -0.195560427363578E+02
             -0.123453492425873E+02
             -0.545320374955406E+01
              0.108326478639375E+02
              0.274339899456209E+02
              0.782085574026576E+01
              0.306885070375639E+02
             -0.188516955221230E+02
             -0.306050205800660E+02
             -0.420240795090678E+02
             -0.479578734523234E+02
              0.466279651973038E+02
              0.127553919886401E+02
              0.389772359299982E+02
              0.134369720869312E+02
              0.860608943134712E+02
              0.157514667524952E+02
             -0.850412103154479E+02
             -0.336274452090113E+02
              0.133956089185750E+02
             -0.304309395451009E+02
              0.630107545614532E+02
             -0.895483921002324E+01
              0.149642569816212E+02
              0.500236537301398E+02
             -0.711706271257601E+02
              0.150553169907775E+03
              0.209801881883489E+02
              0.272605910150733E+02
              0.349755995632347E+02
              0.104085649885178E+02
             -0.156401103204030E+01
              0.360168573665701E+02
             -0.359265373393816E+02
              0.778124726651619E+02
              0.689088294607197E+02
             -0.408322400246160E+02
              0.150527765014381E+02
              0.674191558159952E+02
             -0.225038397862727E+02
              0.155444875961008E+02
              0.436979886324436E+02
              0.424438127118418E+02
             -0.789089667180822E+02
             -0.153173028380785E+02
             -0.357690762370098E+02
             -0.152273215729127E+01
             -0.770208912184757E+01
             -0.539482102060651E+01
             -0.181301712865904E+02
             -0.295744051141025E+02
              0.643438810935432E+01
              0.112105912955623E+02
              0.538653921283797E+02
             -0.392896499647497E+02
              0.377120287231309E+02
              0.441273521402276E+02
             -0.187086222933088E+02
              0.876630887651395E+02
             -0.701656569664563E+02
             -0.103764390633692E+03
             -0.664402626783335E+01
             -0.273723289448810E+01
              0.384842846193396E+01
              0.793991555941182E+02
             -0.107186654345386E+02
              0.419078627610563E+02
              0.446937668014944E+02
              0.387370669508781E+02
             -0.999525575015514E+01
              0.630700426250651E+02
             -0.134524856065821E+02
             -0.309610695480682E+02
             -0.481496761239043E+02
              0.593522167380615E+01
              0.371404428476779E+02
             -0.604087154562993E+01
              0.394804665353086E+02
             -0.175530052789748E+01
              0.658378978894230E+02
              0.188204989973899E+02
              0.100292766440855E+02
             -0.121731914037773E+02
              0.333857678773358E+02
              0.364765155208801E+02
              0.233527183587457E+02
             -0.522108773767627E+00
             -0.553630024434064E+02
              0.262451980185735E+02
              0.176340967880282E+02
              0.404463967025088E+02
              0.273920511825914E+02
              0.374459668397569E+02
             -0.607725403248298E+01
              0.253061893867758E+02
             -0.300146646903206E+02
             -0.199226330022600E+01
             -0.572177835922508E+02
             -0.309697267448684E+02
              0.381099832713268E+02
             -0.940629437548678E+02
              0.295798610394942E+02
              0.184882022933058E+02
              0.845095480524211E+02
             -0.301195945653737E+02
              0.331367492772320E+02
             -0.138285727355975E+02
             -0.466716951723064E+02
             -0.765194953545978E+02
             -0.534711363266625E+01
             -0.865115177424842E+02
              0.200181139179206E+02
             -0.248727081533828E+02
              0.307640441163766E+02
              0.238335164062008E+02
             -0.242880053153245E+02
             -0.267247141273449E+02
              0.393204420979760E+02
             -0.591693231992740E+02
             -0.117572744416591E+02
             -0.197103230367112E+02
              0.214263532407430E+02
             -0.887552280292061E+01
              0.364356736042288E+01
             -0.201548264627697E+02
              0.561826922618015E+02
             -0.442915350129120E+02
              0.792929605358529E+01
              0.588976138006907E+02
             -0.325506776383887E+02
              0.363208688731615E+01
             -0.880061246335401E+01
             -0.673076484183606E+02
             -0.484624429169457E+02
             -0.862244442307189E+01
              0.242476200883540E+02
              0.304266802377718E+02
              0.863234468177694E+01
             -0.420528225973680E+01
              0.152855849188655E+02
             -0.442079842771111E+02
              0.329755972569882E+01
             -0.534073282026225E+02
             -0.326320468073157E+02
              0.477581950630768E+02
             -0.296826010332076E+02
              0.626446682594880E+02
             -0.216128063241530E+02
              0.355499115913912E+02
              0.243211274642435E+02
             -0.647519974866511E+02
             -0.281805343427056E+02
              0.937467588517950E+01
             -0.374215007333837E+02
             -0.341774204095085E+02
             -0.834892284181669E+02
             -0.542418688017960E+02
             -0.513345416736784E+02
             -0.418111663092726E+02
             -0.979475488641242E+00
              0.100804475778368E+02
              0.110494415603580E+01
              0.154766473351930E+02
             -0.552595636970207E+02
              0.142777526986409E+02
              0.258510538606466E+02
             -0.670579107677096E+02
             -0.705302629539739E+02
             -0.433610974305268E+02
             -0.173879334579518E+02
              0.179361217851810E+02
              0.453908193710276E+01
             -0.428199580728477E+02
              0.367837660671503E+02
             -0.217452699611088E+02
              0.520295597531382E+02
             -0.892229593956445E+02
              0.601410268433252E+02
             -0.219386470005215E+01
             -0.370917304375245E+02
             -0.217763015644374E+02
              0.471806008548613E+01
              0.377315141795607E+02
             -0.760392431414717E+02
[...]
              0.284690245943097E+02
              0.142533449520041E+03
              0.244122444046742E+02
              0.123534150984091E+02
             -0.466849756766369E+02
             -0.640891546076680E+02
             -0.189804608716134E+02
              0.331419215784889E+02
             -0.431174535912112E+01
              0.191538672526399E+02
              0.338087657720233E+02
             -0.589587485928760E+02
              0.223973857948624E+02
              0.583837754360784E+02
              0.555827420987252E+02
             -0.423674488599670E+01
             -0.134056734057833E+01
             -0.997458129438888E+01
             -0.484752867963884E+02
             -0.678782088075242E+02
              0.789624782457653E+02
             -0.528312861528718E+01
             -0.590850736348944E+02
              0.175457026196108E+01
             -0.206839965321539E+02
              0.943162525126292E+02
             -0.217792265179472E+02
             -0.355586811055899E+02
              0.337256681755889E+02
             -0.146725203556949E+02
              0.392095276654425E+02
             -0.234497513216161E+01
              0.101583355761891E+03
              0.492545222787529E+02
             -0.504600862628529E+01
             -0.324071604766871E+02
              0.233898647515005E+02
             -0.531485880865106E+02
             -0.128193221135001E+02
              0.589097534716950E+02
             -0.289179074826072E+02
             -0.440620967345880E+02
             -0.224429332157561E+02
              0.521308998453452E+02
              0.125337161435755E+02
             -0.853164986792808E+02
              0.305741289413448E+02
              0.152569987157423E+02
              0.583669437842428E+01
             -0.516057041198432E+02
             -0.373618331571515E+01
              0.324887181608981E+02
              0.515215729248932E+02
              0.636251800645978E+02
              0.230813654847473E+02
              0.788158925823552E+00
             -0.500989017555498E+02
             -0.512379277409805E+02
             -0.751291254997026E+02
             -0.624411336848277E+01
              0.310823241505304E+02
             -0.379054531766090E+01
              0.549573772923859E+02
             -0.319787162763597E+02
              0.167266769483516E+02
             -0.103868088391516E+02
             -0.291144440273062E+02
              0.588870419991616E+02
              0.794778087312329E+01
              0.607771919795041E+02
              0.512733034155087E+01
              0.266093013082804E+02
             -0.193526041131329E+02
              0.589341616106376E+02
             -0.112472922778437E+02
             -0.115727717368669E+00
             -0.794300986101252E+02
             -0.128727544662205E+02
              0.722739897739658E+02
              0.676517418370163E+02
              0.253324913976460E+02
             -0.131198067399055E+02
              0.347522448760932E+01
             -0.174757112792814E+02
             -0.215773943793323E+01
              0.912686887800952E+02
              0.127620164802386E+01
             -0.192024894500747E+02
             -0.111317304942299E+03
             -0.554865019436298E+02
             -0.377090207903236E+02
             -0.661898506496736E+02
             -0.558787397263534E+02
             -0.686308643878369E+02
             -0.449621143108146E+02
             -0.412373857954367E+02
             -0.454446581041485E+02
              0.485942731363484E+02
             -0.295030411390910E+02
             -0.999709367828656E+02
              0.421177325531831E+02
             -0.261834813526138E+02
             -0.795034261370321E+02
              0.949095109219587E+02
             -0.221083240855642E+02
              0.228820740457563E+02
              0.457091524755790E+02
             -0.127004361595311E+01
              0.255804855530666E+02
              0.470565187037144E+01
              0.414337572164964E+00
             -0.151442586594063E+02
             -0.719850660036281E+02
              0.133806369703378E+02
             -0.130023300754382E+03
              0.628071899523767E+02
             -0.442874188930995E+02
             -0.163878487251307E+02
             -0.159119758605283E+02
              0.726133842658110E+01
             -0.228519057672879E+02
              0.298512690542578E+02
             -0.523605801509863E+02
              0.369093401226625E+02
              0.373328101463435E+02
              0.168788589471826E+02
              0.101158666101986E+02
              0.198993035716359E+02
              0.628267566557219E+01
              0.311812176424626E+02
             -0.802571914798847E+01
             -0.596343580052991E+02
              0.762655732233628E+01
             -0.154328448412263E+02
             -0.196357392034855E+01
              0.509334756211283E+02
             -0.831083295172973E+02
             -0.146524893901847E+01
              0.593106864749302E+00
              0.100036465722042E+02
              0.320085891943015E+02
             -0.124248320596037E+02
              0.840011699662145E+02
              0.489568070047297E+02
             -0.183970538102921E+02
             -0.959078655950134E+01
              0.109392174156210E+01
              0.773570717848432E+02
             -0.588762345628229E+02
             -0.106299430374824E+03
              0.310775437378176E+02
             -0.163804140719297E+02
             -0.140429438590396E+02
              0.131515504759435E+02
              0.772532740893620E+02
              0.466487826444792E+02
             -0.154299002626674E+02
             -0.505869750709532E+02
             -0.555558654945875E+01
              0.307904156588273E+02
             -0.112530911595013E+02
             -0.759735978452034E+02
             -0.276841472784562E+01
             -0.895109526317253E+02
             -0.478272955697987E+02
              0.773197960212132E+02
             -0.486345285338723E+02
             -0.640399349367067E+02
             -0.517156525084247E+02
             -0.351863105615977E+02
              0.342870986098149E+02
              0.826121123928957E+02
             -0.363144629284693E+01
              0.277973596311846E+02
             -0.184919171644170E+02
             -0.697620506607897E+02
              0.467763874899857E+02
             -0.447683417827893E+02
              0.322996445923205E+02
              0.377794612272216E+02
             -0.663933072606125E+01
              0.392348650739613E+02
              0.440364363063877E+02
              0.101302407483700E+03
             -0.156463147807343E+02
             -0.459139761090365E+02
             -0.616194579022572E+02
             -0.124872812574225E+02
             -0.235145849584866E+02
              0.103512355885393E+03
             -0.451490342541353E+02
              0.105675017322481E+02
              0.972176342202692E+01
             -0.265698937815213E+02
             -0.803585474190908E+02
             -0.703061838446087E+01
              0.985177472597437E+02
              0.949089015758580E+01
              0.811940030550511E+01
             -0.530169458373580E+02
             -0.608328833140235E+02
             -0.571883119368762E+01
              0.502792815585223E+02
             -0.223318873051862E+02
              0.108503851448300E+03
             -0.438288342359817E+02
              0.147337400406824E+02
             -0.224759403890597E+02
             -0.721827081070010E+02
              0.171387863214204E+01
             -0.504541692791904E+02
             -0.764489276744034E+02
              0.622900089921666E+01
              0.236810607841920E+01
              0.516785394430996E+02
              0.188663466869861E+02
             -0.325495233739623E+02
              0.231176577532958E+02
             -0.815791920332496E+02
             -0.524160138020911E+02
              0.906610631971210E+02
              0.142515126821676E+02
             -0.188193431173910E+02
             -0.353767361129448E+02
             -0.271664830619045E+01
             -0.592558947977739E+01
              0.835289767209865E+02
              0.420016243644157E+02
             -0.166398261768366E+02
             -0.121758255476559E+02
             -0.429583584957364E+02
             -0.201348610014775E+02
             -0.673209768010420E+02
              0.462486111525546E+02
              0.550459363192650E+01
              0.145282560655560E+02
              0.157140795675188E+02
             -0.629355595934342E+00
             -0.169602322197232E+02
             -0.302721567989196E+01
             -0.101017756567022E+03
             -0.230644977886166E+02
             -0.771228500345933E+01
             -0.951740631687886E+01
              0.548836451649100E+02
              0.627352677342948E+02
              0.165678249509861E+02
             -0.975508217080818E+02
              0.650778856357413E+02
             -0.216152981765997E+02
             -0.379009333859607E+02
             -0.868865565992759E+02
             -0.388328152442486E+02
              0.567972275242066E+02
              0.246167575077388E+02
              0.522399173198119E+01
              0.294139854647559E+02
             -0.567815572798538E+02
             -0.424914327437320E+02
              0.518565488905418E+02
              0.389305269153726E+02
              0.521342673234196E+02
             -0.115977650823569E+01
              0.692079817583294E+01
              0.572232538798220E+02
              0.967976761510316E+02
             -0.301129040514691E+02
              0.325144561764266E+02
             -0.120283441098594E+02
             -0.414475354292883E+02
             -0.316290801105324E+02
             -0.302084439429449E+02
             -0.132092664608697E+02
             -0.525890958870179E+02
             -0.218138977547950E+02
             -0.141864985459640E+03
              0.370629945619740E+02
              0.208117983621435E+02
             -0.396275490832622E+01
             -0.382082764317059E+02
             -0.205187086961513E+02
             -0.529822151599818E+02
              0.151651472254122E+02
              0.824242275019772E+02
             -0.253078024793866E+02
             -0.164029542541249E+02
              0.239253718217683E+02
             -0.492137443995713E+02
              0.884970711123392E+02
              0.155188954938767E+02
              0.226601675280906E+02
              0.492866955540328E+02
              0.316184589453616E+01
              0.545047901750038E+02
              0.144072383124847E+02
             -0.106628189771943E+02
              0.737326225149829E+01
              0.715243049950402E+00
              0.730524144878023E+02
              0.101666896854787E+02
              0.121697400528174E+02
             -0.130649062129665E+02
              0.132979680775528E+02
             -0.916033395329762E+02
             -0.327754944583140E+02
             -0.459894840496486E+02
              0.487761832118917E+02
             -0.292865924327147E+02
             -0.661383349368833E+02
              0.541707134147558E+02
             -0.122617594760399E+02
              0.442233683255255E+02
             -0.903440891750928E+02
              0.233011362755642E+02
              0.859093826056267E+01
              0.586674097098921E+01
             -0.838500852410840E+01
             -0.908260811983428E+01
              0.482053155026318E+02
              0.200563149974920E+01
             -0.477928098837975E+02
             -0.177251593036855E+02
              0.277619706044566E+02
             -0.118542515248552E+03
             -0.934367108428589E+02
              0.395869835668316E+01
              0.118498474446193E+02
             -0.415932367021947E+02
             -0.389332123321844E+01
              0.112638608851930E+03
              0.307986252636157E+02
             -0.574369057038326E+02
              0.929479356042816E+01
             -0.969390691872077E+01
              0.106427334233435E+02
             -0.339663247134770E+02
              0.196663572724484E+02
              0.285915974754113E+02
             -0.302892547538494E+01
              0.108766670014196E+03
             -0.140497683755596E+02
             -0.317602135630700E+02
              0.144551720221126E+02
              0.468746689867019E+02
             -0.357572788824735E+02
             -0.318410784133124E+01
              0.969980380392533E+02
             -0.464327352920998E+01
              0.624510526107191E+02
              0.136330978449438E+02
             -0.904455527214884E+01
             -0.306235519674786E+02
              0.569116208523743E+02
             -0.517301039870527E+02
             -0.221449404240593E+01
             -0.171022185604010E+02
             -0.407337761306084E+02
              0.185708918146078E+02
              0.240724070709619E+02
              0.116169973002616E+02
              0.707449618854639E+00
             -0.386713220131797E+02
              0.216068819170999E+02
             -0.674729337362811E+01
             -0.247541269788846E+02
             -0.211642089305317E+02
              0.204012258812134E+02
             -0.599708394586412E+01
             -0.351203885912320E+02
             -0.107213710103208E+03
              0.103383504437518E+02
              0.249556081957984E+02
             -0.389877433537027E+02
             -0.212208412943185E+02
              0.811477696607373E+02
              0.658619536399056E+01
              0.313159960809043E+02
              0.397006303165233E+01
              0.323961656608771E+02
              0.648588420364092E+01
             -0.375042702919152E+02
             -0.239739782135914E+01
              0.879434811774928E+01
              0.275528541183587E+02
              0.785784123638335E+02
              0.509930208070136E+02
              0.205122833882058E+00
              0.170050288599391E+02
              0.616409846122980E+02
              0.237396036606570E+02
             -0.756408417746121E+02
             -0.275177238635859E+02
              0.151649487225681E+02
              0.566778117978913E+01
              0.256349401661214E+02
             -0.550428038874047E+02
              0.901614161861471E+01
              0.388313121227018E+02
              0.500520475698584E+02
             -0.437122220366857E+02
             -0.688623055011453E+01
             -0.210115348403525E+01
             -0.134781619921395E+02
             -0.366847079069485E+02
             -0.215986351003339E+02
             -0.209545235897423E+01
              0.798988829276436E+01
              0.423604547264766E+02
             -0.309948581907861E+02
              0.830402038570501E+02
              0.329344245322534E+02
              0.221326135138336E+02
              0.335080351410327E+02
              0.324437490530586E+02
              0.348158925988812E+02
              0.540023903135338E+02
             -0.436351800436625E+02
              0.622926667899553E+02
             -0.112877763922288E+03
              0.308956016499439E+02
             -0.107079485294052E+03
              0.858875362359101E+02
              0.694800098458589E+02
             -0.110326495377271E+02
             -0.495649435097466E+02
             -0.431794889248812E+02
             -0.626362310999382E+02
             -0.632167713442362E+02
              0.554866779626227E+02
              0.407704607807305E+02
              0.238058237846966E+02
              0.375106239559005E+02
              0.405571071111274E+02
             -0.384201437371474E+02
             -0.198637392650768E+02
              0.589455109082933E+02
             -0.116802775317322E+02
              0.554508560413282E+02
              0.703477817450238E+02
             -0.557422888935171E+01
             -0.710230780117550E+02
             -0.848644338398913E+00
             -0.246767399089075E+01
             -0.888149138517451E+01
             -0.179964159458615E+01
             -0.656298456253188E+02
             -0.211099981864562E+02
              0.546411036222239E+01
              0.907685575607564E+01
              0.471578977176084E+02
             -0.399980359070518E+02
              0.660062372576269E+02
             -0.427372215447967E+02
              0.211908310139593E+02
              0.352555054654317E+02
 
 BEEF-vdW xc energy contributions
           1 :   -786.658819362492     
           2 :    722.353969658078     
           3 :   -611.164742027481     
           4 :    480.480129474878     
           5 :   -357.959360120493     
           6 :    263.424759170869     
           7 :   -204.455582053990     
           8 :    176.443792197586     
           9 :   -166.651634869483     
          10 :    160.379118933886     
          11 :   -146.750008915749     
          12 :    121.949352179055     
          13 :   -89.0704023267330     
          14 :    55.1905129385203     
          15 :   -27.3596767467761     
          16 :    9.32556434995718     
          17 :  -0.256852167220131     
          18 :   -4.28533158321102     
          19 :    9.83847209205021     
          20 :   -20.3121028971860     
          21 :    36.2996492963326     
          22 :   -55.0958402722302     
          23 :    72.2414053290568     
          24 :   -83.7508200764287     
          25 :    87.9288062185741     
          26 :   -85.9751406229185     
          27 :    81.1977206481375     
          28 :   -77.3131298575015     
          29 :    76.6851577258093     
          30 :   -79.3326327279484     
          31 :   -86.3240764979039     
          32 :   -66.0834451775075     

     Writing output data file ./pwscf.save/
 
     init_run     :    354.41s CPU    359.12s WALL (       1 calls)
     electrons    :  15425.11s CPU  15570.65s WALL (       1 calls)
     forces       :    106.34s CPU    107.70s WALL (       1 calls)

     Called by init_run:
     wfcinit      :    306.53s CPU    310.16s WALL (       1 calls)
     potinit      :     44.38s CPU     44.71s WALL (       1 calls)
     hinit0       :      1.49s CPU      1.53s WALL (       1 calls)

     Called by electrons:
     c_bands      :  12809.28s CPU  12920.09s WALL (      22 calls)
     sum_band     :   1828.54s CPU   1844.20s WALL (      22 calls)
     v_of_rho     :    116.05s CPU    120.78s WALL (      22 calls)
     newd         :     35.89s CPU     50.31s WALL (      22 calls)
     PAW_pot      :    146.74s CPU    146.77s WALL (      22 calls)
     mix_rho      :    533.72s CPU    534.55s WALL (      22 calls)
     vdW_kernel   :     33.46s CPU     33.47s WALL (       1 calls)

     Called by c_bands:
     init_us_2    :     88.56s CPU     88.87s WALL (     598 calls)
     cegterg      :  11901.10s CPU  12011.47s WALL (     286 calls)

     Called by *egterg:
     cdiaghg      :    102.31s CPU    102.35s WALL (    1676 calls)
     h_psi        :   7687.45s CPU   7727.33s WALL (    1702 calls)
     s_psi        :   1240.38s CPU   1240.58s WALL (    1702 calls)
     g_psi        :     17.99s CPU     18.01s WALL (    1403 calls)

     Called by h_psi:
     h_psi:calbec :   1171.04s CPU   1171.30s WALL (    1702 calls)
     vloc_psi     :   5248.20s CPU   5250.68s WALL (    1702 calls)
     add_vuspsi   :   1239.90s CPU   1240.17s WALL (    1702 calls)

     General routines
     calbec       :   1715.37s CPU   1715.75s WALL (    2040 calls)
     fft          :     52.60s CPU     52.63s WALL (    3342 calls)
     ffts         :    174.06s CPU    174.11s WALL (   11536 calls)
     fftw         :   5361.90s CPU   5363.76s WALL (  370850 calls)
 
     Parallel routines
 
     PWSCF        :      4h26m CPU      4h29m WALL

 
   This run was terminated on:  21:26:56  20May2022            

=------------------------------------------------------------------------------=
   JOB DONE.
=------------------------------------------------------------------------------=
