
     Program PWSCF v.6.7MaX starts on 20May2022 at 16:13:27 

     This program is part of the open-source Quantum ESPRESSO suite
     for quantum simulation of materials; please cite
         "P. Giannozzi et al., J. Phys.:Condens. Matter 21 395502 (2009);
         "P. Giannozzi et al., J. Phys.:Condens. Matter 29 465901 (2017);
          URL http://www.quantum-espresso.org", 
     in publications or presentations arising from this work. More details at
     http://www.quantum-espresso.org/quote

     Parallel version (MPI), running on     1 processors

     MPI processes distributed on     1 nodes
     Reading input from ch3ch2co-ensemble.in
Warning: card &CELL ignored
Warning: card / ignored

     Current dimensions of program PWSCF are:
     Max number of different atomic species (ntypx) = 10
     Max number of k-points (npk) =  40000
     Max angular momentum in pseudopotentials (lmaxx) =  3
     file Pt.pbe-n-kjpaw_psl.1.0.0.UPF: wavefunction(s)  6S 5D renormalized
     file C.pbe-n-kjpaw_psl.1.0.0.UPF: wavefunction(s)  2S 2P renormalized
     file O.pbe-nl-kjpaw_psl.1.0.0.UPF: wavefunction(s)  2S 2P renormalized
     file H.pbe-kjpaw_psl.1.0.0.UPF: wavefunction(s)  1S renormalized

     **************************************************************************
     Initializing libbeef V0.1.2 with the BEEF-vdW functional.
     Citation: Wellendorff et al., PRB 85, 235149 (2012).
     **************************************************************************


     IMPORTANT: XC functional enforced from input :
     Exchange-correlation= BEEF-VDW
                           (   1   4  43  14   2   0   0)
     Any further DFT definition will be discarded
     Please, verify this is what you really want


     Subspace diagonalization in iterative solution of the eigenvalue problem:
     a serial algorithm will be used

 
     G-vector sticks info
     --------------------
     sticks:   dense  smooth     PW     G-vecs:    dense   smooth      PW
     Sum        4267    4267   1159               741027   741027  104409
 


     bravais-lattice index     =            0
     lattice parameter (alat)  =      16.0349  a.u.
     unit-cell volume          =   11795.7537 (a.u.)^3
     number of atoms/cell      =           45
     number of atomic types    =            4
     number of electrons       =       383.00
     number of Kohn-Sham states=          230
     kinetic-energy cutoff     =      60.0000  Ry
     charge density cutoff     =     240.0000  Ry
     scf convergence threshold =      1.0E-06
     mixing beta               =       0.7000
     number of iterations used =            8  local-TF  mixing
     Exchange-correlation= BEEF-VDW
                           (   1   4  43  14   2   0   0)

     celldm(1)=  16.034858  celldm(2)=   0.000000  celldm(3)=   0.000000
     celldm(4)=   0.000000  celldm(5)=   0.000000  celldm(6)=   0.000000

     crystal axes: (cart. coord. in units of alat)
               a(1) = (   1.000000   0.000000   0.000000 )  
               a(2) = (   0.500000   0.866025   0.000000 )  
               a(3) = (   0.000000   0.000000   3.303693 )  

     reciprocal axes: (cart. coord. in units 2 pi/alat)
               b(1) = (  1.000000 -0.577350  0.000000 )  
               b(2) = (  0.000000  1.154701  0.000000 )  
               b(3) = (  0.000000  0.000000  0.302692 )  


     PseudoPot. # 1 for Pt read from file:
     /users/bkreitz1/quantum-espresso/potentials/Pt.pbe-n-kjpaw_psl.1.0.0.UPF
     MD5 check sum: 04dc8a03c51ece93fc7b5889c2958091
     Pseudo is Projector augmented-wave + core cor, Zval = 10.0
     Generated using 'atomic' code by A. Dal Corso  v.6.7MaX
     Shape of augmentation charge: PSQ
     Using radial grid of 1277 points,  6 beta functions with: 
                l(1) =   0
                l(2) =   0
                l(3) =   1
                l(4) =   1
                l(5) =   2
                l(6) =   2
     Q(r) pseudized with 0 coefficients 


     PseudoPot. # 2 for C  read from file:
     /users/bkreitz1/quantum-espresso/potentials/C.pbe-n-kjpaw_psl.1.0.0.UPF
     MD5 check sum: a169b0ebad56f5ec0d79c4633f80bf22
     Pseudo is Projector augmented-wave + core cor, Zval =  4.0
     Generated using 'atomic' code by A. Dal Corso  v.6.7MaX
     Shape of augmentation charge: PSQ
     Using radial grid of 1073 points,  4 beta functions with: 
                l(1) =   0
                l(2) =   0
                l(3) =   1
                l(4) =   1
     Q(r) pseudized with 0 coefficients 


     PseudoPot. # 3 for O  read from file:
     /users/bkreitz1/quantum-espresso/potentials/O.pbe-nl-kjpaw_psl.1.0.0.UPF
     MD5 check sum: eef08af8b58d9ec80f8fdb78829eb7cf
     Pseudo is Projector augmented-wave + core cor, Zval =  6.0
     Generated using 'atomic' code by A. Dal Corso  v.6.7MaX
     Shape of augmentation charge: PSQ
     Using radial grid of 1095 points,  4 beta functions with: 
                l(1) =   0
                l(2) =   0
                l(3) =   1
                l(4) =   1
     Q(r) pseudized with 0 coefficients 


     PseudoPot. # 4 for H  read from file:
     /users/bkreitz1/quantum-espresso/potentials/H.pbe-kjpaw_psl.1.0.0.UPF
     MD5 check sum: ae98473e6dc62675f0d0baffdab24f65
     Pseudo is Projector augmented-wave, Zval =  1.0
     Generated using 'atomic' code by A. Dal Corso  v.6.7MaX
     Shape of augmentation charge: PSQ
     Using radial grid of  929 points,  2 beta functions with: 
                l(1) =   0
                l(2) =   0
     Q(r) pseudized with 0 coefficients 


     atomic species   valence    mass     pseudopotential
        Pt            10.00   195.08400     Pt( 1.00)
        C              4.00    12.01100     C ( 1.00)
        O              6.00    15.99900     O ( 1.00)
        H              1.00     1.00800     H ( 1.00)

     No symmetry found



   Cartesian axes

     site n.     atom                  positions (alat units)
         1           Pt  tau(   1) = (   0.0000000   0.0000000   1.0017346  )
         2           Pt  tau(   2) = (   0.3333333   0.0000000   1.0017346  )
         3           Pt  tau(   3) = (   0.6666667   0.0000000   1.0017346  )
         4           Pt  tau(   4) = (   0.1666667   0.2886751   1.0017346  )
         5           Pt  tau(   5) = (   0.5000000   0.2886751   1.0017346  )
         6           Pt  tau(   6) = (   0.8333333   0.2886751   1.0017346  )
         7           Pt  tau(   7) = (   0.3333333   0.5773503   1.0017346  )
         8           Pt  tau(   8) = (   0.6666667   0.5773503   1.0017346  )
         9           Pt  tau(   9) = (   1.0000000   0.5773503   1.0017346  )
        10           Pt  tau(  10) = (   0.1666667   0.0962250   1.2739001  )
        11           Pt  tau(  11) = (   0.5000000   0.0962250   1.2739001  )
        12           Pt  tau(  12) = (   0.8333333   0.0962250   1.2739001  )
        13           Pt  tau(  13) = (   0.3333333   0.3849002   1.2739001  )
        14           Pt  tau(  14) = (   0.6666667   0.3849002   1.2739001  )
        15           Pt  tau(  15) = (   1.0000000   0.3849002   1.2739001  )
        16           Pt  tau(  16) = (   0.5000000   0.6735753   1.2739001  )
        17           Pt  tau(  17) = (   0.8333333   0.6735753   1.2739001  )
        18           Pt  tau(  18) = (   1.1666667   0.6735753   1.2739001  )
        19           Pt  tau(  19) = (   0.0001588   0.1915548   1.5406552  )
        20           Pt  tau(  20) = (   0.3331403   0.1915646   1.5407106  )
        21           Pt  tau(  21) = (   0.6666471   0.1918497   1.5412943  )
        22           Pt  tau(  22) = (   0.1666311   0.4811612   1.5421615  )
        23           Pt  tau(  23) = (   0.5024045   0.4823341   1.5474706  )
        24           Pt  tau(  24) = (   0.8308659   0.4823395   1.5475195  )
        25           Pt  tau(  25) = (   0.3334598   0.7687248   1.5420879  )
        26           Pt  tau(  26) = (   0.6666342   0.7660185   1.5473987  )
        27           Pt  tau(  27) = (   0.9998156   0.7687187   1.5421144  )
        28           Pt  tau(  28) = (  -0.0008585  -0.0010705   1.8146400  )
        29           Pt  tau(  29) = (   0.3340781  -0.0010836   1.8146585  )
        30           Pt  tau(  30) = (   0.6666202  -0.0019220   1.8153457  )
        31           Pt  tau(  31) = (   0.1666222   0.2879651   1.8150136  )
        32           Pt  tau(  32) = (   0.4987766   0.2865243   1.8131970  )
        33           Pt  tau(  33) = (   0.8345628   0.2865256   1.8131893  )
        34           Pt  tau(  34) = (   0.3325577   0.5758816   1.8178231  )
        35           Pt  tau(  35) = (   0.6666816   0.5778205   1.8541239  )
        36           Pt  tau(  36) = (   1.0006788   0.5758602   1.8179100  )
        37           C   tau(  37) = (   0.6657725   0.5321674   2.0883986  )
        38           C   tau(  38) = (   0.6669733   0.6560701   2.2212834  )
        39           C   tau(  39) = (   0.6667882   0.8317775   2.1884807  )
        40           O   tau(  40) = (   0.6638331   0.3941869   2.1259423  )
        41           H   tau(  41) = (   0.5642336   0.6233990   2.2923579  )
        42           H   tau(  42) = (   0.7707421   0.6232207   2.2907779  )
        43           H   tau(  43) = (   0.6672094   0.8947998   2.3009009  )
        44           H   tau(  44) = (   0.7710340   0.8690996   2.1226196  )
        45           H   tau(  45) = (   0.5620155   0.8690111   2.1245883  )

     number of k points=    13  Marzari-Vanderbilt smearing, width (Ry)=  0.0200
                       cart. coord. in units 2pi/alat
        k(    1) = (   0.0000000   0.0000000   0.0000000), wk =   0.0800000
        k(    2) = (   0.0000000   0.2309401   0.0000000), wk =   0.1600000
        k(    3) = (   0.0000000   0.4618802   0.0000000), wk =   0.1600000
        k(    4) = (   0.2000000  -0.1154701   0.0000000), wk =   0.1600000
        k(    5) = (   0.2000000   0.1154701   0.0000000), wk =   0.1600000
        k(    6) = (   0.2000000   0.3464102   0.0000000), wk =   0.1600000
        k(    7) = (   0.2000000  -0.5773503   0.0000000), wk =   0.1600000
        k(    8) = (   0.2000000  -0.3464102   0.0000000), wk =   0.1600000
        k(    9) = (   0.4000000  -0.2309401   0.0000000), wk =   0.1600000
        k(   10) = (   0.4000000  -0.0000000   0.0000000), wk =   0.1600000
        k(   11) = (   0.4000000   0.2309401   0.0000000), wk =   0.1600000
        k(   12) = (   0.4000000  -0.6928203   0.0000000), wk =   0.1600000
        k(   13) = (   0.4000000  -0.4618802   0.0000000), wk =   0.1600000

     Dense  grid:   741027 G-vectors     FFT dimensions: (  80,  80, 270)

     Estimated max dynamical RAM per process >       9.11 GB

     Check: negative core charge=   -0.000002

     Initial potential from superposition of free atoms

     starting charge  382.99372, renormalised to  383.00000

     negative rho (up, down):  1.143E-02 0.000E+00


     %%%%%%%%%%%%%%%%%%%%%%%%%%%%%%%%%%%%%%%%%%%%%%%%%%%%%%%%%%%%%%%%%%%%%%%%
     %                                                                      %
     % You are using vdW-DF, which was implemented by the Thonhauser group. %
     % Please cite the following two papers that made this development      %
     % possible and the two reviews that describe the various versions:     %
     %                                                                      %
     %   T. Thonhauser et al., PRL 115, 136402 (2015).                      %
     %   T. Thonhauser et al., PRB 76, 125112 (2007).                       %
     %   K. Berland et al., Rep. Prog. Phys. 78, 066501 (2015).             %
     %   D.C. Langreth et al., J. Phys.: Condens. Matter 21, 084203 (2009). %
     %                                                                      %
     %                                                                      %
     % If you are calculating the stress with vdW-DF, please also cite:     %
     %                                                                      %
     %   R. Sabatini et al., J. Phys.: Condens. Matter 24, 424209 (2012).   %
     %                                                                      %
     %%%%%%%%%%%%%%%%%%%%%%%%%%%%%%%%%%%%%%%%%%%%%%%%%%%%%%%%%%%%%%%%%%%%%%%%


     Starting wfcs are  345 randomized atomic wfcs
     Checking if some PAW data can be deallocated... 

     total cpu time spent up to now is      370.1 secs

     Self-consistent Calculation

     iteration #  1     ecut=    60.00 Ry     beta= 0.70
     Davidson diagonalization with overlap
     ethr =  1.00E-02,  avg # of iterations =  2.7

     Threshold (ethr) on eigenvalues was too large:
     Diagonalizing with lowered threshold

     Davidson diagonalization with overlap
     ethr =  8.82E-04,  avg # of iterations =  2.7

     negative rho (up, down):  1.111E-02 0.000E+00

     total cpu time spent up to now is     1774.7 secs

     total energy              =  -27859.60346365 Ry
     estimated scf accuracy    <       3.57774447 Ry

     iteration #  2     ecut=    60.00 Ry     beta= 0.70
     Davidson diagonalization with overlap
     ethr =  9.34E-04,  avg # of iterations =  2.3

     negative rho (up, down):  9.018E-03 0.000E+00

     total cpu time spent up to now is     2435.4 secs

     total energy              =  -27859.79017241 Ry
     estimated scf accuracy    <       1.26460649 Ry

     iteration #  3     ecut=    60.00 Ry     beta= 0.70
     Davidson diagonalization with overlap
     ethr =  3.30E-04,  avg # of iterations =  5.2

     negative rho (up, down):  5.891E-03 0.000E+00

     total cpu time spent up to now is     3135.4 secs

     total energy              =  -27859.82814833 Ry
     estimated scf accuracy    <       0.47185746 Ry

     iteration #  4     ecut=    60.00 Ry     beta= 0.70
     Davidson diagonalization with overlap
     ethr =  1.23E-04,  avg # of iterations = 12.1

     negative rho (up, down):  4.197E-03 0.000E+00

     total cpu time spent up to now is     3996.4 secs

     total energy              =  -27859.88194146 Ry
     estimated scf accuracy    <       0.31749447 Ry

     iteration #  5     ecut=    60.00 Ry     beta= 0.70
     Davidson diagonalization with overlap
     ethr =  8.29E-05,  avg # of iterations =  2.0

     negative rho (up, down):  2.941E-03 0.000E+00

     total cpu time spent up to now is     4663.3 secs

     total energy              =  -27859.88794138 Ry
     estimated scf accuracy    <       0.05676852 Ry

     iteration #  6     ecut=    60.00 Ry     beta= 0.70
     Davidson diagonalization with overlap
     c_bands:  1 eigenvalues not converged
     c_bands:  2 eigenvalues not converged
     c_bands:  1 eigenvalues not converged
     c_bands:  1 eigenvalues not converged
     ethr =  1.48E-05,  avg # of iterations = 15.5

     negative rho (up, down):  2.259E-03 0.000E+00

     total cpu time spent up to now is     5688.1 secs

     total energy              =  -27859.89695452 Ry
     estimated scf accuracy    <       0.04906396 Ry

     iteration #  7     ecut=    60.00 Ry     beta= 0.70
     Davidson diagonalization with overlap
     ethr =  1.28E-05,  avg # of iterations =  4.2

     negative rho (up, down):  2.194E-03 0.000E+00

     total cpu time spent up to now is     6378.0 secs

     total energy              =  -27859.89734475 Ry
     estimated scf accuracy    <       0.03148847 Ry

     iteration #  8     ecut=    60.00 Ry     beta= 0.70
     Davidson diagonalization with overlap
     c_bands:  2 eigenvalues not converged
     c_bands:  2 eigenvalues not converged
     ethr =  8.22E-06,  avg # of iterations = 10.2

     negative rho (up, down):  2.959E-03 0.000E+00

     total cpu time spent up to now is     7121.4 secs

     total energy              =  -27859.89787426 Ry
     estimated scf accuracy    <       0.01847230 Ry

     iteration #  9     ecut=    60.00 Ry     beta= 0.70
     Davidson diagonalization with overlap
     c_bands:  1 eigenvalues not converged
     c_bands:  1 eigenvalues not converged
     c_bands:  1 eigenvalues not converged
     c_bands:  2 eigenvalues not converged
     c_bands:  2 eigenvalues not converged
     ethr =  4.82E-06,  avg # of iterations = 12.5

     negative rho (up, down):  7.086E-03 0.000E+00

     total cpu time spent up to now is     7869.9 secs

     total energy              =  -27859.89819516 Ry
     estimated scf accuracy    <       0.00621629 Ry

     iteration # 10     ecut=    60.00 Ry     beta= 0.70
     Davidson diagonalization with overlap
     c_bands:  1 eigenvalues not converged
     c_bands:  2 eigenvalues not converged
     c_bands:  1 eigenvalues not converged
     c_bands:  1 eigenvalues not converged
     ethr =  1.62E-06,  avg # of iterations = 14.0

     negative rho (up, down):  8.672E-03 0.000E+00

     total cpu time spent up to now is     8660.0 secs

     total energy              =  -27859.89848047 Ry
     estimated scf accuracy    <       0.00224430 Ry

     iteration # 11     ecut=    60.00 Ry     beta= 0.70
     Davidson diagonalization with overlap
     ethr =  5.86E-07,  avg # of iterations =  4.7

     negative rho (up, down):  9.078E-03 0.000E+00

     total cpu time spent up to now is     9341.3 secs

     total energy              =  -27859.89867095 Ry
     estimated scf accuracy    <       0.00090409 Ry

     iteration # 12     ecut=    60.00 Ry     beta= 0.70
     Davidson diagonalization with overlap
     ethr =  2.36E-07,  avg # of iterations =  3.9

     negative rho (up, down):  8.788E-03 0.000E+00

     total cpu time spent up to now is    10028.7 secs

     total energy              =  -27859.89878341 Ry
     estimated scf accuracy    <       0.00052501 Ry

     iteration # 13     ecut=    60.00 Ry     beta= 0.70
     Davidson diagonalization with overlap
     ethr =  1.37E-07,  avg # of iterations =  2.0

     negative rho (up, down):  9.532E-03 0.000E+00

     total cpu time spent up to now is    10680.0 secs

     total energy              =  -27859.89883037 Ry
     estimated scf accuracy    <       0.00028971 Ry

     iteration # 14     ecut=    60.00 Ry     beta= 0.70
     Davidson diagonalization with overlap
     ethr =  7.56E-08,  avg # of iterations =  3.5

     negative rho (up, down):  9.287E-03 0.000E+00

     total cpu time spent up to now is    11359.3 secs

     total energy              =  -27859.89885242 Ry
     estimated scf accuracy    <       0.00013270 Ry

     iteration # 15     ecut=    60.00 Ry     beta= 0.70
     Davidson diagonalization with overlap
     ethr =  3.46E-08,  avg # of iterations =  2.0

     negative rho (up, down):  9.915E-03 0.000E+00

     total cpu time spent up to now is    12039.6 secs

     total energy              =  -27859.89885576 Ry
     estimated scf accuracy    <       0.00007950 Ry

     iteration # 16     ecut=    60.00 Ry     beta= 0.70
     Davidson diagonalization with overlap
     ethr =  2.08E-08,  avg # of iterations =  2.0

     negative rho (up, down):  1.106E-02 0.000E+00

     total cpu time spent up to now is    12693.4 secs

     total energy              =  -27859.89885426 Ry
     estimated scf accuracy    <       0.00003642 Ry

     iteration # 17     ecut=    60.00 Ry     beta= 0.70
     Davidson diagonalization with overlap
     ethr =  9.51E-09,  avg # of iterations =  2.6

     negative rho (up, down):  1.188E-02 0.000E+00

     total cpu time spent up to now is    13416.6 secs

     total energy              =  -27859.89885620 Ry
     estimated scf accuracy    <       0.00003043 Ry

     iteration # 18     ecut=    60.00 Ry     beta= 0.70
     Davidson diagonalization with overlap
     ethr =  7.94E-09,  avg # of iterations =  2.0

     negative rho (up, down):  1.218E-02 0.000E+00

     total cpu time spent up to now is    14069.2 secs

     total energy              =  -27859.89885707 Ry
     estimated scf accuracy    <       0.00001170 Ry

     iteration # 19     ecut=    60.00 Ry     beta= 0.70
     Davidson diagonalization with overlap
     ethr =  3.06E-09,  avg # of iterations =  3.8

     negative rho (up, down):  1.256E-02 0.000E+00

     total cpu time spent up to now is    14831.5 secs

     total energy              =  -27859.89885772 Ry
     estimated scf accuracy    <       0.00000366 Ry

     iteration # 20     ecut=    60.00 Ry     beta= 0.70
     Davidson diagonalization with overlap
     ethr =  9.56E-10,  avg # of iterations =  4.0

     negative rho (up, down):  1.271E-02 0.000E+00

     total cpu time spent up to now is    15806.8 secs

     total energy              =  -27859.89885842 Ry
     estimated scf accuracy    <       0.00000185 Ry

     iteration # 21     ecut=    60.00 Ry     beta= 0.70
     Davidson diagonalization with overlap
     ethr =  4.84E-10,  avg # of iterations =  2.0

     negative rho (up, down):  1.270E-02 0.000E+00

     total cpu time spent up to now is    16468.8 secs

     total energy              =  -27859.89885854 Ry
     estimated scf accuracy    <       0.00000111 Ry

     iteration # 22     ecut=    60.00 Ry     beta= 0.70
     Davidson diagonalization with overlap
     ethr =  2.91E-10,  avg # of iterations =  1.7

     negative rho (up, down):  1.288E-02 0.000E+00

     total cpu time spent up to now is    17071.0 secs

     End of self-consistent calculation

          k = 0.0000 0.0000 0.0000 ( 92663 PWs)   bands (ev):

   -20.4221 -13.0634  -9.8250  -7.2262  -6.9626  -5.7085  -5.1335  -4.9017
    -4.7250  -4.6090  -4.6013  -4.5984  -4.5931  -4.5734  -4.5483  -4.5465
    -4.4706  -4.0474  -4.0389  -4.0313  -4.0132  -4.0123  -3.9841  -3.6327
    -3.5725  -3.5598  -3.5595  -3.5472  -3.5073  -3.4806  -3.3560  -3.3486
    -3.3420  -3.3290  -3.2860  -3.2759  -3.1552  -3.1206  -3.1162  -3.1141
    -3.1004  -3.0981  -3.0960  -3.0844  -3.0824  -3.0492  -3.0451  -3.0412
    -2.9779  -2.5576  -2.5015  -2.4941  -2.4753  -2.4605  -2.4357  -2.4125
    -2.4057  -2.3959  -2.3945  -2.3528  -2.2841  -2.2497  -2.2165  -2.1153
    -2.0635  -1.7743  -1.6850  -1.6803  -1.6589  -1.6541  -1.6387  -1.6001
    -1.5244  -1.5145  -1.5011  -1.4992  -1.4777  -1.4708  -1.4639  -1.4477
    -1.4437  -1.4317  -1.4218  -1.4179  -1.3954  -1.3910  -1.3714  -1.2845
    -1.2826  -1.2709  -1.2541  -1.2524  -1.1778  -1.1232  -1.1007  -1.1004
    -1.0642  -1.0554  -1.0489  -1.0107  -1.0072  -0.9710  -0.9672  -0.8959
    -0.8934  -0.8336  -0.8333  -0.7946  -0.7934  -0.7437  -0.7332  -0.7147
    -0.6835  -0.6559  -0.6317  -0.6193  -0.5948  -0.4480  -0.2728  -0.2383
    -0.1906  -0.1606  -0.1415  -0.1382  -0.1286  -0.0889  -0.0759  -0.0697
    -0.0339  -0.0261   0.0163   0.0328   0.0944   0.1442   0.1613   0.1741
     0.2061   0.2367   0.2404   0.3146   0.3412   0.3496   0.3570   0.3641
     0.5317   0.5358   0.5570   0.5883   0.5908   0.6019   0.6302   0.6581
     0.6651   0.8455   0.8471   0.8530   0.8744   0.8815   0.9396   0.9979
     1.0079   1.0179   1.0290   1.0349   1.0488   1.0530   1.0667   1.0708
     1.0830   1.0948   1.1569   1.1583   1.1767   1.1852   1.1978   1.2035
     1.2230   1.2558   1.2796   1.2904   1.2906   1.3013   1.3310   1.3396
     1.3424   1.3516   1.4147   1.4167   1.4335   1.4445   1.4485   1.4650
     1.4701   1.5392   1.5406   1.5437   1.5656   1.5713   1.6158   1.7404
     1.7428   1.8372   1.8417   1.8768   1.8837   1.8848   1.8994   2.2546
     2.6980   2.7158   2.7589   2.7935   2.7976   2.8598   4.1199   4.6855
     5.0604   5.0611   5.1026   5.1334   5.1679   5.7248   5.9742   6.5027
     6.6417   6.6477   6.6747   6.6813   6.6989   6.7220

          k = 0.0000 0.2309 0.0000 ( 92570 PWs)   bands (ev):

   -20.4221 -13.0635  -9.8245  -7.2111  -6.8308  -5.5694  -5.1358  -5.1015
    -4.8887  -4.7126  -4.6906  -4.6506  -4.4634  -4.4249  -4.3859  -4.3385
    -4.3246  -4.1316  -4.1121  -3.9775  -3.9680  -3.9438  -3.9073  -3.6555
    -3.5865  -3.5302  -3.5204  -3.5078  -3.4939  -3.4382  -3.4232  -3.3680
    -3.3520  -3.3502  -3.3032  -3.2968  -3.2471  -3.2272  -3.1539  -3.1294
    -3.1280  -3.0997  -3.0720  -3.0329  -2.9191  -2.9064  -2.8880  -2.8642
    -2.8430  -2.6290  -2.6151  -2.5907  -2.5460  -2.5353  -2.4935  -2.4853
    -2.4614  -2.3241  -2.3108  -2.2465  -2.2420  -2.1960  -2.1923  -2.1354
    -2.0843  -1.9522  -1.8658  -1.8554  -1.8059  -1.7831  -1.7538  -1.7031
    -1.6832  -1.6694  -1.6469  -1.6241  -1.6121  -1.5682  -1.5257  -1.4928
    -1.4806  -1.4611  -1.3995  -1.3889  -1.3863  -1.3235  -1.3092  -1.3080
    -1.2556  -1.2107  -1.2057  -1.1989  -1.1906  -1.1327  -1.1251  -1.0960
    -1.0912  -1.0567  -1.0464  -1.0060  -0.9760  -0.9547  -0.9291  -0.9116
    -0.9026  -0.8782  -0.8691  -0.8460  -0.8240  -0.7885  -0.7252  -0.6683
    -0.6678  -0.6515  -0.6407  -0.6187  -0.6052  -0.5817  -0.5524  -0.5455
    -0.5240  -0.4790  -0.4130  -0.3343  -0.2544  -0.1944  -0.1457  -0.1422
    -0.1204  -0.0881  -0.0830  -0.0753   0.0191   0.0662   0.1041   0.1529
     0.2018   0.2254   0.2615   0.2774   0.3068   0.3112   0.3660   0.3680
     0.4458   0.4509   0.4827   0.4835   0.5010   0.5518   0.6498   0.6545
     0.7053   0.7337   0.7392   0.7553   0.8021   0.8227   0.8585   0.8857
     0.8909   0.9250   0.9634   0.9773   0.9836   1.0150   1.0796   1.0968
     1.1198   1.1512   1.2068   1.2233   1.2520   1.2582   1.2860   1.3183
     1.3315   1.3736   1.4066   1.4136   1.4592   1.4759   1.4777   1.5168
     1.5226   1.5232   1.5349   1.5388   1.5888   1.5974   1.7201   1.7212
     1.7712   1.7845   1.7984   1.8095   1.8381   1.8610   1.8739   1.8876
     1.9659   1.9777   2.0115   2.0382   2.1631   2.1716   2.1959   2.2695
     2.5378   2.6290   3.0437   3.3239   3.3516   3.5257   4.0767   4.5291
     4.6725   4.8466   5.2259   5.5023   5.5167   5.6735   5.7759   5.8703
     6.1275   6.4787   6.4859   6.6050   6.7121   6.8613

          k = 0.0000 0.4619 0.0000 ( 92592 PWs)   bands (ev):

   -20.4221 -13.0636  -9.8237  -7.1984  -6.4228  -5.7935  -5.1905  -5.1390
    -4.8893  -4.7340  -4.7230  -4.6746  -4.5173  -4.3588  -4.2053  -4.0849
    -4.0526  -4.0010  -3.9935  -3.8529  -3.8181  -3.7859  -3.7740  -3.7549
    -3.6578  -3.6187  -3.6112  -3.5865  -3.5577  -3.5237  -3.4895  -3.4856
    -3.4255  -3.4152  -3.4116  -3.1671  -3.1652  -3.1579  -3.1525  -3.1262
    -3.1123  -3.0621  -2.9198  -2.9096  -2.8792  -2.8704  -2.8351  -2.8253
    -2.6852  -2.5868  -2.5799  -2.5570  -2.5501  -2.5235  -2.5029  -2.4853
    -2.4258  -2.4228  -2.3678  -2.3628  -2.3380  -2.2111  -2.2097  -2.1754
    -2.1693  -2.0954  -2.0655  -2.0203  -1.9985  -1.9754  -1.9515  -1.8416
    -1.7785  -1.7638  -1.7544  -1.7415  -1.6886  -1.6557  -1.6367  -1.5979
    -1.5418  -1.5167  -1.5115  -1.4257  -1.3944  -1.3882  -1.3747  -1.3645
    -1.3201  -1.2961  -1.2892  -1.2729  -1.2654  -1.2435  -1.2389  -1.2191
    -1.1992  -1.1329  -1.1158  -1.0999  -1.0844  -1.0627  -1.0321  -1.0000
    -0.9296  -0.9147  -0.8877  -0.8538  -0.8224  -0.8156  -0.8009  -0.7855
    -0.7402  -0.6502  -0.6359  -0.6247  -0.5922  -0.5306  -0.5217  -0.4014
    -0.3963  -0.3606  -0.3126  -0.2943  -0.2474  -0.2209  -0.2155  -0.1789
    -0.1542  -0.1493  -0.1232  -0.0871  -0.0865  -0.0739  -0.0558  -0.0275
    -0.0064   0.0004   0.0249   0.1001   0.1518   0.1522   0.1859   0.2527
     0.3146   0.3580   0.3781   0.4531   0.4688   0.5033   0.5831   0.6134
     0.6309   0.6787   0.6984   0.7012   0.7541   0.7623   0.8087   0.8275
     0.8571   0.8922   0.9005   0.9788   0.9982   1.0196   1.0233   1.0503
     1.0711   1.1843   1.2136   1.2296   1.2735   1.3138   1.3179   1.3264
     1.4067   1.4420   1.4492   1.5135   1.5277   1.5325   1.5894   1.6048
     1.6127   1.6421   1.7286   1.7292   1.7604   1.7800   1.7968   1.8106
     1.8129   1.8235   1.9883   2.0063   2.0096   2.0433   2.0442   2.1901
     2.2489   2.4922   2.6395   2.6927   2.8029   3.0684   3.0686   3.3661
     3.4271   3.5092   3.8112   3.9262   4.2478   4.2825   4.3347   4.3751
     4.4699   4.6510   4.6744   4.7793   4.9565   5.1202   5.2291   5.5781
     5.7933   6.1315   6.1651   6.2281   6.6209   6.6822

          k = 0.2000-0.1155 0.0000 ( 92570 PWs)   bands (ev):

   -20.4221 -13.0634  -9.8247  -7.2109  -6.8307  -5.5691  -5.1392  -5.0976
    -4.8844  -4.7106  -4.6911  -4.6566  -4.4633  -4.4265  -4.3782  -4.3404
    -4.3297  -4.1321  -4.1159  -3.9685  -3.9639  -3.9426  -3.9159  -3.6693
    -3.5925  -3.5318  -3.5261  -3.5071  -3.4519  -3.4352  -3.4194  -3.3781
    -3.3598  -3.3404  -3.3298  -3.2784  -3.2508  -3.2282  -3.1568  -3.1309
    -3.1233  -3.0938  -3.0800  -3.0211  -2.9193  -2.9055  -2.8930  -2.8671
    -2.8437  -2.6319  -2.6131  -2.5814  -2.5726  -2.5292  -2.5042  -2.4910
    -2.4387  -2.3312  -2.2936  -2.2577  -2.2406  -2.2060  -2.1888  -2.1374
    -2.0797  -1.9451  -1.8696  -1.8598  -1.8111  -1.7856  -1.7498  -1.7080
    -1.6792  -1.6638  -1.6420  -1.6284  -1.6219  -1.5677  -1.5190  -1.4970
    -1.4807  -1.4647  -1.3962  -1.3849  -1.3767  -1.3232  -1.3091  -1.2986
    -1.2561  -1.2149  -1.2091  -1.1975  -1.1915  -1.1356  -1.1152  -1.0996
    -1.0925  -1.0588  -1.0405  -1.0176  -0.9704  -0.9529  -0.9318  -0.9132
    -0.9060  -0.8757  -0.8558  -0.8498  -0.8237  -0.7858  -0.7110  -0.6937
    -0.6622  -0.6462  -0.6388  -0.6167  -0.6107  -0.5785  -0.5655  -0.5448
    -0.5344  -0.5020  -0.4338  -0.2893  -0.2297  -0.1933  -0.1743  -0.1442
    -0.1229  -0.0993  -0.0913  -0.0706   0.0301   0.0647   0.1094   0.1697
     0.2008   0.2230   0.2549   0.2874   0.3151   0.3253   0.3530   0.3877
     0.4372   0.4434   0.4831   0.4885   0.5040   0.5192   0.6344   0.6608
     0.6984   0.7234   0.7433   0.7742   0.7895   0.8274   0.8554   0.8767
     0.8895   0.9366   0.9581   0.9846   0.9913   1.0106   1.0851   1.0977
     1.1209   1.1632   1.2026   1.2105   1.2381   1.2733   1.2893   1.3219
     1.3331   1.3848   1.4072   1.4194   1.4660   1.4697   1.4794   1.5170
     1.5209   1.5259   1.5331   1.5384   1.5919   1.6023   1.7192   1.7289
     1.7724   1.7850   1.7916   1.8027   1.8360   1.8617   1.8664   1.8891
     1.9635   1.9851   2.0108   2.0618   2.1532   2.1758   2.1888   2.2315
     2.5168   2.6615   3.0333   3.3442   3.3979   3.4829   4.0326   4.5340
     4.7299   4.8728   5.1811   5.5035   5.5169   5.6528   5.8231   5.8576
     6.1206   6.4555   6.4992   6.6034   6.8237   6.8670

          k = 0.2000 0.1155 0.0000 ( 92570 PWs)   bands (ev):

   -20.4221 -13.0635  -9.8247  -7.2109  -6.8307  -5.5690  -5.1383  -5.0982
    -4.8847  -4.7111  -4.6912  -4.6559  -4.4633  -4.4264  -4.3783  -4.3404
    -4.3297  -4.1328  -4.1161  -3.9685  -3.9639  -3.9425  -3.9150  -3.6697
    -3.5931  -3.5318  -3.5262  -3.5071  -3.4516  -3.4342  -3.4193  -3.3778
    -3.3598  -3.3414  -3.3299  -3.2785  -3.2508  -3.2279  -3.1571  -3.1300
    -3.1238  -3.0935  -3.0810  -3.0202  -2.9194  -2.9055  -2.8930  -2.8675
    -2.8437  -2.6319  -2.6131  -2.5820  -2.5725  -2.5299  -2.5035  -2.4905
    -2.4392  -2.3309  -2.2938  -2.2570  -2.2410  -2.2062  -2.1894  -2.1374
    -2.0789  -1.9454  -1.8696  -1.8598  -1.8109  -1.7859  -1.7500  -1.7079
    -1.6793  -1.6637  -1.6419  -1.6283  -1.6218  -1.5677  -1.5191  -1.4970
    -1.4808  -1.4647  -1.3961  -1.3847  -1.3766  -1.3232  -1.3090  -1.2985
    -1.2561  -1.2151  -1.2093  -1.1974  -1.1915  -1.1355  -1.1157  -1.0995
    -1.0924  -1.0588  -1.0408  -1.0172  -0.9703  -0.9526  -0.9321  -0.9132
    -0.9066  -0.8758  -0.8560  -0.8494  -0.8235  -0.7860  -0.7111  -0.6934
    -0.6618  -0.6466  -0.6382  -0.6168  -0.6107  -0.5786  -0.5654  -0.5445
    -0.5344  -0.5013  -0.4349  -0.2894  -0.2303  -0.1936  -0.1740  -0.1439
    -0.1221  -0.0991  -0.0911  -0.0708   0.0319   0.0650   0.1089   0.1692
     0.2012   0.2231   0.2545   0.2876   0.3155   0.3257   0.3527   0.3876
     0.4361   0.4433   0.4824   0.4884   0.5037   0.5191   0.6347   0.6607
     0.6984   0.7229   0.7434   0.7747   0.7895   0.8275   0.8549   0.8765
     0.8894   0.9374   0.9581   0.9844   0.9914   1.0106   1.0853   1.0973
     1.1208   1.1632   1.2026   1.2104   1.2384   1.2730   1.2893   1.3218
     1.3332   1.3846   1.4073   1.4195   1.4661   1.4698   1.4797   1.5170
     1.5208   1.5258   1.5331   1.5387   1.5919   1.6024   1.7190   1.7292
     1.7724   1.7851   1.7915   1.8025   1.8360   1.8615   1.8663   1.8890
     1.9639   1.9850   2.0108   2.0603   2.1533   2.1758   2.1890   2.2328
     2.5166   2.6609   3.0340   3.3430   3.3973   3.4837   4.0339   4.5330
     4.7272   4.8773   5.1800   5.5034   5.5165   5.6532   5.8218   5.8580
     6.1210   6.4553   6.4987   6.6038   6.8237   6.8667

          k = 0.2000 0.3464 0.0000 ( 92582 PWs)   bands (ev):

   -20.4221 -13.0636  -9.8240  -7.2002  -6.5568  -5.3564  -5.3375  -5.3025
    -5.1347  -4.8633  -4.6685  -4.2754  -4.2644  -4.2544  -4.2292  -4.2095
    -4.1913  -4.1733  -4.1146  -4.0778  -4.0610  -3.7152  -3.6952  -3.6843
    -3.6678  -3.6217  -3.5761  -3.5170  -3.4509  -3.4406  -3.4290  -3.4074
    -3.3759  -3.3251  -3.2908  -3.2659  -3.2603  -3.2350  -3.1946  -3.1718
    -3.1515  -3.1226  -3.1011  -3.0434  -2.9910  -2.7699  -2.6903  -2.6784
    -2.6608  -2.6369  -2.6256  -2.6101  -2.5939  -2.5510  -2.5170  -2.4801
    -2.3938  -2.3716  -2.3624  -2.2861  -2.2579  -2.2105  -2.2035  -2.1868
    -2.1306  -2.1044  -2.0769  -1.9634  -1.9217  -1.9055  -1.8503  -1.8244
    -1.8104  -1.7928  -1.7663  -1.7352  -1.7145  -1.5904  -1.5719  -1.5606
    -1.5433  -1.5094  -1.4765  -1.4601  -1.4313  -1.4097  -1.3865  -1.3067
    -1.2833  -1.2564  -1.2461  -1.2313  -1.2250  -1.2047  -1.1788  -1.1581
    -1.1489  -1.0935  -1.0720  -1.0478  -1.0042  -0.9857  -0.9662  -0.9327
    -0.9101  -0.8755  -0.8630  -0.8512  -0.8418  -0.8199  -0.8041  -0.7839
    -0.7782  -0.7511  -0.7269  -0.7029  -0.6750  -0.6093  -0.5727  -0.5589
    -0.5066  -0.4822  -0.4739  -0.4225  -0.2886  -0.2759  -0.2103  -0.1627
    -0.1473  -0.1208  -0.1009  -0.0765  -0.0470  -0.0358  -0.0220   0.0036
     0.0392   0.0650   0.1091   0.2022   0.2524   0.2715   0.3050   0.3461
     0.3737   0.3769   0.4199   0.4501   0.5103   0.5270   0.5526   0.5958
     0.6162   0.6682   0.7084   0.7487   0.7608   0.7844   0.8200   0.8399
     0.8492   0.8655   0.8802   0.8835   0.9010   0.9189   1.0090   1.0653
     1.0996   1.1491   1.2059   1.2365   1.3286   1.3948   1.4130   1.4189
     1.4461   1.5214   1.5409   1.5468   1.5678   1.5860   1.6146   1.6174
     1.6241   1.6430   1.6680   1.6918   1.7151   1.7661   1.7965   1.8074
     1.8372   1.8504   1.8949   1.9863   2.0466   2.0855   2.1172   2.1371
     2.1649   2.1751   2.2890   2.3072   2.5990   2.8141   2.8370   3.1978
     3.3310   3.3735   3.4155   3.6569   4.0628   4.1160   4.2455   4.3012
     4.3586   4.7306   4.9476   5.0730   5.4926   5.5464   5.7350   5.7697
     6.0318   6.1965   6.2311   6.3262   6.3351   6.3695

          k = 0.2000-0.5774 0.0000 ( 92596 PWs)   bands (ev):

   -20.4221 -13.0636  -9.8237  -7.1960  -6.0515  -6.0071  -5.4265  -5.1380
    -4.9743  -4.8081  -4.7406  -4.5852  -4.2696  -4.2325  -4.1240  -4.0895
    -3.9848  -3.9696  -3.8800  -3.8701  -3.7827  -3.7609  -3.7410  -3.7262
    -3.7036  -3.6741  -3.6659  -3.5657  -3.5623  -3.5303  -3.5140  -3.4824
    -3.4437  -3.4127  -3.3358  -3.2847  -3.2403  -3.1455  -3.1409  -3.1298
    -3.0966  -3.0862  -3.0426  -2.9863  -2.9833  -2.9074  -2.8378  -2.7208
    -2.6959  -2.6685  -2.5691  -2.5650  -2.5025  -2.4989  -2.4868  -2.3689
    -2.3452  -2.3072  -2.2875  -2.2754  -2.2254  -2.2066  -2.1857  -2.1317
    -2.0972  -2.0880  -2.0636  -2.0482  -2.0389  -2.0287  -2.0123  -1.9926
    -1.9296  -1.8526  -1.8224  -1.7936  -1.7618  -1.6700  -1.6527  -1.6292
    -1.6053  -1.6017  -1.5599  -1.5482  -1.5126  -1.4384  -1.4225  -1.4084
    -1.3910  -1.3691  -1.3418  -1.2728  -1.2466  -1.2073  -1.2032  -1.1758
    -1.1481  -1.0965  -1.0371  -1.0189  -0.9927  -0.9856  -0.9685  -0.9487
    -0.9309  -0.9066  -0.8908  -0.8724  -0.8595  -0.8412  -0.8061  -0.7843
    -0.7798  -0.7701  -0.7505  -0.7404  -0.7163  -0.6893  -0.6833  -0.6219
    -0.4879  -0.4498  -0.3701  -0.3500  -0.2845  -0.2664  -0.2404  -0.2242
    -0.1962  -0.1871  -0.1495  -0.1170  -0.0975  -0.0548  -0.0172  -0.0108
     0.0111   0.0490   0.1084   0.1348   0.1693   0.2124   0.2828   0.2960
     0.3561   0.3850   0.4268   0.4680   0.4900   0.5098   0.5337   0.5467
     0.5656   0.6069   0.6138   0.6382   0.6908   0.7319   0.7752   0.7891
     0.7988   0.8213   0.8350   0.8560   0.9432   0.9826   1.0643   1.0787
     1.1742   1.2196   1.2451   1.2558   1.3287   1.3722   1.3855   1.4080
     1.4875   1.5235   1.5540   1.5728   1.5957   1.5996   1.6180   1.6544
     1.6810   1.7511   1.7582   1.7802   1.7942   1.8133   1.8192   1.8483
     1.8878   1.9860   2.0149   2.0299   2.0405   2.0497   2.0989   2.1634
     2.2195   2.3419   2.9285   3.1749   3.1813   3.4109   3.4335   3.5367
     3.5582   3.5794   3.8212   4.1335   4.1928   4.3408   4.4649   4.6439
     4.6833   4.7928   4.8176   5.0074   5.0177   5.0943   5.2210   5.3568
     5.6156   5.7006   5.8112   6.2671   6.2798   6.3647

          k = 0.2000-0.3464 0.0000 ( 92582 PWs)   bands (ev):

   -20.4221 -13.0635  -9.8241  -7.2001  -6.5568  -5.3564  -5.3377  -5.3026
    -5.1345  -4.8632  -4.6683  -4.2755  -4.2645  -4.2542  -4.2293  -4.2094
    -4.1913  -4.1732  -4.1145  -4.0778  -4.0609  -3.7158  -3.6957  -3.6844
    -3.6678  -3.6218  -3.5760  -3.5152  -3.4508  -3.4406  -3.4290  -3.4075
    -3.3766  -3.3254  -3.2907  -3.2660  -3.2602  -3.2354  -3.1947  -3.1716
    -3.1515  -3.1223  -3.1002  -3.0447  -2.9920  -2.7700  -2.6897  -2.6784
    -2.6596  -2.6367  -2.6256  -2.6100  -2.5931  -2.5510  -2.5171  -2.4818
    -2.3935  -2.3716  -2.3619  -2.2863  -2.2582  -2.2098  -2.2039  -2.1866
    -2.1300  -2.1049  -2.0777  -1.9631  -1.9217  -1.9056  -1.8501  -1.8243
    -1.8104  -1.7926  -1.7665  -1.7353  -1.7147  -1.5903  -1.5720  -1.5605
    -1.5434  -1.5095  -1.4769  -1.4595  -1.4313  -1.4097  -1.3867  -1.3066
    -1.2833  -1.2563  -1.2465  -1.2312  -1.2250  -1.2043  -1.1788  -1.1581
    -1.1489  -1.0936  -1.0723  -1.0480  -1.0043  -0.9857  -0.9658  -0.9327
    -0.9101  -0.8757  -0.8631  -0.8508  -0.8419  -0.8199  -0.8038  -0.7841
    -0.7782  -0.7515  -0.7263  -0.7031  -0.6751  -0.6093  -0.5729  -0.5585
    -0.5068  -0.4824  -0.4736  -0.4227  -0.2887  -0.2760  -0.2107  -0.1631
    -0.1481  -0.1209  -0.1003  -0.0765  -0.0470  -0.0355  -0.0221   0.0035
     0.0388   0.0651   0.1094   0.2020   0.2513   0.2714   0.3051   0.3463
     0.3742   0.3771   0.4198   0.4504   0.5111   0.5266   0.5532   0.5963
     0.6161   0.6683   0.7090   0.7492   0.7606   0.7842   0.8199   0.8399
     0.8486   0.8655   0.8802   0.8835   0.9007   0.9189   1.0096   1.0650
     1.0996   1.1488   1.2058   1.2366   1.3282   1.3950   1.4130   1.4190
     1.4463   1.5211   1.5410   1.5466   1.5679   1.5857   1.6147   1.6174
     1.6239   1.6430   1.6679   1.6918   1.7153   1.7661   1.7965   1.8071
     1.8372   1.8504   1.8949   1.9869   2.0468   2.0856   2.1167   2.1376
     2.1649   2.1758   2.2894   2.3068   2.5990   2.8140   2.8367   3.1971
     3.3308   3.3741   3.4162   3.6577   4.0626   4.1159   4.2432   4.3012
     4.3588   4.7289   4.9502   5.0740   5.4927   5.5466   5.7346   5.7694
     6.0315   6.1971   6.2331   6.3246   6.3345   6.3700

          k = 0.4000-0.2309 0.0000 ( 92592 PWs)   bands (ev):

   -20.4221 -13.0635  -9.8243  -7.1978  -6.4222  -5.7933  -5.1969  -5.1261
    -4.8904  -4.7283  -4.7232  -4.6883  -4.5157  -4.3482  -4.2067  -4.0862
    -4.0522  -4.0027  -3.9983  -3.8456  -3.8217  -3.7946  -3.7695  -3.7638
    -3.6603  -3.6175  -3.6135  -3.5900  -3.5559  -3.5353  -3.5011  -3.4572
    -3.4280  -3.4179  -3.3687  -3.1832  -3.1669  -3.1607  -3.1535  -3.1339
    -3.1184  -3.0519  -2.9207  -2.9021  -2.8833  -2.8741  -2.8372  -2.8128
    -2.6691  -2.6156  -2.5737  -2.5652  -2.5544  -2.5278  -2.4946  -2.4588
    -2.4320  -2.4201  -2.4096  -2.3500  -2.3249  -2.2309  -2.2091  -2.1867
    -2.1606  -2.1170  -2.0571  -2.0282  -1.9908  -1.9773  -1.9529  -1.8401
    -1.7805  -1.7649  -1.7528  -1.7341  -1.6862  -1.6611  -1.6250  -1.6091
    -1.5260  -1.5077  -1.4926  -1.4312  -1.4022  -1.3873  -1.3735  -1.3606
    -1.3198  -1.3011  -1.2843  -1.2689  -1.2637  -1.2457  -1.2332  -1.2190
    -1.1971  -1.1387  -1.1191  -1.1110  -1.0847  -1.0604  -1.0283  -1.0140
    -0.9344  -0.9134  -0.8704  -0.8560  -0.8268  -0.8186  -0.7970  -0.7749
    -0.7411  -0.6488  -0.6414  -0.6298  -0.5939  -0.5403  -0.5215  -0.4063
    -0.3978  -0.3695  -0.3182  -0.2987  -0.2488  -0.2228  -0.2098  -0.1884
    -0.1639  -0.1593  -0.1116  -0.0925  -0.0871  -0.0768  -0.0430  -0.0250
    -0.0038   0.0116   0.0388   0.1009   0.1553   0.1621   0.2124   0.2583
     0.3169   0.3658   0.3730   0.4074   0.4693   0.4865   0.5661   0.6204
     0.6528   0.6832   0.6967   0.7100   0.7413   0.7615   0.8101   0.8308
     0.8584   0.8869   0.9047   0.9834   0.9903   1.0131   1.0345   1.0535
     1.0694   1.1544   1.2086   1.2420   1.2771   1.3220   1.3353   1.3433
     1.4114   1.4433   1.4506   1.5149   1.5314   1.5401   1.5776   1.6075
     1.6150   1.6480   1.7176   1.7278   1.7613   1.7790   1.7975   1.8095
     1.8161   1.8267   1.9854   1.9942   2.0095   2.0405   2.0435   2.1939
     2.2493   2.4354   2.6439   2.7099   2.8478   3.0602   3.0761   3.3860
     3.4453   3.4810   3.7837   3.9108   4.1770   4.2859   4.2934   4.4833
     4.5498   4.5959   4.6926   4.8037   4.9417   5.1260   5.2107   5.6079
     5.8575   6.1231   6.1487   6.2489   6.6181   6.6966

          k = 0.4000-0.0000 0.0000 ( 92582 PWs)   bands (ev):

   -20.4221 -13.0635  -9.8244  -7.1998  -6.5564  -5.3579  -5.3325  -5.3070
    -5.1305  -4.8641  -4.6668  -4.2701  -4.2665  -4.2615  -4.2269  -4.2192
    -4.1904  -4.1654  -4.1127  -4.0807  -4.0631  -3.7079  -3.6944  -3.6836
    -3.6694  -3.6053  -3.5898  -3.5495  -3.4462  -3.4384  -3.4284  -3.4107
    -3.3530  -3.3259  -3.3004  -3.2649  -3.2552  -3.2249  -3.2027  -3.1679
    -3.1553  -3.1248  -3.1050  -3.0329  -2.9693  -2.7695  -2.6945  -2.6892
    -2.6733  -2.6389  -2.6205  -2.6098  -2.5931  -2.5474  -2.5210  -2.4983
    -2.3979  -2.3757  -2.3340  -2.2931  -2.2595  -2.2149  -2.2104  -2.1881
    -2.1337  -2.1044  -2.0580  -1.9681  -1.9209  -1.9072  -1.8463  -1.8230
    -1.8168  -1.8008  -1.7662  -1.7438  -1.7159  -1.5918  -1.5728  -1.5524
    -1.5380  -1.5050  -1.4720  -1.4673  -1.4360  -1.4125  -1.3828  -1.3097
    -1.2875  -1.2469  -1.2428  -1.2304  -1.2235  -1.2179  -1.1770  -1.1622
    -1.1458  -1.0849  -1.0756  -1.0460  -1.0019  -0.9848  -0.9588  -0.9206
    -0.9066  -0.8691  -0.8645  -0.8525  -0.8251  -0.8174  -0.8160  -0.7838
    -0.7794  -0.7648  -0.7135  -0.7059  -0.6858  -0.6127  -0.5826  -0.5557
    -0.5070  -0.4919  -0.4782  -0.3896  -0.3022  -0.2755  -0.2332  -0.1678
    -0.1499  -0.1096  -0.0956  -0.0883  -0.0415  -0.0328  -0.0229   0.0031
     0.0421   0.0857   0.1145   0.2000   0.2187   0.2779   0.2931   0.3513
     0.3681   0.3837   0.4247   0.4574   0.4943   0.5274   0.5543   0.5984
     0.6273   0.6699   0.6988   0.7405   0.7686   0.7867   0.8209   0.8335
     0.8494   0.8581   0.8690   0.8860   0.9123   0.9353   0.9961   1.0727
     1.1144   1.1353   1.2113   1.2356   1.3271   1.3970   1.4119   1.4160
     1.4774   1.5253   1.5402   1.5477   1.5679   1.5835   1.6073   1.6209
     1.6226   1.6453   1.6662   1.6959   1.7062   1.7703   1.8043   1.8106
     1.8368   1.8474   1.8935   1.9695   2.0454   2.0865   2.0932   2.1415
     2.1663   2.1960   2.2936   2.3014   2.5897   2.8157   2.8396   3.1825
     3.3264   3.3839   3.4272   3.6872   4.0545   4.0940   4.1958   4.2954
     4.3594   4.7745   4.9810   5.1318   5.4855   5.5345   5.7265   5.7577
     6.0767   6.1846   6.2593   6.2860   6.3068   6.3532

          k = 0.4000 0.2309 0.0000 ( 92592 PWs)   bands (ev):

   -20.4221 -13.0635  -9.8243  -7.1979  -6.4221  -5.7932  -5.1954  -5.1275
    -4.8909  -4.7287  -4.7233  -4.6874  -4.5162  -4.3484  -4.2065  -4.0862
    -4.0521  -4.0028  -3.9984  -3.8457  -3.8207  -3.7945  -3.7693  -3.7639
    -3.6602  -3.6179  -3.6140  -3.5897  -3.5560  -3.5364  -3.5011  -3.4579
    -3.4280  -3.4190  -3.3660  -3.1824  -3.1668  -3.1609  -3.1536  -3.1342
    -3.1190  -3.0508  -2.9209  -2.9022  -2.8832  -2.8744  -2.8373  -2.8127
    -2.6700  -2.6163  -2.5735  -2.5654  -2.5545  -2.5276  -2.4942  -2.4586
    -2.4324  -2.4199  -2.4092  -2.3501  -2.3250  -2.2309  -2.2092  -2.1868
    -2.1607  -2.1161  -2.0573  -2.0285  -1.9904  -1.9783  -1.9521  -1.8401
    -1.7810  -1.7648  -1.7527  -1.7342  -1.6858  -1.6613  -1.6248  -1.6093
    -1.5256  -1.5075  -1.4925  -1.4312  -1.4019  -1.3873  -1.3735  -1.3606
    -1.3197  -1.3010  -1.2844  -1.2690  -1.2636  -1.2456  -1.2332  -1.2191
    -1.1969  -1.1395  -1.1190  -1.1110  -1.0848  -1.0607  -1.0283  -1.0137
    -0.9343  -0.9134  -0.8703  -0.8567  -0.8267  -0.8185  -0.7967  -0.7751
    -0.7411  -0.6490  -0.6421  -0.6299  -0.5939  -0.5400  -0.5215  -0.4061
    -0.3974  -0.3692  -0.3180  -0.2979  -0.2488  -0.2227  -0.2090  -0.1886
    -0.1635  -0.1593  -0.1116  -0.0921  -0.0872  -0.0767  -0.0429  -0.0244
    -0.0039   0.0119   0.0386   0.1008   0.1555   0.1626   0.2127   0.2580
     0.3163   0.3661   0.3732   0.4060   0.4693   0.4858   0.5660   0.6201
     0.6517   0.6833   0.6968   0.7101   0.7419   0.7614   0.8099   0.8312
     0.8586   0.8870   0.9044   0.9834   0.9903   1.0131   1.0342   1.0533
     1.0692   1.1558   1.2086   1.2414   1.2769   1.3217   1.3353   1.3433
     1.4113   1.4435   1.4505   1.5152   1.5321   1.5396   1.5774   1.6078
     1.6150   1.6481   1.7179   1.7276   1.7613   1.7791   1.7974   1.8094
     1.8159   1.8266   1.9854   1.9941   2.0093   2.0405   2.0432   2.1939
     2.2494   2.4357   2.6427   2.7109   2.8468   3.0603   3.0760   3.3860
     3.4452   3.4815   3.7836   3.9119   4.1781   4.2857   4.2934   4.4831
     4.5496   4.5955   4.6920   4.8064   4.9412   5.1251   5.2091   5.6076
     5.8570   6.1225   6.1486   6.2484   6.6175   6.6984

          k = 0.4000-0.6928 0.0000 ( 92596 PWs)   bands (ev):

   -20.4221 -13.0636  -9.8240  -7.1957  -6.0457  -6.0123  -5.4263  -5.1408
    -4.9631  -4.7995  -4.7629  -4.5794  -4.2706  -4.2242  -4.1272  -4.0884
    -3.9847  -3.9756  -3.8788  -3.8652  -3.7747  -3.7631  -3.7463  -3.7232
    -3.7035  -3.6928  -3.6731  -3.5610  -3.5468  -3.5423  -3.5218  -3.4838
    -3.4630  -3.3864  -3.2993  -3.2851  -3.2368  -3.1540  -3.1418  -3.1287
    -3.1134  -3.0904  -3.0437  -2.9951  -2.9702  -2.9037  -2.8502  -2.7072
    -2.6962  -2.6562  -2.6026  -2.5596  -2.5144  -2.4870  -2.4623  -2.3766
    -2.3394  -2.3107  -2.2920  -2.2685  -2.2274  -2.2203  -2.1963  -2.1570
    -2.0994  -2.0760  -2.0663  -2.0490  -2.0364  -2.0275  -2.0065  -1.9861
    -1.9374  -1.8440  -1.8195  -1.7884  -1.7626  -1.6691  -1.6624  -1.6298
    -1.6126  -1.5878  -1.5593  -1.5374  -1.5149  -1.4337  -1.4274  -1.4129
    -1.3820  -1.3692  -1.3327  -1.2900  -1.2432  -1.2148  -1.2078  -1.1804
    -1.1647  -1.0833  -1.0319  -1.0118  -0.9944  -0.9901  -0.9605  -0.9451
    -0.9271  -0.8996  -0.8923  -0.8702  -0.8498  -0.8276  -0.8202  -0.7933
    -0.7795  -0.7728  -0.7543  -0.7473  -0.7229  -0.6936  -0.6679  -0.6194
    -0.4840  -0.4351  -0.3677  -0.3610  -0.2905  -0.2769  -0.2536  -0.2215
    -0.2012  -0.1779  -0.1473  -0.1203  -0.1058  -0.0475  -0.0262  -0.0104
     0.0298   0.0361   0.1110   0.1320   0.1538   0.1987   0.2925   0.3288
     0.3666   0.4032   0.4215   0.4440   0.4848   0.5013   0.5394   0.5545
     0.5676   0.6050   0.6218   0.6516   0.7078   0.7182   0.7502   0.7822
     0.7989   0.8152   0.8389   0.8616   0.9457   0.9729   1.0647   1.0900
     1.1567   1.2215   1.2458   1.2634   1.3213   1.3776   1.3821   1.4202
     1.4857   1.5263   1.5577   1.5746   1.5984   1.6089   1.6258   1.6632
     1.6731   1.7531   1.7603   1.7701   1.7960   1.8134   1.8236   1.8464
     1.8892   1.9798   2.0049   2.0292   2.0381   2.0492   2.1015   2.1507
     2.2188   2.3435   2.9469   3.1757   3.1815   3.3602   3.4589   3.5396
     3.5549   3.5949   3.8390   4.1474   4.1812   4.3438   4.3976   4.6673
     4.7316   4.7703   4.8051   4.9120   5.0541   5.1509   5.2277   5.4798
     5.5990   5.6745   5.8393   6.2097   6.2827   6.3111

          k = 0.4000-0.4619 0.0000 ( 92596 PWs)   bands (ev):

   -20.4221 -13.0635  -9.8241  -7.1956  -6.0457  -6.0123  -5.4261  -5.1416
    -4.9619  -4.8000  -4.7634  -4.5784  -4.2707  -4.2243  -4.1274  -4.0884
    -3.9847  -3.9757  -3.8789  -3.8651  -3.7750  -3.7629  -3.7462  -3.7233
    -3.7037  -3.6927  -3.6728  -3.5616  -3.5471  -3.5424  -3.5212  -3.4843
    -3.4609  -3.3861  -3.3009  -3.2852  -3.2373  -3.1547  -3.1417  -3.1289
    -3.1134  -3.0894  -3.0443  -2.9938  -2.9713  -2.9035  -2.8499  -2.7073
    -2.6962  -2.6549  -2.6032  -2.5600  -2.5132  -2.4868  -2.4633  -2.3771
    -2.3394  -2.3109  -2.2918  -2.2683  -2.2273  -2.2201  -2.1962  -2.1567
    -2.0994  -2.0768  -2.0661  -2.0485  -2.0366  -2.0277  -2.0060  -1.9866
    -1.9377  -1.8437  -1.8195  -1.7884  -1.7626  -1.6691  -1.6622  -1.6298
    -1.6125  -1.5877  -1.5594  -1.5375  -1.5152  -1.4339  -1.4269  -1.4134
    -1.3820  -1.3692  -1.3328  -1.2900  -1.2432  -1.2146  -1.2077  -1.1807
    -1.1643  -1.0835  -1.0322  -1.0117  -0.9945  -0.9899  -0.9604  -0.9451
    -0.9273  -0.8996  -0.8925  -0.8705  -0.8500  -0.8278  -0.8201  -0.7932
    -0.7795  -0.7727  -0.7544  -0.7474  -0.7232  -0.6932  -0.6681  -0.6179
    -0.4839  -0.4351  -0.3679  -0.3608  -0.2915  -0.2767  -0.2539  -0.2219
    -0.2011  -0.1779  -0.1472  -0.1202  -0.1059  -0.0474  -0.0261  -0.0104
     0.0294   0.0360   0.1112   0.1321   0.1526   0.1984   0.2927   0.3291
     0.3667   0.4034   0.4213   0.4444   0.4845   0.5015   0.5394   0.5544
     0.5678   0.6049   0.6217   0.6516   0.7080   0.7191   0.7500   0.7823
     0.7988   0.8158   0.8390   0.8623   0.9459   0.9729   1.0635   1.0902
     1.1565   1.2218   1.2457   1.2631   1.3212   1.3776   1.3817   1.4205
     1.4855   1.5260   1.5577   1.5745   1.5987   1.6087   1.6257   1.6638
     1.6729   1.7530   1.7602   1.7705   1.7958   1.8134   1.8232   1.8466
     1.8893   1.9798   2.0051   2.0292   2.0382   2.0493   2.1017   2.1506
     2.2188   2.3439   2.9482   3.1756   3.1816   3.3588   3.4601   3.5387
     3.5552   3.5944   3.8392   4.1466   4.1816   4.3440   4.3954   4.6674
     4.7308   4.7716   4.8054   4.9128   5.0547   5.1494   5.2303   5.4789
     5.5980   5.6776   5.8388   6.2089   6.2831   6.3111

     the Fermi energy is     1.8033 ev

!    total energy              =  -27859.89885809 Ry

     total all-electron energy =  -1327028.803444 Ry
     estimated scf accuracy    <       0.00000020 Ry
     smearing contrib. (-TS)   =       0.00227540 Ry
     internal energy E=F+TS    =  -27859.90113349 Ry

     The total energy is F=E-TS. E is the sum of the following terms:
     one-electron contribution =  -29206.05641199 Ry
     hartree contribution      =   14909.55335094 Ry
     xc contribution           =    -915.93043614 Ry
     ewald contribution        =   12856.27701716 Ry
     one-center paw contrib.   =  -25503.74465345 Ry

     convergence has been achieved in  22 iterations

     negative rho (up, down):  1.288E-02 0.000E+00

     Forces acting on atoms (cartesian axes, Ry/au):

     atom    1 type  1   force =     0.00079015    0.00092479   -0.00365362
     atom    2 type  1   force =    -0.00082795    0.00092499   -0.00364252
     atom    3 type  1   force =    -0.00000407   -0.00007683   -0.00319159
     atom    4 type  1   force =    -0.00001657    0.00018257   -0.00724963
     atom    5 type  1   force =    -0.00036007    0.00018639   -0.00341215
     atom    6 type  1   force =     0.00033381    0.00017935   -0.00339841
     atom    7 type  1   force =    -0.00066715   -0.00015792   -0.00336197
     atom    8 type  1   force =    -0.00002635   -0.00009466   -0.00293492
     atom    9 type  1   force =     0.00062795   -0.00017328   -0.00336705
     atom   10 type  1   force =     0.00001451   -0.00017639   -0.00013697
     atom   11 type  1   force =     0.00000789   -0.00040251    0.00057408
     atom   12 type  1   force =    -0.00009456   -0.00040175    0.00055105
     atom   13 type  1   force =    -0.00000076    0.00078708   -0.00056274
     atom   14 type  1   force =    -0.00002921    0.00253806    0.00909756
     atom   15 type  1   force =    -0.00006110    0.00080977   -0.00056999
     atom   16 type  1   force =     0.00191410   -0.00180503    0.01019695
     atom   17 type  1   force =    -0.00197167   -0.00181151    0.01025539
     atom   18 type  1   force =    -0.00004958   -0.00102470    0.00237159
     atom   19 type  1   force =     0.00003562    0.00002491    0.00023472
     atom   20 type  1   force =    -0.00004075    0.00001475    0.00019065
     atom   21 type  1   force =    -0.00001507   -0.00004496    0.00011050
     atom   22 type  1   force =    -0.00001668   -0.00027051   -0.00016472
     atom   23 type  1   force =    -0.00015334   -0.00017651    0.00019176
     atom   24 type  1   force =     0.00013351   -0.00017092    0.00015520
     atom   25 type  1   force =    -0.00013329    0.00002735    0.00013958
     atom   26 type  1   force =    -0.00001209    0.00017990    0.00000640
     atom   27 type  1   force =     0.00010272    0.00003441    0.00014872
     atom   28 type  1   force =     0.00028088    0.00012894    0.00001874
     atom   29 type  1   force =    -0.00029103    0.00012015    0.00006047
     atom   30 type  1   force =    -0.00000464    0.00024760    0.00003194
     atom   31 type  1   force =    -0.00001362   -0.00026129   -0.00004083
     atom   32 type  1   force =     0.00019485    0.00016310    0.00009241
     atom   33 type  1   force =    -0.00022187    0.00013881    0.00005339
     atom   34 type  1   force =     0.00012186   -0.00009925   -0.00012468
     atom   35 type  1   force =    -0.00001243   -0.00081671    0.00044021
     atom   36 type  1   force =    -0.00012493   -0.00007149   -0.00011633
     atom   37 type  2   force =    -0.00060919   -0.00090310    0.00079786
     atom   38 type  2   force =     0.00039997   -0.00004705   -0.00038633
     atom   39 type  2   force =     0.00447134    0.00042361    0.00469853
     atom   40 type  3   force =     0.00009824    0.00008807    0.00021782
     atom   41 type  4   force =     0.00038367    0.00008182    0.00026540
     atom   42 type  4   force =    -0.00021587    0.00010814    0.00018810
     atom   43 type  4   force =     0.00084431   -0.00028790    0.00001634
     atom   44 type  4   force =    -0.00074080   -0.00015201   -0.00043157
     atom   45 type  4   force =    -0.00404076    0.00111173   -0.00435934

     Total force =     0.009207     Total SCF correction =     0.000609

     negative rho (up, down):  1.288E-02 0.000E+00

     negative rho (up, down):  1.288E-02 0.000E+00

     negative rho (up, down):  1.288E-02 0.000E+00

     negative rho (up, down):  1.288E-02 0.000E+00

     negative rho (up, down):  1.288E-02 0.000E+00

     negative rho (up, down):  1.288E-02 0.000E+00

     negative rho (up, down):  1.288E-02 0.000E+00

     negative rho (up, down):  1.288E-02 0.000E+00

     negative rho (up, down):  1.288E-02 0.000E+00

     negative rho (up, down):  1.288E-02 0.000E+00

     negative rho (up, down):  1.288E-02 0.000E+00

     negative rho (up, down):  1.288E-02 0.000E+00

     negative rho (up, down):  1.288E-02 0.000E+00

     negative rho (up, down):  1.288E-02 0.000E+00

     negative rho (up, down):  1.288E-02 0.000E+00

     negative rho (up, down):  1.288E-02 0.000E+00

     negative rho (up, down):  1.288E-02 0.000E+00

     negative rho (up, down):  1.288E-02 0.000E+00

     negative rho (up, down):  1.288E-02 0.000E+00

     negative rho (up, down):  1.288E-02 0.000E+00

     negative rho (up, down):  1.288E-02 0.000E+00

     negative rho (up, down):  1.288E-02 0.000E+00

     negative rho (up, down):  1.288E-02 0.000E+00

     negative rho (up, down):  1.288E-02 0.000E+00

     negative rho (up, down):  1.288E-02 0.000E+00

     negative rho (up, down):  1.288E-02 0.000E+00

     negative rho (up, down):  1.288E-02 0.000E+00

     negative rho (up, down):  1.288E-02 0.000E+00

     negative rho (up, down):  1.288E-02 0.000E+00

     negative rho (up, down):  1.288E-02 0.000E+00

     negative rho (up, down):  1.288E-02 0.000E+00

     negative rho (up, down):  1.288E-02 0.000E+00

     negative rho (up, down):  1.288E-02 0.000E+00

     negative rho (up, down):  1.288E-02 0.000E+00
 BEEFens 2000 ensemble energies
             -0.613729098624838E+02
             -0.364594728390577E+01
             -0.159698402721665E+02
              0.434354089534417E+02
             -0.223493470494768E+02
             -0.207030691807588E+02
             -0.357498371792301E+02
             -0.875490338185982E+02
             -0.468825378264104E+02
             -0.476834806775558E+02
             -0.373400600230929E+02
              0.235847064453464E+01
              0.410237145825531E+01
              0.756715110665064E+01
              0.269806617493543E+01
              0.480109688227257E+02
             -0.210885964757784E+02
             -0.231178313875240E+02
              0.195390505320468E+02
             -0.113600341418040E+03
              0.542657367592396E+02
             -0.291980190199638E+02
             -0.341210493430489E+01
             -0.115146841723596E+02
             -0.880279214066093E+01
             -0.467263417891996E+01
              0.892286116050785E+02
             -0.189993291328813E+02
             -0.908204961029617E+01
             -0.524530432186505E+02
              0.822824513601431E+02
             -0.187641988816735E+02
             -0.379385009629059E+02
              0.251189024702813E+02
             -0.288182466479441E+01
              0.167205418007813E+02
             -0.483702421788468E+01
              0.108089192114389E+02
              0.292477679468480E+02
             -0.104343564587162E+03
              0.564485475077876E+02
              0.143795237702840E+02
             -0.186631377807134E+01
             -0.364719863695250E+02
              0.124502580853470E+02
             -0.149050515776156E+02
              0.403857274255685E+02
              0.368621691217434E+02
             -0.310145122643717E+02
             -0.278457473303580E+02
             -0.331757578918715E+02
             -0.356214596037151E+02
              0.138729600504974E+02
             -0.496478749979683E+02
              0.117445100654083E+02
              0.629787503898878E+02
              0.643681358678865E+02
              0.359443155955436E+02
              0.155796142018697E+02
              0.274182152067247E+02
              0.901526499012493E+02
              0.214242720818633E+02
             -0.554557325047695E+02
             -0.158038770510399E+02
             -0.239044570531204E+02
              0.636478667632028E+02
             -0.781132127788313E+02
             -0.678277578268674E+02
             -0.263283405747949E+02
             -0.670528946077252E+01
             -0.474849668106386E+02
              0.273706985079731E+02
              0.814386633848335E+01
              0.884922364133342E+01
             -0.401550228908997E+02
             -0.350748771118293E+02
             -0.548433326695586E+02
              0.393706901362925E+02
             -0.299855783810512E+02
              0.268822752410191E+02
             -0.725703476246420E+01
             -0.320974849377836E+02
             -0.581687028613061E+02
             -0.178225583975462E+02
             -0.921529177058471E+01
             -0.126201956112891E+02
              0.416557568876766E+02
              0.691482407863139E+02
             -0.390603980008596E+02
             -0.803289231787325E+02
             -0.221607530143406E+02
              0.112686129784023E+03
             -0.598752785827280E+02
              0.359487988276711E+02
             -0.970754410230404E+01
             -0.669493369255298E+02
              0.257216680546775E+02
              0.401331940567381E+02
             -0.200581721123298E+02
              0.403410236964044E+02
             -0.298519549273421E+02
             -0.484923315713991E+02
              0.876769751461135E+02
              0.458848908422814E+02
              0.338909250440885E+02
              0.147822173861693E+02
              0.208528732165047E+02
              0.865268152717913E+02
             -0.259582762575035E+02
              0.792016137616459E+01
             -0.143885429644712E+03
              0.182917126342045E+02
             -0.723360716348400E+02
              0.152459160527751E+02
              0.207046173251653E+02
             -0.336997918116663E+02
             -0.562656199800321E+02
              0.655315910512707E+01
             -0.307561944471949E+02
              0.312657413840615E+02
             -0.534986100267850E+02
              0.162414367872418E+01
             -0.361001224412987E+02
             -0.427554605201959E+01
             -0.992383715278805E+00
              0.183876735873494E+02
              0.142335109755106E+01
             -0.657052959029977E+01
              0.597772001602530E+02
              0.918360063765750E+02
              0.489571411073784E+02
              0.837438452539305E+02
             -0.116482922530918E+02
              0.143961932727526E+02
              0.546826647919191E+02
             -0.110390633491563E+02
             -0.744289567254141E+02
             -0.389005925406080E+02
             -0.527198505157786E+02
             -0.279901638176827E+02
              0.330097712841037E+02
             -0.118096927870157E+03
             -0.188778977161815E+02
              0.419107558373896E+02
             -0.390434557290590E+02
             -0.368633493490850E+02
              0.550702905771208E+02
              0.405823841509895E+02
             -0.357332923021942E+02
              0.141337060374213E+02
             -0.276076340384539E+02
              0.347192135565999E+02
              0.450302263545524E+01
              0.212113756752545E+02
             -0.893795000477700E+02
             -0.485317817869744E+02
             -0.100575055665469E+02
              0.317304956617742E+01
             -0.371421908616621E+02
              0.107227116384865E+03
             -0.232405795493852E+02
             -0.401776505032677E+02
              0.392876884731688E+02
             -0.499032507952737E+02
             -0.367393260056316E+02
              0.328326670288598E+02
              0.125861569154623E+02
              0.165966772523323E+02
              0.118415285031969E+02
             -0.133988931854354E+02
              0.226345474309917E+02
              0.596330842768289E+02
             -0.314463607601331E+02
              0.164678284677053E+02
              0.944210757477716E+02
              0.344312850828705E+02
             -0.734786611924153E+01
             -0.190961211606333E+02
              0.155044571000854E+03
             -0.166771579645107E+02
              0.367517460408224E+02
              0.197719821632925E+02
              0.364486091417858E+02
              0.901848572272054E+02
              0.547927346518594E+02
             -0.244097256892183E+01
              0.230562277459896E+02
              0.490466274770548E+02
              0.367705141558955E+02
             -0.532230828208080E+02
              0.946269031545742E+02
             -0.835020316042760E+02
             -0.199216305628817E+02
              0.588817700416312E+02
              0.695957882058347E+01
              0.795251822685668E+01
              0.343699111746153E+02
              0.301021604083526E+02
              0.357286445552236E+02
             -0.644337255267161E+02
              0.290132614710399E+01
             -0.300227632081546E+02
             -0.876401247007007E+01
             -0.149765199299020E+01
             -0.737957864874699E+01
             -0.422372626920799E+01
              0.868345976635672E+02
             -0.101658933960553E+02
             -0.279388194601735E+02
             -0.497233906312974E+01
              0.141436697303591E+02
             -0.570851651698868E+02
             -0.413390838594904E+02
             -0.385719716873447E+02
             -0.637172211586473E+02
             -0.171663066895060E+02
             -0.451865939179144E+02
              0.165340255809944E+02
             -0.236587404339417E+01
             -0.105857131654461E+02
             -0.942832951768349E+01
              0.812791761996010E+01
             -0.243977825819734E+02
              0.696575298875904E+02
             -0.816843725167812E+02
             -0.142672349297147E+02
             -0.175419415203205E+02
              0.183564233749020E+02
              0.217009943009712E+02
             -0.469134703751197E+02
             -0.203218319016228E+02
              0.445709202681102E+02
             -0.278211152042023E+02
              0.188659388239759E+02
              0.386439702498538E+02
             -0.324461004138902E+01
              0.115370764034529E+03
             -0.231125897975870E+02
             -0.344486089171282E+02
              0.579739082272772E+01
             -0.231230562125335E+02
              0.533552100786540E+02
             -0.342409791440320E+02
              0.107878335068627E+02
              0.646083268477751E+02
             -0.127686574283789E+02
              0.121530494970315E+03
              0.127273990507743E+03
             -0.657373836006795E+02
              0.596910843980388E+02
              0.169060289633496E+02
             -0.523932107044736E+02
              0.217809188868183E+02
              0.358782962457063E+02
              0.367779487021198E+02
              0.137882489634993E+01
              0.161636149314335E+02
              0.704131185302658E+02
             -0.249464550775984E+02
              0.182548016820271E+02
              0.746438503967679E+02
             -0.376409652166552E+02
             -0.132387973922889E+02
              0.515059470516022E+02
              0.300650682335295E+02
              0.788380945616047E+02
              0.226403015160536E+02
              0.640555129057407E+01
              0.283109081793239E+02
              0.387901463274769E+02
             -0.477883917846679E+02
              0.341204393612821E+01
              0.133026881472427E+02
              0.115119084716442E+02
              0.223226136493343E+02
             -0.581740003705588E+02
              0.369407411312227E+02
             -0.448523554672406E+02
             -0.350936572412299E+02
              0.180386889978836E+02
             -0.182295541974327E+02
              0.561634249757018E+02
             -0.257464981436790E+02
              0.270086374937927E+02
              0.371409751820169E+02
              0.837584303826350E+02
              0.580418979272285E+02
              0.467347715138787E+02
             -0.105527532250011E+02
             -0.403781637469604E+01
             -0.335471393079355E+02
              0.759633757741765E+02
              0.805983190924274E+02
              0.366272461138676E+02
             -0.195113321172780E+02
              0.517171379693699E+02
             -0.162736169977636E+02
              0.216497280443531E+02
              0.621966375274433E+02
              0.211478274637039E+01
             -0.105385066078161E+02
             -0.284985739105371E+02
             -0.518556652437358E+02
              0.956001803074251E+02
              0.445605100574377E+02
             -0.566086670099898E+02
             -0.986829249211752E+01
              0.252584805335256E+02
             -0.100712271122260E+02
              0.599291653681387E+02
              0.153579949883652E+02
              0.807947641998340E+02
              0.283248486270336E+02
             -0.266325646157533E+02
              0.250858324451116E+02
             -0.508420263795699E+01
             -0.326289546127902E+02
              0.134938330448735E+02
              0.207196663189135E+02
              0.943014473069280E+02
              0.805793732284702E+02
              0.557217175504271E+02
              0.737763703777905E+02
              0.809219241142503E+01
             -0.276539578643816E+02
              0.164662405244077E+02
             -0.371462688236131E+02
             -0.482599863043646E+02
             -0.569731323675446E+02
             -0.270018836645378E+02
             -0.110872350158074E+03
             -0.295523932564785E+02
             -0.846955781647812E+02
              0.212561020761564E+02
             -0.481972275380027E+02
              0.402297075520106E+02
             -0.952423634630229E+02
             -0.333413684494888E+02
              0.552592958446503E+02
              0.210026889920844E+02
             -0.840680384183787E+02
              0.636779587969872E+02
             -0.259893890205529E+02
              0.518410158703981E+02
             -0.245214304490018E+02
             -0.760083196946089E+02
              0.113602155617801E+02
             -0.618574145596236E+02
             -0.168491674717676E+02
             -0.151314873107390E+01
              0.422650230101463E+02
              0.128387161482231E+03
             -0.466354857808292E+02
             -0.366540135142566E+02
             -0.103302306012307E+01
             -0.131303225369794E+02
             -0.831372383547601E+02
             -0.602799139164869E+02
              0.522454818348460E+02
             -0.290987986508469E+02
              0.171771663647755E+02
             -0.494681831404793E+02
             -0.133770715464726E+02
             -0.441631065779212E+02
              0.570965595218721E+02
              0.152094648299220E+02
             -0.234275437835322E+02
             -0.129010075239414E+02
              0.682306507148881E+01
             -0.627834806745523E+01
              0.446017771289877E+02
             -0.254766495751682E+02
              0.292052307527581E+01
              0.343248515830941E+02
              0.172546061490397E+02
             -0.162511883952325E+02
              0.157951932961183E+03
              0.544692747974589E+02
              0.126698626665861E+01
              0.162179427675616E+02
             -0.621612339913494E+02
              0.318619351522901E+02
             -0.730355321303585E+02
             -0.255651881710386E+02
             -0.529140952731693E+02
             -0.222120542886920E+02
              0.575703440473259E+02
             -0.543399182931701E+02
              0.163829293379553E+02
             -0.414122878607213E+01
              0.388344974546354E+01
             -0.437298179343778E+02
             -0.482866013891240E+02
             -0.408025455408324E+01
             -0.428463163946238E+02
             -0.219472557754091E+02
             -0.442944038899311E+02
             -0.119953241629346E+02
             -0.362611462871022E+02
             -0.521926001176188E+02
              0.215002203279378E+02
             -0.210498559828636E+02
              0.190510552451738E+02
              0.984201123791908E+01
             -0.746380738330150E+02
             -0.553673142942761E+02
             -0.403713374088979E+02
              0.357700608388950E+02
              0.263410057802554E+01
             -0.633328181681123E+02
              0.592170416555480E+02
             -0.405743048694831E+02
              0.551438574791207E+02
             -0.293171268673110E+02
             -0.451300409045865E+02
              0.300896829476362E+02
             -0.665521835200262E+02
             -0.383587457554650E+02
              0.679113114124760E+02
              0.206209965351617E+02
             -0.365283222599752E+02
              0.495665085260920E+02
             -0.175954007605778E+02
             -0.327200382166628E+02
             -0.305079202940291E+02
             -0.506264062235728E+02
              0.252401419212439E+02
             -0.942761890367183E+02
             -0.848682674507181E+02
             -0.745076162689668E+01
             -0.310028932990821E+02
             -0.582222508640899E+02
              0.730089881056010E+02
              0.133036333945372E+03
             -0.363445186952597E+02
             -0.260308110567405E+01
             -0.643725432035753E+02
              0.657846266892968E+02
              0.173146476154099E+02
             -0.184281482038741E+02
             -0.413992897464360E+02
              0.150300204112004E+02
             -0.592649526510257E+02
             -0.199416269244394E+02
             -0.914081511629134E+02
              0.340928631508974E+02
              0.170028599594976E+02
              0.179248496264654E+01
             -0.719579383755763E+01
             -0.334409166931364E+02
             -0.773122687199907E+01
              0.127028483365155E+03
             -0.200762450379905E+02
             -0.443032608808825E+02
             -0.691616427227447E+02
              0.110913170253475E+02
             -0.346511067896324E+02
              0.603847992255278E+01
              0.265143105444001E+02
              0.102765757061844E+02
              0.281738619445555E+02
              0.121844344745024E+02
              0.636041893958825E+02
              0.319493184213678E+02
             -0.330669013949756E+02
              0.361723033798653E+02
              0.383203668177061E+02
              0.122171338734588E+02
              0.491314129380020E+02
             -0.228327742540583E+02
              0.773551959471673E+02
              0.175168701418943E+02
             -0.275935260265399E+02
             -0.729754590037380E+01
             -0.188390006442123E+02
              0.263668041223273E+02
             -0.237096185214860E+02
             -0.256068434520841E+00
             -0.864062125889780E+01
              0.818681994229546E+02
              0.506435301570527E+02
             -0.693933096855853E+02
             -0.485588771894248E+01
             -0.560857506219883E+02
             -0.160883841972650E+02
             -0.270683355849001E+02
              0.388293737929473E+01
              0.572224101757911E+00
             -0.260797285838453E+02
              0.833778936224851E+01
             -0.612481216588336E+01
             -0.129280648893167E+02
              0.868571945054195E+02
              0.183451340728600E+02
             -0.816370508834195E+02
             -0.462650339897274E+02
              0.955669093739746E+02
              0.280652210736379E+02
             -0.107717877074607E+02
              0.105774717851783E+03
             -0.196416459261721E+02
             -0.123923161717243E+02
             -0.551441232852892E+01
              0.109217819223737E+02
              0.276208229486705E+02
              0.783179034452104E+01
              0.308387893096171E+02
             -0.189133869177278E+02
             -0.308226203314423E+02
             -0.422500728636885E+02
             -0.482205343346996E+02
              0.468500053974810E+02
              0.128335770669245E+02
              0.391843487355171E+02
              0.135205241799086E+02
              0.865673149234793E+02
              0.158675196662656E+02
             -0.854734089847740E+02
             -0.338149500921205E+02
              0.134081551743848E+02
             -0.305822365079598E+02
              0.633636869716988E+02
             -0.904153552651451E+01
              0.150653889448305E+02
              0.503269839357488E+02
             -0.716125407132622E+02
              0.151368953852805E+03
              0.210880560546133E+02
              0.273916049699253E+02
              0.351840207818943E+02
              0.104240729447869E+02
             -0.156913073761609E+01
              0.361990570196842E+02
             -0.361220952075632E+02
              0.782965454994777E+02
              0.693287875525235E+02
             -0.410537902188138E+02
              0.151397068774193E+02
              0.678199310545085E+02
             -0.226199430850250E+02
              0.156582474480093E+02
              0.438847874452931E+02
              0.426703866052233E+02
             -0.793228532478713E+02
             -0.153545783651492E+02
             -0.359192115334119E+02
             -0.154780080729489E+01
             -0.773639655562552E+01
             -0.535983108853929E+01
             -0.181927013450389E+02
             -0.297457269356255E+02
              0.652545353228614E+01
              0.112435689677600E+02
              0.541598056430063E+02
             -0.395488017552718E+02
              0.379670278169170E+02
              0.444004387087351E+02
             -0.187542217171238E+02
              0.880901076390125E+02
             -0.705395479909227E+02
             -0.104341758809796E+03
             -0.669502218550990E+01
             -0.278542203320842E+01
              0.383676621765062E+01
              0.798371891956636E+02
             -0.107251627700282E+02
              0.421459348578374E+02
              0.450165434922265E+02
              0.389498632035151E+02
             -0.100452186966035E+02
              0.633976900681691E+02
             -0.135504579364314E+02
             -0.311725781315794E+02
             -0.483468317812351E+02
              0.599338064866473E+01
              0.373309076689659E+02
             -0.605064316634892E+01
              0.396641738380182E+02
             -0.175856997129227E+01
              0.661533940773532E+02
              0.189105068690103E+02
              0.100768416773122E+02
             -0.121635955219301E+02
              0.335536199712775E+02
              0.367032691853830E+02
              0.234319167924888E+02
             -0.540009388211615E+00
             -0.556636294251033E+02
              0.264204600845730E+02
              0.177513510046186E+02
              0.406213773012184E+02
              0.275623194115977E+02
              0.376491173672024E+02
             -0.613097470346105E+01
              0.254932144502648E+02
             -0.301665271513527E+02
             -0.199599955019232E+01
             -0.575072061028908E+02
             -0.311576159161775E+02
              0.383427486705856E+02
             -0.945463402744028E+02
              0.297174065387404E+02
              0.185631153895458E+02
              0.849803885945676E+02
             -0.301939237559393E+02
              0.333155341111968E+02
             -0.138895725621179E+02
             -0.469509954503467E+02
             -0.768780797294619E+02
             -0.543275142910099E+01
             -0.870121657752705E+02
              0.200632252880350E+02
             -0.249759166102890E+02
              0.309443142849204E+02
              0.239649726997509E+02
             -0.244477718214798E+02
             -0.268843459990283E+02
              0.395521478069493E+02
             -0.594974735457873E+02
             -0.118319710488913E+02
             -0.198089535501822E+02
              0.215790621020739E+02
             -0.884749253533880E+01
              0.366931096622309E+01
             -0.202461626860433E+02
              0.564847583106534E+02
             -0.446231457173016E+02
              0.796488076546382E+01
              0.592300440877951E+02
             -0.327570433058458E+02
              0.364839058528315E+01
             -0.878634104918501E+01
             -0.676656725266633E+02
             -0.486695920916626E+02
             -0.863651751206113E+01
              0.244192947844299E+02
              0.306240421229411E+02
              0.865134018590356E+01
             -0.427751167688552E+01
              0.153924018914228E+02
             -0.444359617538947E+02
              0.327125158316557E+01
             -0.536907419071569E+02
             -0.327764660039007E+02
              0.480335125064399E+02
             -0.298488117880835E+02
              0.630317912002973E+02
             -0.217447701923229E+02
              0.357317205973423E+02
              0.244632151648441E+02
             -0.650858396564800E+02
             -0.283200460106098E+02
              0.943210237238017E+01
             -0.376622421190308E+02
             -0.343978180768383E+02
             -0.839941755957177E+02
             -0.545458827977756E+02
             -0.516128611703638E+02
             -0.420615617246299E+02
[...]
              0.285790952469844E+02
              0.143285407021540E+03
              0.245857336168187E+02
              0.124514238016729E+02
             -0.469494854550354E+02
             -0.644168606690731E+02
             -0.190488157530009E+02
              0.333029519378481E+02
             -0.434315580362261E+01
              0.192975158858972E+02
              0.340089103201697E+02
             -0.592869656198542E+02
              0.225453251927836E+02
              0.585799061414735E+02
              0.558949152328897E+02
             -0.428977747798456E+01
             -0.130372602189425E+01
             -0.100167964445503E+02
             -0.487291996461183E+02
             -0.682744233929962E+02
              0.793940346916024E+02
             -0.533810256551865E+01
             -0.593794569207896E+02
              0.180055135518469E+01
             -0.208456225063704E+02
              0.947899207014958E+02
             -0.219131774333828E+02
             -0.357654351770456E+02
              0.339232335471676E+02
             -0.147593935878918E+02
              0.394682627465082E+02
             -0.233765315589238E+01
              0.102097620879751E+03
              0.495531312846489E+02
             -0.498312659973791E+01
             -0.326272617393514E+02
              0.235447974426033E+02
             -0.534509517692937E+02
             -0.128526830118522E+02
              0.592614982790818E+02
             -0.290609237238560E+02
             -0.443104490970601E+02
             -0.225752489766739E+02
              0.524136915606002E+02
              0.126032038379660E+02
             -0.857603644694771E+02
              0.307549852546126E+02
              0.152913664411405E+02
              0.589543252628471E+01
             -0.518789618743886E+02
             -0.368628448632893E+01
              0.326813119786542E+02
              0.517729138169581E+02
              0.639920268624601E+02
              0.232671029414324E+02
              0.828076097652172E+00
             -0.504059972347760E+02
             -0.514743607979389E+02
             -0.754898650499084E+02
             -0.632771732711831E+01
              0.312669050195244E+02
             -0.378843785870200E+01
              0.552431665055889E+02
             -0.321568800554380E+02
              0.168276562717234E+02
             -0.105068629317095E+02
             -0.292675928169885E+02
              0.592140448736813E+02
              0.797955060402649E+01
              0.611262282955656E+02
              0.514704618035796E+01
              0.267169093324263E+02
             -0.194509765706647E+02
              0.592724462115864E+02
             -0.113403526581736E+02
             -0.113746520128091E+00
             -0.798593282693913E+02
             -0.129112774620360E+02
              0.726602294749744E+02
              0.679985133466980E+02
              0.254818523556291E+02
             -0.132150717599660E+02
              0.351117867754485E+01
             -0.176042906716152E+02
             -0.226501297480596E+01
              0.917694917528072E+02
              0.131811896992895E+01
             -0.193657934056884E+02
             -0.111903500443905E+03
             -0.557259958120909E+02
             -0.379177392504675E+02
             -0.665307629886265E+02
             -0.562031641569295E+02
             -0.690185494391223E+02
             -0.452130852545361E+02
             -0.413952524772743E+02
             -0.457200050968592E+02
              0.488418288094205E+02
             -0.295961876396182E+02
             -0.100426965647315E+03
              0.423350138644514E+02
             -0.263673745182883E+02
             -0.799499825551497E+02
              0.954612032583924E+02
             -0.222559494001460E+02
              0.229627320994431E+02
              0.459072272210893E+02
             -0.120026075455417E+01
              0.257340327861399E+02
              0.470845752986352E+01
              0.417231335955250E+00
             -0.152180179835055E+02
             -0.723920619049689E+02
              0.134363333904443E+02
             -0.130692572897253E+03
              0.632125618097396E+02
             -0.445164400364939E+02
             -0.164899971726635E+02
             -0.160326540544455E+02
              0.737272153668775E+01
             -0.229336403010289E+02
              0.300002889045499E+02
             -0.526837732274338E+02
              0.371039391964351E+02
              0.375711060076652E+02
              0.169255391635334E+02
              0.101710124140121E+02
              0.200155337008439E+02
              0.633958272043537E+01
              0.313364508082701E+02
             -0.805221931950882E+01
             -0.600499839095527E+02
              0.768227599646542E+01
             -0.156166648791379E+02
             -0.198762235694471E+01
              0.512409889698579E+02
             -0.835415754260183E+02
             -0.145150655236364E+01
              0.611796299063258E+00
              0.100552123126352E+02
              0.321798440828310E+02
             -0.124968002585412E+02
              0.844700186942431E+02
              0.491664330054141E+02
             -0.184758777484605E+02
             -0.963708540135138E+01
              0.112677545578271E+01
              0.777880320349407E+02
             -0.591519168623178E+02
             -0.106855175296761E+03
              0.312376391134486E+02
             -0.164275971989168E+02
             -0.141263040034856E+02
              0.132628039850650E+02
              0.776722593247603E+02
              0.468844084466826E+02
             -0.155241363014484E+02
             -0.508858113530063E+02
             -0.562152833397089E+01
              0.309417253361678E+02
             -0.113508683613820E+02
             -0.763912973948632E+02
             -0.281577489342760E+01
             -0.900577217368342E+02
             -0.481179976316718E+02
              0.777999698632280E+02
             -0.489299834545576E+02
             -0.644329592534172E+02
             -0.520025704538428E+02
             -0.354031268500956E+02
              0.344779207937203E+02
              0.830819067638917E+02
             -0.368664571192357E+01
              0.279455849551804E+02
             -0.186058017220489E+02
             -0.701460471890141E+02
              0.470524433777998E+02
             -0.450359715958638E+02
              0.324298451759826E+02
              0.379391928537180E+02
             -0.671677115899035E+01
              0.394386885714435E+02
              0.442529214741872E+02
              0.101976774912629E+03
             -0.156998262080872E+02
             -0.462269363871125E+02
             -0.619863998784202E+02
             -0.126000051931937E+02
             -0.237334009419134E+02
              0.104023478990902E+03
             -0.453936587975255E+02
              0.106277807654944E+02
              0.973420228747852E+01
             -0.266815065110894E+02
             -0.808360517113358E+02
             -0.706588906752683E+01
              0.990702002118385E+02
              0.961046254934004E+01
              0.815823685137184E+01
             -0.533511824293768E+02
             -0.611451554084110E+02
             -0.582502500065497E+01
              0.505311471386821E+02
             -0.224745977223149E+02
              0.109065679377239E+03
             -0.440980934236319E+02
              0.148437703580397E+02
             -0.225448417533205E+02
             -0.725303778794438E+02
              0.175186328456402E+01
             -0.507639190447960E+02
             -0.768574440950617E+02
              0.629675982309413E+01
              0.237891479009406E+01
              0.519585429685520E+02
              0.190125348737130E+02
             -0.327458912835736E+02
              0.232359429630518E+02
             -0.820749430993557E+02
             -0.526828151482703E+02
              0.911719575730273E+02
              0.142764265545217E+02
             -0.188497640095220E+02
             -0.355148473845704E+02
             -0.273031790040443E+01
             -0.599600993376885E+01
              0.840373465087451E+02
              0.422294814355534E+02
             -0.166869741396022E+02
             -0.121705602522803E+02
             -0.431644546683765E+02
             -0.202077720719011E+02
             -0.676667933913029E+02
              0.465303696310491E+02
              0.554644091790888E+01
              0.145744921065647E+02
              0.158199057993594E+02
             -0.706345601903340E+00
             -0.170865214944858E+02
             -0.297372974998034E+01
             -0.101647930809534E+03
             -0.231235099557960E+02
             -0.777013807748574E+01
             -0.955392507934874E+01
              0.551527351465201E+02
              0.631001421496909E+02
              0.166696525952581E+02
             -0.980710381061665E+02
              0.654313641471289E+02
             -0.217390087362245E+02
             -0.381109074912514E+02
             -0.873727238478296E+02
             -0.389710217596109E+02
              0.571573286309674E+02
              0.248006688152096E+02
              0.529773748534859E+01
              0.296091979213425E+02
             -0.571014837450587E+02
             -0.427671481589953E+02
              0.521985339553755E+02
              0.391556324200183E+02
              0.523981794576249E+02
             -0.111197889686224E+01
              0.697327954004612E+01
              0.575208622478063E+02
              0.973451004698870E+02
             -0.302061188954423E+02
              0.327476460733358E+02
             -0.122006119852499E+02
             -0.416880194948862E+02
             -0.318282469723877E+02
             -0.304002194017888E+02
             -0.132920550955522E+02
             -0.528533717668503E+02
             -0.219217806354634E+02
             -0.142593044563817E+03
              0.372350600613790E+02
              0.209571584627235E+02
             -0.398451223814039E+01
             -0.384227373492436E+02
             -0.206213737358669E+02
             -0.533006358685567E+02
              0.151931933359366E+02
              0.828662804695404E+02
             -0.254117955510596E+02
             -0.165032877869636E+02
              0.240351272106386E+02
             -0.494960865403568E+02
              0.889662851308815E+02
              0.156014706728594E+02
              0.227027953189202E+02
              0.495747400452176E+02
              0.313090063054369E+01
              0.548333187917260E+02
              0.145209932356485E+02
             -0.106687565798551E+02
              0.744390515775606E+01
              0.665383791322711E+00
              0.734181802450192E+02
              0.102051780592735E+02
              0.122872664976357E+02
             -0.131101618724678E+02
              0.133614550378342E+02
             -0.921258491323439E+02
             -0.329741172193103E+02
             -0.462678346393376E+02
              0.490517012278876E+02
             -0.294791798957024E+02
             -0.664515652306641E+02
              0.545093439570098E+02
             -0.123321124426706E+02
              0.444505806693679E+02
             -0.908411079222958E+02
              0.233978961101170E+02
              0.861357307588446E+01
              0.590848085590767E+01
             -0.846195136545430E+01
             -0.911543208381852E+01
              0.484838682719873E+02
              0.201116103657358E+01
             -0.480903906049707E+02
             -0.178366771701072E+02
              0.278648974385462E+02
             -0.119177023536698E+03
             -0.939184542009156E+02
              0.396082021014905E+01
              0.119383018950484E+02
             -0.418733711690864E+02
             -0.388768462755905E+01
              0.113208860443719E+03
              0.309597747708177E+02
             -0.577360043376341E+02
              0.934152300064954E+01
             -0.975163650896833E+01
              0.107103890788730E+02
             -0.341676851841305E+02
              0.197942149042976E+02
              0.287280850147847E+02
             -0.308145034195451E+01
              0.109403646227353E+03
             -0.140715063752450E+02
             -0.319329557692877E+02
              0.146230022409089E+02
              0.471022534714022E+02
             -0.359330356133304E+02
             -0.319062642645739E+01
              0.975407533149302E+02
             -0.464602192416044E+01
              0.627496860754478E+02
              0.137185341691824E+02
             -0.908431770060099E+01
             -0.307165326764379E+02
              0.571855177971163E+02
             -0.520613193961879E+02
             -0.222010364042484E+01
             -0.172064962142778E+02
             -0.409568454904893E+02
              0.186383616453106E+02
              0.242146203003967E+02
              0.116132231844258E+02
              0.698610081967331E+00
             -0.389028762739136E+02
              0.216879526466139E+02
             -0.674624598579996E+01
             -0.248800083811419E+02
             -0.212736576945013E+02
              0.204894266497053E+02
             -0.599596825895333E+01
             -0.353355343535027E+02
             -0.107808289576651E+03
              0.103841518883669E+02
              0.250394389013981E+02
             -0.392756042156499E+02
             -0.213641275824381E+02
              0.816078011332171E+02
              0.665806995893780E+01
              0.315645026687815E+02
              0.403241153604009E+01
              0.326277988225624E+02
              0.650084551169891E+01
             -0.377280094283435E+02
             -0.246927118020642E+01
              0.882292004289343E+01
              0.277306852374283E+02
              0.789930927235191E+02
              0.512669388117835E+02
              0.224560344182407E+00
              0.170796265708611E+02
              0.619781091644087E+02
              0.238998264661336E+02
             -0.760209901189506E+02
             -0.276674053028686E+02
              0.152176965436262E+02
              0.572787647207934E+01
              0.257787344760096E+02
             -0.553221597558421E+02
              0.905394015143486E+01
              0.390666412872802E+02
              0.503228399503719E+02
             -0.439536311351582E+02
             -0.686942037811315E+01
             -0.211646117364273E+01
             -0.135862778025767E+02
             -0.368270014275099E+02
             -0.216666773452115E+02
             -0.216565885736856E+01
              0.804820714765810E+01
              0.425922002718061E+02
             -0.311752642353428E+02
              0.834847406071983E+02
              0.331241696579979E+02
              0.222839427197360E+02
              0.337112023147696E+02
              0.325781104149727E+02
              0.350159035555318E+02
              0.543104974703874E+02
             -0.438943674135094E+02
              0.626433492456182E+02
             -0.113511062577151E+03
              0.310720366498784E+02
             -0.107673903665135E+03
              0.863415431604957E+02
              0.699119278285141E+02
             -0.110847827448116E+02
             -0.498254522745731E+02
             -0.434206388898976E+02
             -0.629259331338237E+02
             -0.635796937962015E+02
              0.557977618655632E+02
              0.410134911615361E+02
              0.239418546373967E+02
              0.376447491435591E+02
              0.408126485777791E+02
             -0.386473450815473E+02
             -0.199544076099587E+02
              0.592424182318674E+02
             -0.117492923461265E+02
              0.557326946684093E+02
              0.707837007346006E+02
             -0.559965823606704E+01
             -0.714430366044413E+02
             -0.814499702345415E+00
             -0.246760738428787E+01
             -0.894219006816809E+01
             -0.178221359816700E+01
             -0.659939952405174E+02
             -0.211569677885409E+02
              0.553161489378638E+01
              0.915388951721948E+01
              0.474415009628580E+02
             -0.402384165031325E+02
              0.662849779047224E+02
             -0.429503796563397E+02
              0.213445902747225E+02
              0.355001043964363E+02
 
 BEEF-vdW xc energy contributions
           1 :   -790.603485754589     
           2 :    725.664395918328     
           3 :   -613.507016035492     
           4 :    481.859532969868     
           5 :   -358.599594671403     
           6 :    263.625424618909     
           7 :   -204.473758759512     
           8 :    176.421908463857     
           9 :   -166.616185403046     
          10 :    160.296537644542     
          11 :   -146.595103689020     
          12 :    121.740980766750     
          13 :   -88.8583570967249     
          14 :    55.0167648263867     
          15 :   -27.2347830636730     
          16 :    9.23093311393302     
          17 :  -0.162866073558916     
          18 :   -4.39896175922809     
          19 :    9.97017530500875     
          20 :   -20.4402913622321     
          21 :    36.3959354483127     
          22 :   -55.1416860888778     
          23 :    72.2381198987554     
          24 :   -83.7170912570821     
          25 :    87.8880424290530     
          26 :   -85.9410528519751     
          27 :    81.1679703847004     
          28 :   -77.2717080001493     
          29 :    76.6113450373767     
          30 :   -79.2140370528172     
          31 :   -86.8467044597481     
          32 :   -66.4236507859239     

     Writing output data file ./pwscf.save/
 
     init_run     :    365.06s CPU    369.91s WALL (       1 calls)
     electrons    :  16540.24s CPU  16700.99s WALL (       1 calls)
     forces       :    108.98s CPU    110.36s WALL (       1 calls)

     Called by init_run:
     wfcinit      :    316.93s CPU    320.66s WALL (       1 calls)
     potinit      :     44.62s CPU     44.98s WALL (       1 calls)
     hinit0       :      1.51s CPU      1.56s WALL (       1 calls)

     Called by electrons:
     c_bands      :  13684.81s CPU  13807.83s WALL (      23 calls)
     sum_band     :   1978.57s CPU   1995.65s WALL (      23 calls)
     v_of_rho     :    121.85s CPU    126.87s WALL (      23 calls)
     newd         :     38.55s CPU     54.05s WALL (      23 calls)
     PAW_pot      :    155.40s CPU    155.43s WALL (      23 calls)
     mix_rho      :    606.35s CPU    607.40s WALL (      23 calls)
     vdW_kernel   :     33.55s CPU     33.56s WALL (       1 calls)

     Called by c_bands:
     init_us_2    :     96.66s CPU     97.09s WALL (     624 calls)
     cegterg      :  12723.37s CPU  12845.69s WALL (     299 calls)

     Called by *egterg:
     cdiaghg      :    120.30s CPU    120.37s WALL (    1816 calls)
     h_psi        :   8204.77s CPU   8247.90s WALL (    1842 calls)
     s_psi        :   1331.44s CPU   1331.67s WALL (    1842 calls)
     g_psi        :     19.49s CPU     19.51s WALL (    1530 calls)

     Called by h_psi:
     h_psi:calbec :   1250.12s CPU   1250.74s WALL (    1842 calls)
     vloc_psi     :   5591.88s CPU   5594.68s WALL (    1842 calls)
     add_vuspsi   :   1330.98s CPU   1331.32s WALL (    1842 calls)

     General routines
     calbec       :   1829.52s CPU   1830.37s WALL (    2193 calls)
     fft          :     56.00s CPU     56.03s WALL (    3403 calls)
     ffts         :    192.15s CPU    192.21s WALL (   12484 calls)
     fftw         :   5676.70s CPU   5678.60s WALL (  386370 calls)
 
     Parallel routines
 
     PWSCF        :      4h45m CPU      4h48m WALL

 
   This run was terminated on:  21: 1:53  20May2022            

=------------------------------------------------------------------------------=
   JOB DONE.
=------------------------------------------------------------------------------=
