
     Program PWSCF v.6.7MaX starts on 20May2022 at 16:57:37 

     This program is part of the open-source Quantum ESPRESSO suite
     for quantum simulation of materials; please cite
         "P. Giannozzi et al., J. Phys.:Condens. Matter 21 395502 (2009);
         "P. Giannozzi et al., J. Phys.:Condens. Matter 29 465901 (2017);
          URL http://www.quantum-espresso.org", 
     in publications or presentations arising from this work. More details at
     http://www.quantum-espresso.org/quote

     Parallel version (MPI), running on     1 processors

     MPI processes distributed on     1 nodes
     Reading input from ch3coh-ensemble.in
Warning: card &CELL ignored
Warning: card / ignored

     Current dimensions of program PWSCF are:
     Max number of different atomic species (ntypx) = 10
     Max number of k-points (npk) =  40000
     Max angular momentum in pseudopotentials (lmaxx) =  3
     file Pt.pbe-n-kjpaw_psl.1.0.0.UPF: wavefunction(s)  6S 5D renormalized
     file C.pbe-n-kjpaw_psl.1.0.0.UPF: wavefunction(s)  2S 2P renormalized
     file O.pbe-nl-kjpaw_psl.1.0.0.UPF: wavefunction(s)  2S 2P renormalized
     file H.pbe-kjpaw_psl.1.0.0.UPF: wavefunction(s)  1S renormalized

     **************************************************************************
     Initializing libbeef V0.1.2 with the BEEF-vdW functional.
     Citation: Wellendorff et al., PRB 85, 235149 (2012).
     **************************************************************************


     IMPORTANT: XC functional enforced from input :
     Exchange-correlation= BEEF-VDW
                           (   1   4  43  14   2   0   0)
     Any further DFT definition will be discarded
     Please, verify this is what you really want


     Subspace diagonalization in iterative solution of the eigenvalue problem:
     a serial algorithm will be used

 
     G-vector sticks info
     --------------------
     sticks:   dense  smooth     PW     G-vecs:    dense   smooth      PW
     Sum        4267    4267   1159               741963   741963  104543
 


     bravais-lattice index     =            0
     lattice parameter (alat)  =      16.0349  a.u.
     unit-cell volume          =   11809.4901 (a.u.)^3
     number of atoms/cell      =           43
     number of atomic types    =            4
     number of electrons       =       378.00
     number of Kohn-Sham states=          227
     kinetic-energy cutoff     =      60.0000  Ry
     charge density cutoff     =     240.0000  Ry
     scf convergence threshold =      1.0E-06
     mixing beta               =       0.7000
     number of iterations used =            8  local-TF  mixing
     Exchange-correlation= BEEF-VDW
                           (   1   4  43  14   2   0   0)

     celldm(1)=  16.034858  celldm(2)=   0.000000  celldm(3)=   0.000000
     celldm(4)=   0.000000  celldm(5)=   0.000000  celldm(6)=   0.000000

     crystal axes: (cart. coord. in units of alat)
               a(1) = (   1.000000   0.000000   0.000000 )  
               a(2) = (   0.500000   0.866025   0.000000 )  
               a(3) = (   0.000000   0.000000   3.307540 )  

     reciprocal axes: (cart. coord. in units 2 pi/alat)
               b(1) = (  1.000000 -0.577350  0.000000 )  
               b(2) = (  0.000000  1.154701  0.000000 )  
               b(3) = (  0.000000  0.000000  0.302339 )  


     PseudoPot. # 1 for Pt read from file:
     /users/bkreitz1/quantum-espresso/potentials/Pt.pbe-n-kjpaw_psl.1.0.0.UPF
     MD5 check sum: 04dc8a03c51ece93fc7b5889c2958091
     Pseudo is Projector augmented-wave + core cor, Zval = 10.0
     Generated using 'atomic' code by A. Dal Corso  v.6.7MaX
     Shape of augmentation charge: PSQ
     Using radial grid of 1277 points,  6 beta functions with: 
                l(1) =   0
                l(2) =   0
                l(3) =   1
                l(4) =   1
                l(5) =   2
                l(6) =   2
     Q(r) pseudized with 0 coefficients 


     PseudoPot. # 2 for C  read from file:
     /users/bkreitz1/quantum-espresso/potentials/C.pbe-n-kjpaw_psl.1.0.0.UPF
     MD5 check sum: a169b0ebad56f5ec0d79c4633f80bf22
     Pseudo is Projector augmented-wave + core cor, Zval =  4.0
     Generated using 'atomic' code by A. Dal Corso  v.6.7MaX
     Shape of augmentation charge: PSQ
     Using radial grid of 1073 points,  4 beta functions with: 
                l(1) =   0
                l(2) =   0
                l(3) =   1
                l(4) =   1
     Q(r) pseudized with 0 coefficients 


     PseudoPot. # 3 for O  read from file:
     /users/bkreitz1/quantum-espresso/potentials/O.pbe-nl-kjpaw_psl.1.0.0.UPF
     MD5 check sum: eef08af8b58d9ec80f8fdb78829eb7cf
     Pseudo is Projector augmented-wave + core cor, Zval =  6.0
     Generated using 'atomic' code by A. Dal Corso  v.6.7MaX
     Shape of augmentation charge: PSQ
     Using radial grid of 1095 points,  4 beta functions with: 
                l(1) =   0
                l(2) =   0
                l(3) =   1
                l(4) =   1
     Q(r) pseudized with 0 coefficients 


     PseudoPot. # 4 for H  read from file:
     /users/bkreitz1/quantum-espresso/potentials/H.pbe-kjpaw_psl.1.0.0.UPF
     MD5 check sum: ae98473e6dc62675f0d0baffdab24f65
     Pseudo is Projector augmented-wave, Zval =  1.0
     Generated using 'atomic' code by A. Dal Corso  v.6.7MaX
     Shape of augmentation charge: PSQ
     Using radial grid of  929 points,  2 beta functions with: 
                l(1) =   0
                l(2) =   0
     Q(r) pseudized with 0 coefficients 


     atomic species   valence    mass     pseudopotential
        Pt            10.00   195.08400     Pt( 1.00)
        C              4.00    12.01100     C ( 1.00)
        O              6.00    15.99900     O ( 1.00)
        H              1.00     1.00800     H ( 1.00)

     No symmetry found



   Cartesian axes

     site n.     atom                  positions (alat units)
         1           Pt  tau(   1) = (   0.0000000   0.0000000   1.0017346  )
         2           Pt  tau(   2) = (   0.3333333   0.0000000   1.0017346  )
         3           Pt  tau(   3) = (   0.6666667   0.0000000   1.0017346  )
         4           Pt  tau(   4) = (   0.1666667   0.2886751   1.0017346  )
         5           Pt  tau(   5) = (   0.5000000   0.2886751   1.0017346  )
         6           Pt  tau(   6) = (   0.8333333   0.2886751   1.0017346  )
         7           Pt  tau(   7) = (   0.3333333   0.5773503   1.0017346  )
         8           Pt  tau(   8) = (   0.6666667   0.5773503   1.0017346  )
         9           Pt  tau(   9) = (   1.0000000   0.5773503   1.0017346  )
        10           Pt  tau(  10) = (   0.1666667   0.0962250   1.2739001  )
        11           Pt  tau(  11) = (   0.5000000   0.0962250   1.2739001  )
        12           Pt  tau(  12) = (   0.8333333   0.0962250   1.2739001  )
        13           Pt  tau(  13) = (   0.3333333   0.3849002   1.2739001  )
        14           Pt  tau(  14) = (   0.6666667   0.3849002   1.2739001  )
        15           Pt  tau(  15) = (   1.0000000   0.3849002   1.2739001  )
        16           Pt  tau(  16) = (   0.5000000   0.6735753   1.2739001  )
        17           Pt  tau(  17) = (   0.8333333   0.6735753   1.2739001  )
        18           Pt  tau(  18) = (   1.1666667   0.6735753   1.2739001  )
        19           Pt  tau(  19) = (   0.0020812   0.1928452   1.5419922  )
        20           Pt  tau(  20) = (   0.3381198   0.1942756   1.5490572  )
        21           Pt  tau(  21) = (   0.6664821   0.1941436   1.5490733  )
        22           Pt  tau(  22) = (   0.1687074   0.4810107   1.5428273  )
        23           Pt  tau(  23) = (   0.5024114   0.4785587   1.5482092  )
        24           Pt  tau(  24) = (   0.8355372   0.4810570   1.5429318  )
        25           Pt  tau(  25) = (   0.3356223   0.7700078   1.5406104  )
        26           Pt  tau(  26) = (   0.6686811   0.7702945   1.5409218  )
        27           Pt  tau(  27) = (   1.0021448   0.7700037   1.5428172  )
        28           Pt  tau(  28) = (   0.0039673   0.0001388   1.8169895  )
        29           Pt  tau(  29) = (   0.3360801  -0.0024750   1.8163539  )
        30           Pt  tau(  30) = (   0.6718710  -0.0024596   1.8167770  )
        31           Pt  tau(  31) = (   0.1685096   0.2886013   1.8178382  )
        32           Pt  tau(  32) = (   0.5036994   0.2897163   1.8469838  )
        33           Pt  tau(  33) = (   0.8397130   0.2885452   1.8177851  )
        34           Pt  tau(  34) = (   0.3365219   0.5800754   1.8151893  )
        35           Pt  tau(  35) = (   0.6721420   0.5800102   1.8156588  )
        36           Pt  tau(  36) = (   1.0043055   0.5772721   1.8183434  )
        37           C   tau(  37) = (   0.5068847   0.2794104   2.0741034  )
        38           C   tau(  38) = (   0.4901230   0.4164262   2.1836032  )
        39           O   tau(  39) = (   0.5271954   0.1459349   2.1502686  )
        40           H   tau(  40) = (   0.5963431   0.4891440   2.1732798  )
        41           H   tau(  41) = (   0.3914551   0.4905183   2.1472097  )
        42           H   tau(  42) = (   0.4761197   0.3763802   2.3050365  )
        43           H   tau(  43) = (   0.5421287   0.0594723   2.0739922  )

     number of k points=    13  Marzari-Vanderbilt smearing, width (Ry)=  0.0200
                       cart. coord. in units 2pi/alat
        k(    1) = (   0.0000000   0.0000000   0.0000000), wk =   0.0800000
        k(    2) = (   0.0000000   0.2309401   0.0000000), wk =   0.1600000
        k(    3) = (   0.0000000   0.4618802   0.0000000), wk =   0.1600000
        k(    4) = (   0.2000000  -0.1154701   0.0000000), wk =   0.1600000
        k(    5) = (   0.2000000   0.1154701   0.0000000), wk =   0.1600000
        k(    6) = (   0.2000000   0.3464102   0.0000000), wk =   0.1600000
        k(    7) = (   0.2000000  -0.5773503   0.0000000), wk =   0.1600000
        k(    8) = (   0.2000000  -0.3464102   0.0000000), wk =   0.1600000
        k(    9) = (   0.4000000  -0.2309401   0.0000000), wk =   0.1600000
        k(   10) = (   0.4000000  -0.0000000   0.0000000), wk =   0.1600000
        k(   11) = (   0.4000000   0.2309401   0.0000000), wk =   0.1600000
        k(   12) = (   0.4000000  -0.6928203   0.0000000), wk =   0.1600000
        k(   13) = (   0.4000000  -0.4618802   0.0000000), wk =   0.1600000

     Dense  grid:   741963 G-vectors     FFT dimensions: (  80,  80, 270)

     Estimated max dynamical RAM per process >       9.05 GB

     Check: negative core charge=   -0.000002

     Initial potential from superposition of free atoms

     starting charge  377.99377, renormalised to  378.00000

     negative rho (up, down):  1.154E-02 0.000E+00


     %%%%%%%%%%%%%%%%%%%%%%%%%%%%%%%%%%%%%%%%%%%%%%%%%%%%%%%%%%%%%%%%%%%%%%%%
     %                                                                      %
     % You are using vdW-DF, which was implemented by the Thonhauser group. %
     % Please cite the following two papers that made this development      %
     % possible and the two reviews that describe the various versions:     %
     %                                                                      %
     %   T. Thonhauser et al., PRL 115, 136402 (2015).                      %
     %   T. Thonhauser et al., PRB 76, 125112 (2007).                       %
     %   K. Berland et al., Rep. Prog. Phys. 78, 066501 (2015).             %
     %   D.C. Langreth et al., J. Phys.: Condens. Matter 21, 084203 (2009). %
     %                                                                      %
     %                                                                      %
     % If you are calculating the stress with vdW-DF, please also cite:     %
     %                                                                      %
     %   R. Sabatini et al., J. Phys.: Condens. Matter 24, 424209 (2012).   %
     %                                                                      %
     %%%%%%%%%%%%%%%%%%%%%%%%%%%%%%%%%%%%%%%%%%%%%%%%%%%%%%%%%%%%%%%%%%%%%%%%


     Starting wfcs are  340 randomized atomic wfcs
     Checking if some PAW data can be deallocated... 

     total cpu time spent up to now is      359.7 secs

     Self-consistent Calculation

     iteration #  1     ecut=    60.00 Ry     beta= 0.70
     Davidson diagonalization with overlap
     ethr =  1.00E-02,  avg # of iterations =  2.5

     Threshold (ethr) on eigenvalues was too large:
     Diagonalizing with lowered threshold

     Davidson diagonalization with overlap
     ethr =  6.64E-04,  avg # of iterations =  3.4

     negative rho (up, down):  1.174E-02 0.000E+00

     total cpu time spent up to now is     1797.1 secs

     total energy              =  -27839.35517158 Ry
     estimated scf accuracy    <       2.74648363 Ry

     iteration #  2     ecut=    60.00 Ry     beta= 0.70
     Davidson diagonalization with overlap
     ethr =  7.27E-04,  avg # of iterations =  2.0

     negative rho (up, down):  1.022E-02 0.000E+00

     total cpu time spent up to now is     2438.4 secs

     total energy              =  -27839.55611051 Ry
     estimated scf accuracy    <       1.08677692 Ry

     iteration #  3     ecut=    60.00 Ry     beta= 0.70
     Davidson diagonalization with overlap
     ethr =  2.88E-04,  avg # of iterations =  6.0

     negative rho (up, down):  7.916E-03 0.000E+00

     total cpu time spent up to now is     3131.5 secs

     total energy              =  -27839.61452198 Ry
     estimated scf accuracy    <       0.36895771 Ry

     iteration #  4     ecut=    60.00 Ry     beta= 0.70
     Davidson diagonalization with overlap
     ethr =  9.76E-05,  avg # of iterations =  9.5

     negative rho (up, down):  5.797E-03 0.000E+00

     total cpu time spent up to now is     3927.9 secs

     total energy              =  -27839.65323801 Ry
     estimated scf accuracy    <       0.19048718 Ry

     iteration #  5     ecut=    60.00 Ry     beta= 0.70
     Davidson diagonalization with overlap
     ethr =  5.04E-05,  avg # of iterations =  3.5

     negative rho (up, down):  4.430E-03 0.000E+00

     total cpu time spent up to now is     4617.8 secs

     total energy              =  -27839.66509965 Ry
     estimated scf accuracy    <       0.07236785 Ry

     iteration #  6     ecut=    60.00 Ry     beta= 0.70
     Davidson diagonalization with overlap
     c_bands:  1 eigenvalues not converged
     c_bands:  1 eigenvalues not converged
     ethr =  1.91E-05,  avg # of iterations =  9.9

     negative rho (up, down):  3.360E-03 0.000E+00

     total cpu time spent up to now is     5418.6 secs

     total energy              =  -27839.67071777 Ry
     estimated scf accuracy    <       0.00981661 Ry

     iteration #  7     ecut=    60.00 Ry     beta= 0.70
     Davidson diagonalization with overlap
     c_bands:  2 eigenvalues not converged
     c_bands:  2 eigenvalues not converged
     c_bands:  2 eigenvalues not converged
     c_bands:  2 eigenvalues not converged
     ethr =  2.60E-06,  avg # of iterations = 13.5

     negative rho (up, down):  3.166E-03 0.000E+00

     total cpu time spent up to now is     6643.6 secs

     total energy              =  -27839.67535510 Ry
     estimated scf accuracy    <       0.00397467 Ry

     iteration #  8     ecut=    60.00 Ry     beta= 0.70
     Davidson diagonalization with overlap
     ethr =  1.05E-06,  avg # of iterations =  8.4

     negative rho (up, down):  3.198E-03 0.000E+00

     total cpu time spent up to now is     7408.9 secs

     total energy              =  -27839.67595866 Ry
     estimated scf accuracy    <       0.00232450 Ry

     iteration #  9     ecut=    60.00 Ry     beta= 0.70
     Davidson diagonalization with overlap
     ethr =  6.15E-07,  avg # of iterations =  8.1

     negative rho (up, down):  3.542E-03 0.000E+00

     total cpu time spent up to now is     8093.7 secs

     total energy              =  -27839.67615720 Ry
     estimated scf accuracy    <       0.00120555 Ry

     iteration # 10     ecut=    60.00 Ry     beta= 0.70
     Davidson diagonalization with overlap
     ethr =  3.19E-07,  avg # of iterations =  3.9

     negative rho (up, down):  4.179E-03 0.000E+00

     total cpu time spent up to now is     8752.6 secs

     total energy              =  -27839.67626637 Ry
     estimated scf accuracy    <       0.00111802 Ry

     iteration # 11     ecut=    60.00 Ry     beta= 0.70
     Davidson diagonalization with overlap
     c_bands:  1 eigenvalues not converged
     c_bands:  1 eigenvalues not converged
     c_bands:  1 eigenvalues not converged
     ethr =  2.96E-07,  avg # of iterations = 10.9

     negative rho (up, down):  6.231E-03 0.000E+00

     total cpu time spent up to now is     9451.2 secs

     total energy              =  -27839.67629943 Ry
     estimated scf accuracy    <       0.00102378 Ry

     iteration # 12     ecut=    60.00 Ry     beta= 0.70
     Davidson diagonalization with overlap
     c_bands:  1 eigenvalues not converged
     c_bands:  1 eigenvalues not converged
     c_bands:  1 eigenvalues not converged
     ethr =  2.71E-07,  avg # of iterations =  7.9

     negative rho (up, down):  8.648E-03 0.000E+00

     total cpu time spent up to now is    10123.3 secs

     total energy              =  -27839.67627191 Ry
     estimated scf accuracy    <       0.00088555 Ry

     iteration # 13     ecut=    60.00 Ry     beta= 0.70
     Davidson diagonalization with overlap
     ethr =  2.34E-07,  avg # of iterations =  2.2

     negative rho (up, down):  1.253E-02 0.000E+00

     total cpu time spent up to now is    10720.4 secs

     total energy              =  -27839.67625381 Ry
     estimated scf accuracy    <       0.00042631 Ry

     iteration # 14     ecut=    60.00 Ry     beta= 0.70
     Davidson diagonalization with overlap
     c_bands:  1 eigenvalues not converged
     ethr =  1.13E-07,  avg # of iterations =  4.6

     negative rho (up, down):  1.325E-02 0.000E+00

     total cpu time spent up to now is    11370.7 secs

     total energy              =  -27839.67625315 Ry
     estimated scf accuracy    <       0.00014527 Ry

     iteration # 15     ecut=    60.00 Ry     beta= 0.70
     Davidson diagonalization with overlap
     ethr =  3.84E-08,  avg # of iterations =  2.2

     negative rho (up, down):  1.332E-02 0.000E+00

     total cpu time spent up to now is    12008.2 secs

     total energy              =  -27839.67625664 Ry
     estimated scf accuracy    <       0.00003427 Ry

     iteration # 16     ecut=    60.00 Ry     beta= 0.70
     Davidson diagonalization with overlap
     ethr =  9.07E-09,  avg # of iterations =  4.0

     negative rho (up, down):  1.327E-02 0.000E+00

     total cpu time spent up to now is    12786.7 secs

     total energy              =  -27839.67626384 Ry
     estimated scf accuracy    <       0.00000890 Ry

     iteration # 17     ecut=    60.00 Ry     beta= 0.70
     Davidson diagonalization with overlap
     ethr =  2.35E-09,  avg # of iterations =  4.1

     negative rho (up, down):  1.321E-02 0.000E+00

     total cpu time spent up to now is    13541.4 secs

     total energy              =  -27839.67626640 Ry
     estimated scf accuracy    <       0.00000279 Ry

     iteration # 18     ecut=    60.00 Ry     beta= 0.70
     Davidson diagonalization with overlap
     ethr =  7.37E-10,  avg # of iterations =  3.9

     negative rho (up, down):  1.313E-02 0.000E+00

     total cpu time spent up to now is    14300.3 secs

     total energy              =  -27839.67626723 Ry
     estimated scf accuracy    <       0.00000118 Ry

     iteration # 19     ecut=    60.00 Ry     beta= 0.70
     Davidson diagonalization with overlap
     ethr =  3.12E-10,  avg # of iterations =  3.2

     negative rho (up, down):  1.299E-02 0.000E+00

     total cpu time spent up to now is    14981.7 secs

     End of self-consistent calculation

          k = 0.0000 0.0000 0.0000 ( 92771 PWs)   bands (ev):

   -21.9400 -13.2498  -9.6802  -7.5615  -6.9080  -5.6454  -5.4006  -5.2598
    -4.6109  -4.5475  -4.5415  -4.5349  -4.5275  -4.4969  -4.4920  -4.4856
    -4.0317  -3.9898  -3.9866  -3.9770  -3.9670  -3.9636  -3.9317  -3.6262
    -3.5481  -3.5146  -3.5092  -3.5005  -3.4940  -3.4711  -3.3750  -3.2887
    -3.2867  -3.2838  -3.2728  -3.2690  -3.1923  -3.0780  -3.0721  -3.0704
    -3.0676  -3.0641  -3.0389  -3.0332  -3.0238  -3.0186  -3.0175  -2.9689
    -2.8660  -2.4841  -2.4570  -2.4319  -2.4239  -2.3970  -2.3853  -2.3801
    -2.3681  -2.3649  -2.3210  -2.2098  -2.1881  -2.1336  -1.9911  -1.7629
    -1.6918  -1.6603  -1.6396  -1.6345  -1.6194  -1.5484  -1.5077  -1.4927
    -1.4441  -1.4428  -1.4299  -1.4264  -1.4117  -1.4059  -1.4040  -1.3737
    -1.3697  -1.3669  -1.3393  -1.3336  -1.3095  -1.2613  -1.2465  -1.2172
    -1.2155  -1.2025  -1.0764  -1.0692  -1.0445  -1.0376  -1.0250  -1.0118
    -0.9974  -0.9925  -0.9783  -0.9334  -0.9310  -0.8672  -0.8612  -0.8556
    -0.7876  -0.7858  -0.7795  -0.7450  -0.7431  -0.6723  -0.6541  -0.6298
    -0.5943  -0.5866  -0.5755  -0.3444  -0.2282  -0.2030  -0.1578  -0.1055
    -0.0966  -0.0936  -0.0793  -0.0783  -0.0437  -0.0360  -0.0338  -0.0191
     0.0434   0.0776   0.1613   0.1770   0.1840   0.1988   0.2227   0.2732
     0.2806   0.2873   0.3812   0.3998   0.4063   0.4250   0.5562   0.5655
     0.6452   0.6464   0.6527   0.6822   0.7154   0.7194   0.8565   0.8729
     0.8916   0.9113   0.9193   0.9607   1.0079   1.0122   1.0561   1.0609
     1.0790   1.0909   1.0969   1.0992   1.1017   1.1100   1.1308   1.1578
     1.1676   1.1925   1.1966   1.2026   1.2219   1.2751   1.3040   1.3124
     1.3155   1.3381   1.3439   1.3648   1.3715   1.3854   1.3955   1.3992
     1.4623   1.4644   1.4821   1.4922   1.4932   1.5141   1.5245   1.5744
     1.5852   1.5880   1.6169   1.6201   1.7696   1.7901   1.8754   1.8844
     1.9157   1.9203   1.9233   1.9417   2.1230   2.6374   2.7163   2.7285
     2.7707   2.7854   2.7937   3.5904   3.9090   4.9553   5.0352   5.0533
     5.0745   5.1268   5.6391   5.9276   6.4330   6.6677   6.6798   6.6991
     6.7254   6.7407   6.7599

          k = 0.0000 0.2309 0.0000 ( 92698 PWs)   bands (ev):

   -21.9400 -13.2498  -9.6798  -7.5531  -6.7684  -5.5065  -5.3994  -5.2609
    -5.0325  -4.6367  -4.6294  -4.4665  -4.3966  -4.3268  -4.2859  -4.2756
    -4.1236  -4.0599  -3.9731  -3.9224  -3.9142  -3.8944  -3.8824  -3.6120
    -3.5987  -3.5033  -3.4774  -3.4674  -3.4588  -3.3924  -3.3835  -3.3622
    -3.3206  -3.3089  -3.2771  -3.2715  -3.2138  -3.1857  -3.1340  -3.0949
    -3.0798  -3.0665  -3.0522  -2.9972  -2.8638  -2.8576  -2.8329  -2.8206
    -2.7752  -2.5810  -2.5560  -2.5311  -2.5192  -2.4797  -2.4721  -2.4036
    -2.2809  -2.2710  -2.2175  -2.1876  -2.1570  -2.1383  -2.0481  -1.8901
    -1.8505  -1.7889  -1.7744  -1.7729  -1.7183  -1.6807  -1.6488  -1.6109
    -1.6039  -1.5938  -1.5781  -1.5204  -1.4902  -1.4589  -1.4546  -1.4151
    -1.3733  -1.3344  -1.3270  -1.2840  -1.2555  -1.2507  -1.2053  -1.1821
    -1.1690  -1.1290  -1.1103  -1.0964  -1.0920  -1.0626  -1.0486  -1.0272
    -1.0073  -0.9909  -0.9361  -0.8993  -0.8857  -0.8739  -0.8562  -0.8480
    -0.8244  -0.7917  -0.7870  -0.7659  -0.7009  -0.6764  -0.6565  -0.6429
    -0.6232  -0.5996  -0.5744  -0.5661  -0.5113  -0.5084  -0.4907  -0.4815
    -0.4453  -0.2489  -0.2439  -0.1592  -0.1472  -0.0974  -0.0672  -0.0446
    -0.0340  -0.0242   0.0737   0.0938   0.1220   0.2261   0.2526   0.2831
     0.3228   0.3298   0.3509   0.3609   0.3960   0.3991   0.4780   0.4968
     0.5211   0.5392   0.5505   0.6622   0.6880   0.7235   0.7476   0.7785
     0.7864   0.8117   0.8510   0.8825   0.8931   0.9277   0.9297   0.9795
     1.0160   1.0286   1.0462   1.1154   1.1185   1.1541   1.1683   1.2146
     1.2348   1.2717   1.2936   1.3130   1.3314   1.3624   1.4066   1.4365
     1.4571   1.5037   1.5060   1.5218   1.5531   1.5580   1.5662   1.5782
     1.5859   1.6336   1.6411   1.7558   1.7583   1.8094   1.8194   1.8231
     1.8499   1.8738   1.8876   1.8945   1.9266   1.9454   2.0201   2.0217
     2.0528   2.1853   2.2049   2.2109   2.2310   2.5046   2.6245   2.9426
     3.2138   3.3416   3.4661   3.6918   3.9251   4.5115   4.7497   5.0896
     5.5344   5.5558   5.6198   5.7492   5.7830   6.0979   6.4748   6.5043
     6.5438   6.6672   6.8921

          k = 0.0000 0.4619 0.0000 ( 92694 PWs)   bands (ev):

   -21.9400 -13.2500  -9.6791  -7.5417  -6.3579  -5.7288  -5.4045  -5.2632
    -5.1047  -4.6680  -4.6639  -4.5603  -4.3011  -4.1476  -4.0951  -4.0161
    -3.9842  -3.9414  -3.9204  -3.8021  -3.7779  -3.7359  -3.7255  -3.7140
    -3.6200  -3.5856  -3.5687  -3.5493  -3.5164  -3.5032  -3.4866  -3.4598
    -3.3973  -3.3777  -3.3653  -3.1909  -3.1158  -3.1132  -3.1084  -3.0851
    -3.0705  -3.0297  -2.8672  -2.8510  -2.8435  -2.8350  -2.8038  -2.7712
    -2.6360  -2.5615  -2.5244  -2.5177  -2.4960  -2.4786  -2.4252  -2.3810
    -2.3659  -2.3583  -2.3405  -2.2681  -2.1739  -2.1704  -2.1302  -2.1226
    -2.0086  -1.9694  -1.9664  -1.9466  -1.9062  -1.7879  -1.7665  -1.7475
    -1.7117  -1.7072  -1.6466  -1.6161  -1.6025  -1.5161  -1.4987  -1.4814
    -1.4516  -1.4089  -1.3826  -1.3503  -1.3437  -1.3101  -1.3049  -1.2698
    -1.2554  -1.2327  -1.2197  -1.1996  -1.1946  -1.1791  -1.1479  -1.1220
    -1.0611  -1.0496  -1.0479  -1.0267  -1.0229  -0.9343  -0.9026  -0.8729
    -0.8666  -0.8075  -0.7921  -0.7691  -0.7578  -0.7529  -0.6789  -0.6159
    -0.5779  -0.5619  -0.5551  -0.4985  -0.4959  -0.4157  -0.3856  -0.3734
    -0.2950  -0.2603  -0.2227  -0.1918  -0.1787  -0.1494  -0.1264  -0.1154
    -0.0790  -0.0721  -0.0473  -0.0407  -0.0146   0.0086   0.0336   0.0356
     0.0629   0.1529   0.1954   0.2020   0.2235   0.2788   0.3386   0.4075
     0.4142   0.4898   0.5089   0.5855   0.6378   0.6455   0.7067   0.7235
     0.7516   0.7768   0.8079   0.8439   0.8530   0.8998   0.9183   0.9350
     1.0142   1.0217   1.0474   1.0621   1.0844   1.0955   1.1724   1.2410
     1.2565   1.2953   1.3200   1.3567   1.3743   1.4423   1.4585   1.4835
     1.5485   1.5557   1.5652   1.6152   1.6352   1.6573   1.6846   1.7384
     1.7665   1.7946   1.8119   1.8258   1.8387   1.8596   1.8666   2.0311
     2.0352   2.0525   2.0731   2.0871   2.2165   2.2950   2.3759   2.6339
     2.7109   2.7786   3.0749   3.1010   3.2644   3.3016   3.4932   3.6376
     3.8339   3.8499   4.3078   4.3415   4.3512   4.4363   4.6055   4.6210
     4.6604   4.9106   5.0186   5.1464   5.5705   5.7016   6.0751   6.1674
     6.2118   6.5853   6.6210

          k = 0.2000-0.1155 0.0000 ( 92698 PWs)   bands (ev):

   -21.9400 -13.2498  -9.6799  -7.5535  -6.7681  -5.5067  -5.3990  -5.2601
    -5.0284  -4.6371  -4.6345  -4.4641  -4.3960  -4.3221  -4.2854  -4.2800
    -4.1136  -4.0625  -4.0029  -3.9195  -3.8998  -3.8953  -3.8768  -3.6289
    -3.5926  -3.5018  -3.4763  -3.4571  -3.4408  -3.4023  -3.3844  -3.3633
    -3.3315  -3.3071  -3.2757  -3.2639  -3.2145  -3.1910  -3.1343  -3.0907
    -3.0814  -3.0680  -3.0562  -2.9948  -2.8644  -2.8597  -2.8389  -2.8219
    -2.7679  -2.5800  -2.5571  -2.5447  -2.5077  -2.4782  -2.4675  -2.4152
    -2.2798  -2.2688  -2.2188  -2.1884  -2.1567  -2.1364  -2.0483  -1.8983
    -1.8406  -1.8051  -1.7860  -1.7710  -1.7213  -1.6678  -1.6518  -1.6165
    -1.6019  -1.5920  -1.5762  -1.5191  -1.4922  -1.4619  -1.4476  -1.4167
    -1.3552  -1.3342  -1.3233  -1.2819  -1.2586  -1.2492  -1.1999  -1.1841
    -1.1757  -1.1270  -1.1104  -1.1036  -1.0844  -1.0572  -1.0402  -1.0276
    -1.0169  -1.0017  -0.9319  -0.8969  -0.8909  -0.8759  -0.8626  -0.8418
    -0.8346  -0.8042  -0.7862  -0.7629  -0.7085  -0.6847  -0.6535  -0.6347
    -0.6128  -0.5965  -0.5681  -0.5643  -0.5144  -0.5100  -0.4917  -0.4767
    -0.4492  -0.2666  -0.2267  -0.1767  -0.1431  -0.0975  -0.0621  -0.0492
    -0.0282  -0.0220   0.0796   0.1181   0.1237   0.2214   0.2563   0.2775
     0.3324   0.3367   0.3498   0.3631   0.4001   0.4051   0.4775   0.4946
     0.5242   0.5412   0.5471   0.6508   0.6950   0.7240   0.7480   0.7677
     0.7836   0.8084   0.8481   0.8763   0.8919   0.9217   0.9310   0.9796
     1.0166   1.0294   1.0498   1.1211   1.1255   1.1534   1.1622   1.2188
     1.2354   1.2709   1.2961   1.3196   1.3316   1.3687   1.4096   1.4332
     1.4580   1.4983   1.5060   1.5209   1.5517   1.5570   1.5646   1.5773
     1.5847   1.6357   1.6440   1.7568   1.7641   1.8080   1.8133   1.8215
     1.8457   1.8709   1.8789   1.8925   1.9243   1.9435   2.0181   2.0266
     2.0545   2.1799   2.2023   2.2157   2.2303   2.4825   2.6118   2.9574
     3.2741   3.3386   3.4266   3.6897   3.9544   4.4892   4.7402   5.1229
     5.5392   5.5465   5.5853   5.7526   5.8132   6.1080   6.4435   6.4999
     6.5424   6.6986   6.8935

          k = 0.2000 0.1155 0.0000 ( 92698 PWs)   bands (ev):

   -21.9400 -13.2498  -9.6801  -7.5538  -6.7680  -5.5067  -5.3989  -5.2604
    -5.0330  -4.6362  -4.6283  -4.4639  -4.3965  -4.3314  -4.2812  -4.2740
    -4.1009  -4.0600  -4.0100  -3.9275  -3.9068  -3.8997  -3.8753  -3.6249
    -3.5891  -3.4986  -3.4756  -3.4624  -3.4500  -3.4039  -3.3793  -3.3666
    -3.3249  -3.3074  -3.2792  -3.2696  -3.2105  -3.1846  -3.1360  -3.1026
    -3.0784  -3.0678  -3.0516  -2.9932  -2.8659  -2.8590  -2.8387  -2.8203
    -2.7597  -2.5727  -2.5575  -2.5406  -2.5063  -2.4851  -2.4665  -2.4168
    -2.2740  -2.2678  -2.2219  -2.1885  -2.1583  -2.1363  -2.0486  -1.8893
    -1.8308  -1.8064  -1.7836  -1.7564  -1.7169  -1.6725  -1.6571  -1.6139
    -1.6031  -1.5966  -1.5811  -1.5181  -1.4958  -1.4533  -1.4416  -1.4144
    -1.3732  -1.3456  -1.3356  -1.2777  -1.2668  -1.2518  -1.1879  -1.1796
    -1.1654  -1.1372  -1.1108  -1.0948  -1.0692  -1.0598  -1.0506  -1.0298
    -1.0196  -1.0007  -0.9299  -0.9055  -0.8882  -0.8798  -0.8635  -0.8429
    -0.8318  -0.8078  -0.7848  -0.7674  -0.7143  -0.6850  -0.6523  -0.6332
    -0.6168  -0.5995  -0.5665  -0.5614  -0.5129  -0.5065  -0.4927  -0.4739
    -0.4427  -0.2704  -0.2248  -0.1832  -0.1385  -0.0965  -0.0660  -0.0559
    -0.0322  -0.0244   0.0767   0.1177   0.1262   0.2150   0.2497   0.2870
     0.3173   0.3362   0.3496   0.3594   0.3967   0.4068   0.4762   0.4916
     0.5245   0.5417   0.5522   0.6488   0.6902   0.7240   0.7442   0.7720
     0.7832   0.8081   0.8527   0.8810   0.8947   0.9297   0.9335   0.9801
     1.0201   1.0308   1.0518   1.1213   1.1254   1.1572   1.1622   1.2109
     1.2330   1.2691   1.2981   1.3122   1.3288   1.3660   1.4046   1.4352
     1.4585   1.4995   1.5054   1.5202   1.5565   1.5581   1.5616   1.5744
     1.5883   1.6304   1.6366   1.7521   1.7654   1.8098   1.8142   1.8214
     1.8541   1.8793   1.8870   1.8969   1.9342   1.9465   2.0145   2.0245
     2.0547   2.1768   2.2071   2.2174   2.2337   2.4612   2.6393   2.9535
     3.2669   3.3460   3.4219   3.6819   3.9748   4.4340   4.7602   5.1532
     5.5393   5.5490   5.6002   5.7547   5.8137   6.1028   6.4393   6.4973
     6.5434   6.6441   6.8967

          k = 0.2000 0.3464 0.0000 ( 92702 PWs)   bands (ev):

   -21.9400 -13.2499  -9.6796  -7.5446  -6.4916  -5.4051  -5.2983  -5.2804
    -5.2534  -5.2150  -4.2482  -4.2156  -4.2086  -4.2005  -4.1621  -4.1486
    -4.1264  -4.1066  -4.0222  -4.0116  -3.9617  -3.6779  -3.6471  -3.6392
    -3.6208  -3.5844  -3.5392  -3.5302  -3.4232  -3.3920  -3.3864  -3.3762
    -3.3638  -3.2929  -3.2447  -3.2331  -3.2209  -3.2138  -3.1803  -3.1337
    -3.1213  -3.0921  -3.0539  -3.0018  -2.9132  -2.7349  -2.6501  -2.6365
    -2.6210  -2.5897  -2.5768  -2.5652  -2.5321  -2.5037  -2.4413  -2.3497
    -2.3388  -2.3264  -2.2410  -2.2136  -2.1588  -2.1468  -2.1393  -2.0673
    -2.0302  -1.9211  -1.9049  -1.8446  -1.8337  -1.7969  -1.7591  -1.7386
    -1.7139  -1.7038  -1.6692  -1.5541  -1.5464  -1.5219  -1.5020  -1.4661
    -1.4559  -1.4260  -1.3900  -1.3758  -1.3465  -1.2761  -1.2380  -1.2288
    -1.2064  -1.1843  -1.1702  -1.1654  -1.1109  -1.1068  -1.0964  -1.0719
    -1.0469  -1.0116  -0.9858  -0.9496  -0.9299  -0.8894  -0.8766  -0.8644
    -0.8409  -0.8265  -0.8043  -0.7869  -0.7733  -0.7540  -0.7492  -0.7335
    -0.6866  -0.6698  -0.6276  -0.5751  -0.5657  -0.5419  -0.5041  -0.4646
    -0.4433  -0.3769  -0.2538  -0.2345  -0.1914  -0.1486  -0.1204  -0.0982
    -0.0546  -0.0257  -0.0123   0.0120   0.0369   0.0407   0.0882   0.1221
     0.1660   0.2249   0.3045   0.3151   0.3395   0.3643   0.4046   0.4194
     0.4660   0.5197   0.5547   0.5771   0.6246   0.6557   0.6865   0.7225
     0.7635   0.7806   0.8096   0.8479   0.8589   0.8895   0.8906   0.9079
     0.9251   0.9320   0.9641   1.0015   1.0705   1.1256   1.1517   1.2441
     1.2555   1.3522   1.4290   1.4439   1.4535   1.4777   1.5458   1.5745
     1.5804   1.6136   1.6182   1.6436   1.6582   1.6658   1.6796   1.7039
     1.7276   1.7413   1.7986   1.8362   1.8478   1.8704   1.8908   1.9333
     1.9946   2.0891   2.1176   2.1290   2.1569   2.1852   2.2101   2.3036
     2.3384   2.4986   2.8140   2.8633   3.0875   3.2325   3.3850   3.4313
     3.6032   3.6522   4.0302   4.0606   4.3016   4.3478   4.4026   4.8011
     5.0597   5.5101   5.5359   5.7161   5.7740   5.9726   6.0879   6.1922
     6.2533   6.3388   6.3564

          k = 0.2000-0.5774 0.0000 ( 92680 PWs)   bands (ev):

   -21.9400 -13.2500  -9.6791  -7.5394  -5.9904  -5.9388  -5.4046  -5.3610
    -5.2607  -4.7689  -4.7210  -4.2272  -4.2006  -4.0676  -4.0373  -4.0089
    -3.9208  -3.9159  -3.8217  -3.8067  -3.7454  -3.7173  -3.6970  -3.6741
    -3.6519  -3.6472  -3.6182  -3.5787  -3.5272  -3.4879  -3.4784  -3.4479
    -3.4258  -3.3930  -3.3074  -3.2486  -3.2044  -3.1343  -3.1017  -3.0917
    -3.0692  -3.0554  -3.0063  -2.9707  -2.9523  -2.8490  -2.7676  -2.6548
    -2.6446  -2.6051  -2.5571  -2.4917  -2.4623  -2.4405  -2.3341  -2.2885
    -2.2758  -2.2426  -2.2170  -2.1686  -2.1488  -2.1268  -2.0835  -2.0478
    -2.0365  -2.0302  -1.9999  -1.9863  -1.9655  -1.9410  -1.8920  -1.8249
    -1.7908  -1.7466  -1.7214  -1.6570  -1.6029  -1.5917  -1.5674  -1.5575
    -1.5102  -1.4887  -1.4502  -1.4370  -1.4047  -1.3891  -1.3560  -1.3185
    -1.2882  -1.2518  -1.2410  -1.1852  -1.1690  -1.1522  -1.1032  -1.0521
    -1.0072  -0.9839  -0.9698  -0.9486  -0.9332  -0.9019  -0.8986  -0.8665
    -0.8509  -0.8353  -0.8139  -0.8046  -0.7842  -0.7546  -0.7307  -0.7218
    -0.7099  -0.6955  -0.6814  -0.6716  -0.6393  -0.5698  -0.4882  -0.4134
    -0.3406  -0.3284  -0.2865  -0.2257  -0.2106  -0.1998  -0.1556  -0.1464
    -0.1062  -0.0823  -0.0583  -0.0209   0.0068   0.0311   0.0573   0.0761
     0.1553   0.1701   0.2094   0.2472   0.3265   0.3627   0.3991   0.4361
     0.4764   0.5021   0.5262   0.5674   0.5774   0.5955   0.6255   0.6277
     0.6686   0.7216   0.7358   0.7868   0.8150   0.8295   0.8410   0.8641
     0.8775   0.9530   1.0081   1.0796   1.1193   1.1869   1.2293   1.2814
     1.2994   1.3555   1.4019   1.4125   1.4432   1.5106   1.5578   1.5849
     1.6128   1.6347   1.6415   1.6466   1.6889   1.7129   1.7886   1.7926
     1.7978   1.8282   1.8476   1.8541   1.8639   1.9308   2.0171   2.0441
     2.0676   2.0759   2.0923   2.1352   2.1602   2.2536   2.3584   2.7629
     3.1825   3.2247   3.2895   3.3237   3.4729   3.5843   3.6067   3.6654
     3.7918   4.1823   4.2553   4.2973   4.6473   4.6808   4.8074   4.8192
     4.8934   5.0085   5.1099   5.1358   5.3141   5.6045   5.6450   5.7851
     6.1037   6.3057   6.3499

          k = 0.2000-0.3464 0.0000 ( 92702 PWs)   bands (ev):

   -21.9400 -13.2499  -9.6792  -7.5440  -6.4915  -5.4051  -5.2964  -5.2797
    -5.2508  -5.2186  -4.2509  -4.2125  -4.2087  -4.1984  -4.1636  -4.1518
    -4.1293  -4.1124  -4.0234  -4.0123  -3.9581  -3.6591  -3.6439  -3.6360
    -3.6203  -3.5869  -3.5382  -3.5276  -3.4223  -3.3913  -3.3864  -3.3782
    -3.3629  -3.3031  -3.2466  -3.2351  -3.2229  -3.2179  -3.1805  -3.1345
    -3.1151  -3.0887  -3.0582  -2.9960  -2.9154  -2.7376  -2.6515  -2.6403
    -2.6241  -2.5863  -2.5788  -2.5694  -2.5422  -2.5045  -2.4456  -2.3506
    -2.3405  -2.3245  -2.2408  -2.2132  -2.1622  -2.1466  -2.1385  -2.0658
    -2.0309  -1.9284  -1.9096  -1.8500  -1.8374  -1.8095  -1.7596  -1.7483
    -1.7120  -1.7065  -1.6700  -1.5518  -1.5433  -1.5132  -1.4913  -1.4650
    -1.4503  -1.4225  -1.3847  -1.3762  -1.3430  -1.2900  -1.2397  -1.2263
    -1.2056  -1.1846  -1.1676  -1.1646  -1.1126  -1.1039  -1.0939  -1.0584
    -1.0391  -1.0180  -0.9814  -0.9455  -0.9332  -0.8893  -0.8773  -0.8553
    -0.8402  -0.8259  -0.8056  -0.7967  -0.7709  -0.7553  -0.7505  -0.7381
    -0.6862  -0.6662  -0.6342  -0.5735  -0.5672  -0.5388  -0.4933  -0.4608
    -0.4362  -0.3690  -0.2488  -0.2355  -0.1882  -0.1563  -0.1138  -0.0961
    -0.0523  -0.0254  -0.0139   0.0141   0.0369   0.0390   0.0918   0.1259
     0.1443   0.2373   0.3109   0.3173   0.3389   0.3651   0.4066   0.4223
     0.4707   0.5233   0.5547   0.5775   0.6207   0.6569   0.6950   0.7194
     0.7580   0.7789   0.8053   0.8463   0.8594   0.8814   0.8901   0.9059
     0.9184   0.9286   0.9573   1.0049   1.0689   1.1229   1.1551   1.2491
     1.2653   1.3490   1.4294   1.4431   1.4525   1.4777   1.5472   1.5725
     1.5807   1.6112   1.6180   1.6469   1.6571   1.6699   1.6847   1.7036
     1.7277   1.7377   1.8019   1.8407   1.8516   1.8725   1.8909   1.9363
     1.9860   2.0726   2.1082   2.1167   2.1549   2.1851   2.2101   2.3028
     2.3421   2.4975   2.8323   2.8661   3.1050   3.2363   3.3761   3.4261
     3.5647   3.6730   4.0294   4.0726   4.2781   4.3426   4.4120   4.8068
     5.0554   5.5122   5.5353   5.6443   5.7886   5.9665   6.1284   6.1913
     6.2391   6.3511   6.3579

          k = 0.4000-0.2309 0.0000 ( 92694 PWs)   bands (ev):

   -21.9400 -13.2499  -9.6793  -7.5427  -6.3566  -5.7273  -5.4036  -5.2677
    -5.0963  -4.6698  -4.6676  -4.5521  -4.2971  -4.1491  -4.0868  -4.0197
    -3.9852  -3.9440  -3.9389  -3.8038  -3.7715  -3.7389  -3.7290  -3.7069
    -3.6254  -3.5930  -3.5639  -3.5545  -3.5151  -3.4944  -3.4651  -3.4519
    -3.3842  -3.3775  -3.3684  -3.2113  -3.1234  -3.1101  -3.1056  -3.0896
    -3.0773  -3.0354  -2.8665  -2.8549  -2.8458  -2.8349  -2.8050  -2.7645
    -2.6458  -2.5593  -2.5312  -2.5177  -2.4920  -2.4724  -2.4265  -2.3843
    -2.3641  -2.3569  -2.3369  -2.2618  -2.1834  -2.1687  -2.1340  -2.1236
    -2.0116  -1.9858  -1.9671  -1.9571  -1.9174  -1.7915  -1.7801  -1.7378
    -1.7070  -1.7044  -1.6434  -1.6209  -1.6081  -1.5234  -1.4826  -1.4696
    -1.4443  -1.3859  -1.3744  -1.3512  -1.3387  -1.3161  -1.2964  -1.2670
    -1.2623  -1.2341  -1.2214  -1.1990  -1.1895  -1.1810  -1.1418  -1.1134
    -1.0776  -1.0603  -1.0480  -1.0341  -1.0237  -0.9312  -0.8856  -0.8720
    -0.8664  -0.8120  -0.7935  -0.7832  -0.7571  -0.7466  -0.6678  -0.6168
    -0.6085  -0.5792  -0.5539  -0.4976  -0.4838  -0.4387  -0.3856  -0.3622
    -0.2903  -0.2629  -0.2164  -0.1995  -0.1811  -0.1435  -0.1256  -0.1199
    -0.0672  -0.0576  -0.0422  -0.0337  -0.0128   0.0111   0.0366   0.0439
     0.0611   0.1619   0.2017   0.2125   0.2340   0.2805   0.3423   0.4067
     0.4129   0.4950   0.5061   0.5875   0.6295   0.6447   0.6955   0.7256
     0.7576   0.7728   0.8055   0.8353   0.8509   0.8974   0.9173   0.9332
     1.0151   1.0207   1.0524   1.0664   1.0829   1.0935   1.1685   1.2396
     1.2544   1.3010   1.3314   1.3632   1.3798   1.4443   1.4611   1.4862
     1.5454   1.5544   1.5643   1.6067   1.6412   1.6567   1.6886   1.7402
     1.7643   1.7966   1.8134   1.8247   1.8366   1.8550   1.8619   2.0231
     2.0351   2.0463   2.0724   2.0827   2.2176   2.2951   2.3634   2.6055
     2.6739   2.7836   3.0817   3.1149   3.2668   3.3531   3.4884   3.5988
     3.8413   3.8883   4.3263   4.3345   4.3834   4.4421   4.5471   4.6181
     4.6688   4.9422   4.9930   5.1671   5.5638   5.7169   6.0831   6.1015
     6.2219   6.5205   6.6521

          k = 0.4000-0.0000 0.0000 ( 92702 PWs)   bands (ev):

   -21.9400 -13.2498  -9.6797  -7.5453  -6.4907  -5.4041  -5.2989  -5.2901
    -5.2497  -5.2047  -4.2359  -4.2194  -4.2127  -4.2003  -4.1608  -4.1529
    -4.1285  -4.1049  -4.0270  -4.0092  -3.9694  -3.6722  -3.6465  -3.6320
    -3.6200  -3.5873  -3.5560  -3.5268  -3.4014  -3.3914  -3.3871  -3.3745
    -3.3561  -3.3084  -3.2528  -3.2321  -3.2207  -3.2135  -3.1683  -3.1359
    -3.1182  -3.0974  -3.0619  -2.9974  -2.9130  -2.7337  -2.6535  -2.6403
    -2.6260  -2.5961  -2.5794  -2.5682  -2.5269  -2.5057  -2.4357  -2.3528
    -2.3410  -2.3064  -2.2507  -2.2170  -2.1608  -2.1486  -2.1383  -2.0669
    -2.0347  -1.9250  -1.8985  -1.8772  -1.8397  -1.7938  -1.7671  -1.7413
    -1.7123  -1.7006  -1.6692  -1.5602  -1.5490  -1.5038  -1.4838  -1.4685
    -1.4491  -1.4191  -1.3855  -1.3753  -1.3456  -1.2672  -1.2488  -1.2246
    -1.2158  -1.1871  -1.1684  -1.1608  -1.1195  -1.1034  -1.0980  -1.0772
    -1.0406  -1.0015  -0.9723  -0.9511  -0.9261  -0.8877  -0.8747  -0.8701
    -0.8398  -0.8271  -0.8123  -0.7905  -0.7731  -0.7589  -0.7414  -0.7340
    -0.6922  -0.6683  -0.6488  -0.5720  -0.5592  -0.5468  -0.5083  -0.4546
    -0.4433  -0.3742  -0.2593  -0.2406  -0.1871  -0.1239  -0.1113  -0.1000
    -0.0538  -0.0212  -0.0134   0.0115   0.0313   0.0432   0.0896   0.1241
     0.1594   0.2182   0.3072   0.3185   0.3401   0.3750   0.4080   0.4221
     0.4674   0.5156   0.5537   0.5832   0.6297   0.6476   0.6882   0.7196
     0.7482   0.7814   0.8160   0.8446   0.8572   0.8865   0.8924   0.9063
     0.9206   0.9289   0.9634   1.0006   1.0797   1.1236   1.1503   1.2453
     1.2572   1.3558   1.4296   1.4465   1.4553   1.4772   1.5444   1.5731
     1.5799   1.6148   1.6202   1.6397   1.6600   1.6680   1.6808   1.7045
     1.7267   1.7402   1.7991   1.8345   1.8528   1.8712   1.8899   1.9344
     1.9889   2.0828   2.1096   2.1288   2.1627   2.1848   2.2126   2.3165
     2.3332   2.5082   2.7730   2.8606   3.0562   3.2340   3.3895   3.4310
     3.5975   3.7032   4.0465   4.0602   4.3265   4.3497   4.4151   4.7772
     5.0423   5.5033   5.5313   5.7508   5.7687   5.9783   6.1123   6.1745
     6.2589   6.3044   6.3380

          k = 0.4000 0.2309 0.0000 ( 92694 PWs)   bands (ev):

   -21.9400 -13.2498  -9.6799  -7.5436  -6.3568  -5.7289  -5.4030  -5.2697
    -5.0941  -4.6692  -4.6635  -4.5479  -4.3048  -4.1477  -4.0858  -4.0220
    -3.9932  -3.9397  -3.9328  -3.8135  -3.7747  -3.7415  -3.7310  -3.7099
    -3.6305  -3.5887  -3.5608  -3.5482  -3.5184  -3.4986  -3.4715  -3.4607
    -3.3857  -3.3764  -3.3647  -3.2110  -3.1185  -3.1057  -3.1017  -3.0857
    -3.0699  -3.0321  -2.8627  -2.8520  -2.8448  -2.8333  -2.7983  -2.7559
    -2.6461  -2.5575  -2.5330  -2.5162  -2.4923  -2.4725  -2.4292  -2.3772
    -2.3667  -2.3524  -2.3381  -2.2659  -2.1809  -2.1593  -2.1313  -2.1237
    -2.0026  -1.9772  -1.9481  -1.9394  -1.9138  -1.7913  -1.7806  -1.7421
    -1.7153  -1.7134  -1.6517  -1.6267  -1.6014  -1.5343  -1.4934  -1.4825
    -1.4757  -1.3836  -1.3600  -1.3470  -1.3356  -1.3124  -1.2924  -1.2614
    -1.2540  -1.2250  -1.2174  -1.2053  -1.2014  -1.1771  -1.1477  -1.1062
    -1.0847  -1.0544  -1.0431  -1.0278  -1.0230  -0.9450  -0.8866  -0.8749
    -0.8698  -0.8238  -0.7971  -0.7871  -0.7611  -0.7583  -0.6726  -0.6177
    -0.6153  -0.5767  -0.5542  -0.4966  -0.4922  -0.4493  -0.3797  -0.3632
    -0.2851  -0.2636  -0.2125  -0.2028  -0.1825  -0.1407  -0.1178  -0.1118
    -0.0625  -0.0544  -0.0447  -0.0366  -0.0164   0.0075   0.0272   0.0365
     0.0630   0.1616   0.1934   0.2048   0.2298   0.2788   0.3312   0.3976
     0.4046   0.4954   0.5030   0.5930   0.6389   0.6455   0.6983   0.7245
     0.7479   0.7820   0.8098   0.8461   0.8565   0.9041   0.9205   0.9354
     1.0183   1.0225   1.0532   1.0694   1.0806   1.0949   1.1557   1.2399
     1.2512   1.2996   1.3302   1.3604   1.3767   1.4402   1.4617   1.4870
     1.5443   1.5510   1.5583   1.6044   1.6322   1.6551   1.6795   1.7384
     1.7699   1.7997   1.8080   1.8246   1.8453   1.8685   1.8733   2.0285
     2.0347   2.0575   2.0859   2.0912   2.2160   2.2947   2.3599   2.6187
     2.6613   2.7857   3.0735   3.1180   3.2515   3.3547   3.4842   3.6036
     3.8229   3.9055   4.3243   4.3346   4.3812   4.4286   4.5513   4.6363
     4.6777   4.9511   5.0037   5.1885   5.5739   5.7045   6.0879   6.1061
     6.2255   6.5471   6.6754

          k = 0.4000-0.6928 0.0000 ( 92680 PWs)   bands (ev):

   -21.9400 -13.2499  -9.6796  -7.5405  -5.9856  -5.9430  -5.4031  -5.3592
    -5.2663  -4.7513  -4.7228  -4.2484  -4.2033  -4.0684  -4.0353  -3.9903
    -3.9260  -3.9115  -3.8223  -3.8073  -3.7503  -3.7246  -3.6998  -3.6716
    -3.6566  -3.6435  -3.6262  -3.5717  -3.5343  -3.4858  -3.4793  -3.4496
    -3.4332  -3.3729  -3.2945  -3.2458  -3.2013  -3.1571  -3.1149  -3.0897
    -3.0671  -3.0578  -2.9962  -2.9714  -2.9356  -2.8406  -2.7753  -2.6570
    -2.6463  -2.6148  -2.5396  -2.4963  -2.4587  -2.4386  -2.3396  -2.2883
    -2.2728  -2.2470  -2.2174  -2.1597  -2.1472  -2.1131  -2.0730  -2.0563
    -2.0350  -2.0234  -1.9980  -1.9931  -1.9715  -1.9383  -1.9036  -1.8344
    -1.7897  -1.7410  -1.7293  -1.6597  -1.6005  -1.5888  -1.5754  -1.5458
    -1.5258  -1.4962  -1.4646  -1.4300  -1.3981  -1.3728  -1.3512  -1.3190
    -1.2861  -1.2582  -1.2359  -1.1778  -1.1708  -1.1536  -1.0952  -1.0589
    -1.0214  -0.9837  -0.9593  -0.9355  -0.9291  -0.9054  -0.8967  -0.8736
    -0.8597  -0.8438  -0.8141  -0.8085  -0.7957  -0.7495  -0.7235  -0.7206
    -0.7115  -0.6880  -0.6786  -0.6715  -0.6363  -0.5857  -0.4902  -0.4347
    -0.3554  -0.3259  -0.3012  -0.2266  -0.2127  -0.1923  -0.1553  -0.1338
    -0.1044  -0.0850  -0.0512  -0.0122  -0.0052   0.0347   0.0588   0.0809
     0.1485   0.1711   0.1913   0.2665   0.3243   0.3864   0.4084   0.4435
     0.4713   0.4867   0.5297   0.5663   0.5847   0.5952   0.6210   0.6407
     0.6639   0.7171   0.7411   0.7844   0.8168   0.8361   0.8419   0.8648
     0.8772   0.9528   1.0062   1.0618   1.1176   1.1890   1.2187   1.2871
     1.3001   1.3429   1.4059   1.4191   1.4490   1.5074   1.5481   1.5884
     1.6057   1.6350   1.6402   1.6532   1.6885   1.7155   1.7891   1.7945
     1.8000   1.8225   1.8488   1.8534   1.8640   1.9309   2.0157   2.0376
     2.0717   2.0857   2.0962   2.1408   2.1559   2.2605   2.3665   2.7763
     3.1113   3.2265   3.2652   3.3442   3.4453   3.5731   3.5796   3.7524
     3.7905   4.2182   4.2368   4.3191   4.6693   4.7241   4.7564   4.8218
     4.8791   5.0681   5.1256   5.1586   5.2526   5.5934   5.6732   5.7450
     6.1333   6.2931   6.3197

          k = 0.4000-0.4619 0.0000 ( 92680 PWs)   bands (ev):

   -21.9400 -13.2499  -9.6792  -7.5400  -5.9847  -5.9426  -5.4033  -5.3606
    -5.2653  -4.7546  -4.7237  -4.2424  -4.1978  -4.0714  -4.0368  -3.9887
    -3.9307  -3.9162  -3.8189  -3.8059  -3.7479  -3.7176  -3.7009  -3.6686
    -3.6522  -3.6455  -3.6310  -3.5770  -3.5253  -3.4859  -3.4785  -3.4504
    -3.4301  -3.3687  -3.2920  -3.2521  -3.2057  -3.1588  -3.1127  -3.0905
    -3.0715  -3.0583  -3.0022  -2.9713  -2.9428  -2.8482  -2.7803  -2.6540
    -2.6471  -2.6146  -2.5440  -2.4944  -2.4570  -2.4372  -2.3283  -2.2880
    -2.2692  -2.2450  -2.2197  -2.1776  -2.1500  -2.1246  -2.0790  -2.0572
    -2.0422  -2.0304  -1.9999  -1.9939  -1.9747  -1.9375  -1.9009  -1.8303
    -1.7882  -1.7456  -1.7256  -1.6568  -1.6090  -1.5808  -1.5694  -1.5412
    -1.5134  -1.4845  -1.4548  -1.4324  -1.4018  -1.3792  -1.3558  -1.3193
    -1.2862  -1.2664  -1.2414  -1.1791  -1.1725  -1.1513  -1.0884  -1.0559
    -1.0119  -0.9876  -0.9605  -0.9456  -0.9316  -0.9003  -0.8949  -0.8664
    -0.8500  -0.8298  -0.8123  -0.7994  -0.7830  -0.7649  -0.7410  -0.7226
    -0.7081  -0.6960  -0.6800  -0.6717  -0.6301  -0.5882  -0.4819  -0.4146
    -0.3511  -0.3263  -0.2991  -0.2271  -0.2096  -0.1892  -0.1572  -0.1438
    -0.1086  -0.0847  -0.0538  -0.0166  -0.0012   0.0387   0.0633   0.0758
     0.1527   0.1729   0.2022   0.2705   0.3249   0.3837   0.4041   0.4439
     0.4697   0.4853   0.5286   0.5628   0.5834   0.5985   0.6196   0.6362
     0.6673   0.7175   0.7355   0.7869   0.8122   0.8310   0.8419   0.8629
     0.8825   0.9533   1.0019   1.0711   1.1217   1.1876   1.2301   1.2833
     1.2975   1.3450   1.4014   1.4156   1.4497   1.5074   1.5515   1.5905
     1.6131   1.6350   1.6397   1.6582   1.6861   1.7083   1.7872   1.7921
     1.7993   1.8295   1.8526   1.8547   1.8656   1.9324   2.0173   2.0347
     2.0666   2.0745   2.0876   2.1333   2.1508   2.2596   2.3640   2.7722
     3.1296   3.2262   3.2675   3.3397   3.4690   3.5735   3.5834   3.7525
     3.7974   4.2032   4.2452   4.3005   4.6612   4.7018   4.7741   4.8208
     4.8707   5.0284   5.1185   5.1496   5.3025   5.5789   5.6625   5.7494
     6.1112   6.3099   6.3318

     the Fermi energy is     1.8513 ev

!    total energy              =  -27839.67626727 Ry

     total all-electron energy =  -1326950.816760 Ry
     estimated scf accuracy    <       0.00000051 Ry
     smearing contrib. (-TS)   =       0.00202601 Ry
     internal energy E=F+TS    =  -27839.67829329 Ry

     The total energy is F=E-TS. E is the sum of the following terms:
     one-electron contribution =  -29308.25748590 Ry
     hartree contribution      =   14958.44156961 Ry
     xc contribution           =    -910.32635218 Ry
     ewald contribution        =   12917.66679598 Ry
     one-center paw contrib.   =  -25497.20282079 Ry

     convergence has been achieved in  19 iterations

     negative rho (up, down):  1.299E-02 0.000E+00

     Forces acting on atoms (cartesian axes, Ry/au):

     atom    1 type  1   force =    -0.00018462    0.00007051   -0.00914104
     atom    2 type  1   force =    -0.00111373    0.00001148   -0.00351843
     atom    3 type  1   force =     0.00048130    0.00001467   -0.00351251
     atom    4 type  1   force =    -0.00070676   -0.00082448   -0.00339193
     atom    5 type  1   force =    -0.00039209   -0.00017938   -0.00358814
     atom    6 type  1   force =     0.00022243   -0.00084175   -0.00346499
     atom    7 type  1   force =     0.00005813    0.00065620   -0.00354080
     atom    8 type  1   force =    -0.00067148    0.00077014   -0.00342510
     atom    9 type  1   force =    -0.00026792    0.00009690   -0.00338608
     atom   10 type  1   force =     0.00092442    0.00060885    0.00036210
     atom   11 type  1   force =     0.00072200    0.00318829    0.01145225
     atom   12 type  1   force =     0.00071991    0.00074361    0.00017647
     atom   13 type  1   force =     0.00326602   -0.00167755    0.01100361
     atom   14 type  1   force =    -0.00140312   -0.00163510    0.01107303
     atom   15 type  1   force =     0.00077457   -0.00011522    0.00252741
     atom   16 type  1   force =     0.00136414   -0.00066573   -0.00295102
     atom   17 type  1   force =     0.00100363   -0.00016474    0.00170618
     atom   18 type  1   force =     0.00050021   -0.00027516    0.00192139
     atom   19 type  1   force =    -0.00011251   -0.00003764    0.00029067
     atom   20 type  1   force =    -0.00026303    0.00002622   -0.00034374
     atom   21 type  1   force =    -0.00003618   -0.00007337   -0.00049550
     atom   22 type  1   force =    -0.00009858   -0.00007707    0.00018523
     atom   23 type  1   force =    -0.00028366    0.00011843   -0.00040701
     atom   24 type  1   force =    -0.00018437   -0.00006215    0.00007349
     atom   25 type  1   force =    -0.00009888    0.00008720    0.00052568
     atom   26 type  1   force =    -0.00009669    0.00000379    0.00050825
     atom   27 type  1   force =    -0.00012835    0.00000080    0.00009154
     atom   28 type  1   force =    -0.00034606    0.00000015   -0.00039365
     atom   29 type  1   force =    -0.00054942    0.00018522   -0.00001117
     atom   30 type  1   force =    -0.00031406   -0.00010264   -0.00004643
     atom   31 type  1   force =    -0.00044088   -0.00008511   -0.00012828
     atom   32 type  1   force =    -0.00019279   -0.00046181    0.00115686
     atom   33 type  1   force =    -0.00033239   -0.00004202   -0.00038181
     atom   34 type  1   force =    -0.00069662    0.00015905    0.00003686
     atom   35 type  1   force =    -0.00034164    0.00010855   -0.00006953
     atom   36 type  1   force =    -0.00044746   -0.00005466   -0.00027550
     atom   37 type  2   force =     0.00061206    0.00086174    0.00100162
     atom   38 type  2   force =    -0.00104215   -0.00063899   -0.00099360
     atom   39 type  3   force =    -0.00096714    0.00709687    0.00633756
     atom   40 type  4   force =    -0.00074625   -0.00069032   -0.00013470
     atom   41 type  4   force =     0.00048589   -0.00077793    0.00005042
     atom   42 type  4   force =     0.00002011    0.00058773   -0.00051642
     atom   43 type  4   force =     0.00130404   -0.00591358   -0.00636325

     Total force =     0.013451     Total SCF correction =     0.002541
     SCF correction compared to forces is large: reduce conv_thr to get better values

     negative rho (up, down):  1.299E-02 0.000E+00

     negative rho (up, down):  1.299E-02 0.000E+00

     negative rho (up, down):  1.299E-02 0.000E+00

     negative rho (up, down):  1.299E-02 0.000E+00

     negative rho (up, down):  1.299E-02 0.000E+00

     negative rho (up, down):  1.299E-02 0.000E+00

     negative rho (up, down):  1.299E-02 0.000E+00

     negative rho (up, down):  1.299E-02 0.000E+00

     negative rho (up, down):  1.299E-02 0.000E+00

     negative rho (up, down):  1.299E-02 0.000E+00

     negative rho (up, down):  1.299E-02 0.000E+00

     negative rho (up, down):  1.299E-02 0.000E+00

     negative rho (up, down):  1.299E-02 0.000E+00

     negative rho (up, down):  1.299E-02 0.000E+00

     negative rho (up, down):  1.299E-02 0.000E+00

     negative rho (up, down):  1.299E-02 0.000E+00

     negative rho (up, down):  1.299E-02 0.000E+00

     negative rho (up, down):  1.299E-02 0.000E+00

     negative rho (up, down):  1.299E-02 0.000E+00

     negative rho (up, down):  1.299E-02 0.000E+00

     negative rho (up, down):  1.299E-02 0.000E+00

     negative rho (up, down):  1.299E-02 0.000E+00

     negative rho (up, down):  1.299E-02 0.000E+00

     negative rho (up, down):  1.299E-02 0.000E+00

     negative rho (up, down):  1.299E-02 0.000E+00

     negative rho (up, down):  1.299E-02 0.000E+00

     negative rho (up, down):  1.299E-02 0.000E+00

     negative rho (up, down):  1.299E-02 0.000E+00

     negative rho (up, down):  1.299E-02 0.000E+00

     negative rho (up, down):  1.299E-02 0.000E+00

     negative rho (up, down):  1.299E-02 0.000E+00

     negative rho (up, down):  1.299E-02 0.000E+00

     negative rho (up, down):  1.299E-02 0.000E+00

     negative rho (up, down):  1.299E-02 0.000E+00
 BEEFens 2000 ensemble energies
             -0.609585616284728E+02
             -0.362622940764857E+01
             -0.158960230098922E+02
              0.431375687607112E+02
             -0.222110987110343E+02
             -0.206076083710772E+02
             -0.354280527936678E+02
             -0.869182936088129E+02
             -0.466778629191189E+02
             -0.474446779947826E+02
             -0.370905197783655E+02
              0.230290878720542E+01
              0.408660343890170E+01
              0.761759543998508E+01
              0.267410986935090E+01
              0.476968215463519E+02
             -0.209704588017205E+02
             -0.230764239723460E+02
              0.193881480414126E+02
             -0.112879459581706E+03
              0.538849539171114E+02
             -0.290706353548608E+02
             -0.336792648170156E+01
             -0.114533302269762E+02
             -0.883226085269553E+01
             -0.465370330772774E+01
              0.886643913963650E+02
             -0.188050202496989E+02
             -0.904195115392133E+01
             -0.520829411773983E+02
              0.818620632752181E+02
             -0.187641812134578E+02
             -0.376725241790900E+02
              0.250119700398298E+02
             -0.285567001343458E+01
              0.165213000998420E+02
             -0.484934911469776E+01
              0.108170536998447E+02
              0.289904882582027E+02
             -0.103712489669060E+03
              0.560871538582331E+02
              0.142931655812241E+02
             -0.176095743222265E+01
             -0.362925240158227E+02
              0.123682604529240E+02
             -0.147599177079125E+02
              0.400508847525482E+02
              0.366359131199856E+02
             -0.309028520461645E+02
             -0.276426776985559E+02
             -0.329733339032064E+02
             -0.353751020216494E+02
              0.137233681179660E+02
             -0.493141765822165E+02
              0.116288132868211E+02
              0.625845818128334E+02
              0.638567657121968E+02
              0.357337925277666E+02
              0.154821264976201E+02
              0.271948637605527E+02
              0.895442986038172E+02
              0.213392574210451E+02
             -0.550970056083163E+02
             -0.157561716531591E+02
             -0.237166506833810E+02
              0.632563083952186E+02
             -0.776704101969575E+02
             -0.674470642392168E+02
             -0.260910087959938E+02
             -0.655284860832523E+01
             -0.472571225337979E+02
              0.271891811186609E+02
              0.806195513929117E+01
              0.873589539837258E+01
             -0.398977748246085E+02
             -0.348438831427558E+02
             -0.544421345774859E+02
              0.391782370503785E+02
             -0.297460451345152E+02
              0.266609040616082E+02
             -0.719157573330091E+01
             -0.319296323774071E+02
             -0.578548426318106E+02
             -0.177282456757313E+02
             -0.911424867778351E+01
             -0.125315327223710E+02
              0.413997629617581E+02
              0.686172010581513E+02
             -0.387542849646656E+02
             -0.798177052429259E+02
             -0.220466345911335E+02
              0.111988208288008E+03
             -0.594981448975132E+02
              0.357510721748089E+02
             -0.962502466314777E+01
             -0.665881279178367E+02
              0.255594178811617E+02
              0.399425479594655E+02
             -0.199536522364565E+02
              0.401634149635205E+02
             -0.297088848999913E+02
             -0.480794877098227E+02
              0.870096672489185E+02
              0.455917529854958E+02
              0.337608485363465E+02
              0.146995509732345E+02
              0.206662445012571E+02
              0.860129110387435E+02
             -0.257857175662870E+02
              0.789754953102103E+01
             -0.143010586684064E+03
              0.181896372925746E+02
             -0.719168774732447E+02
              0.151597195068417E+02
              0.205581736966976E+02
             -0.334502083164568E+02
             -0.559477522610528E+02
              0.654962780148787E+01
             -0.305543628410638E+02
              0.309670684181572E+02
             -0.531957910400776E+02
              0.169129234057459E+01
             -0.358586572413513E+02
             -0.425719974964773E+01
             -0.101966341646246E+01
              0.182217293512021E+02
              0.142211214319593E+01
             -0.654201387375929E+01
              0.593294806439405E+02
              0.912333617138246E+02
              0.486301198008930E+02
              0.833395066616486E+02
             -0.115702340600544E+02
              0.143458603200287E+02
              0.543433289878333E+02
             -0.110796538446072E+02
             -0.739180589606794E+02
             -0.386072181190934E+02
             -0.523981454078470E+02
             -0.277989523312661E+02
              0.328467444419320E+02
             -0.117308088049092E+03
             -0.187784181505691E+02
              0.416044205183468E+02
             -0.387976002111812E+02
             -0.366706723125582E+02
              0.546706513476566E+02
              0.402685575928157E+02
             -0.355350893479302E+02
              0.138925482187514E+02
             -0.274407619858073E+02
              0.344799639981415E+02
              0.448189647586042E+01
              0.211674731814717E+02
             -0.888430595818916E+02
             -0.482287527725670E+02
             -0.100037058518758E+02
              0.321234061655090E+01
             -0.368574286926386E+02
              0.106498394527187E+03
             -0.231592885839846E+02
             -0.400064199185778E+02
              0.390503315514502E+02
             -0.496195236072121E+02
             -0.364979954139911E+02
              0.326260632502049E+02
              0.125024551272263E+02
              0.165231401428944E+02
              0.117224272445414E+02
             -0.133343463200358E+02
              0.225717957611157E+02
              0.592630639356967E+02
             -0.312846657465802E+02
              0.163293344069561E+02
              0.938397013029299E+02
              0.342171742556176E+02
             -0.731120916252496E+01
             -0.189511997782198E+02
              0.154023490262649E+03
             -0.165096739086195E+02
              0.364977894397070E+02
              0.195648056410484E+02
              0.362843718642729E+02
              0.895978204916391E+02
              0.545018013714862E+02
             -0.241736538416748E+01
              0.228847898554491E+02
              0.487080013974819E+02
              0.365185622131667E+02
             -0.528145975820406E+02
              0.940122271165582E+02
             -0.829386996248584E+02
             -0.198636426805462E+02
              0.585265135515499E+02
              0.683061889224718E+01
              0.791685846283042E+01
              0.342073060085972E+02
              0.300003386627732E+02
              0.355073916897601E+02
             -0.640288085108283E+02
              0.287715174838524E+01
             -0.298669194875049E+02
             -0.872641517463525E+01
             -0.146707414505966E+01
             -0.728327431754404E+01
             -0.417875607311748E+01
              0.863017190658068E+02
             -0.101353432867816E+02
             -0.277630072014595E+02
             -0.497216857851420E+01
              0.140584863687528E+02
             -0.566671488405378E+02
             -0.409558132346102E+02
             -0.383568850866263E+02
             -0.633014982179465E+02
             -0.170484969773326E+02
             -0.449277216574873E+02
              0.164130177912634E+02
             -0.238626753214689E+01
             -0.104998084203526E+02
             -0.937676537794064E+01
              0.810032794718012E+01
             -0.243403651853608E+02
              0.692243457447036E+02
             -0.810963059911878E+02
             -0.141690558947637E+02
             -0.174672776246747E+02
              0.182662799172673E+02
              0.215485493643004E+02
             -0.465916012309822E+02
             -0.202443090999846E+02
              0.442863133461965E+02
             -0.277131871804347E+02
              0.187716312407189E+02
              0.384370994149228E+02
             -0.322731423641483E+01
              0.114635313590242E+03
             -0.230587943007060E+02
             -0.342396338629492E+02
              0.579306746637843E+01
             -0.229406019030548E+02
              0.529991652957916E+02
             -0.339206531536873E+02
              0.107041504036728E+02
              0.642856365500642E+02
             -0.126863486252288E+02
              0.120754133988021E+03
              0.126429103956195E+03
             -0.652823423259231E+02
              0.593079113801041E+02
              0.167460276986361E+02
             -0.520164234278832E+02
              0.216912809273807E+02
              0.355753151615594E+02
              0.364663769395052E+02
              0.135999148249894E+01
              0.160472219355775E+02
              0.699071324671503E+02
             -0.247982518064328E+02
              0.181851185466485E+02
              0.741986443270372E+02
             -0.374116501274832E+02
             -0.130709526182758E+02
              0.511091987707945E+02
              0.298751662503183E+02
              0.783534571555343E+02
              0.224071819036407E+02
              0.631008857862912E+01
              0.281516231809559E+02
              0.385112781609391E+02
             -0.474146025776768E+02
              0.335339798928794E+01
              0.130894586833682E+02
              0.114269343383475E+02
              0.221619659374593E+02
             -0.577581686909633E+02
              0.367458070289570E+02
             -0.445745823932094E+02
             -0.348852853222589E+02
              0.178911192604209E+02
             -0.181863133271405E+02
              0.557639173424334E+02
             -0.256712713761226E+02
              0.268006772474638E+02
              0.369534362013725E+02
              0.832616115204253E+02
              0.577014422496926E+02
              0.463989342773727E+02
             -0.105626782897713E+02
             -0.395302571154423E+01
             -0.333488717096150E+02
              0.754160486489833E+02
              0.800714956000452E+02
              0.363589968756540E+02
             -0.193160316104077E+02
              0.513979247730754E+02
             -0.162944094281418E+02
              0.215518249673822E+02
              0.617435824334752E+02
              0.213208173199109E+01
             -0.104859096779950E+02
             -0.283866879937757E+02
             -0.514323091448302E+02
              0.949574073593469E+02
              0.442049588440059E+02
             -0.561827552442214E+02
             -0.971492365337278E+01
              0.250913258602817E+02
             -0.100057235638931E+02
              0.594934593730610E+02
              0.152763462700343E+02
              0.802691802546153E+02
              0.280879531470133E+02
             -0.264922594250875E+02
              0.249718958879476E+02
             -0.504383466818211E+01
             -0.324773892528788E+02
              0.133807393290817E+02
              0.206336675289082E+02
              0.936887231970986E+02
              0.800748586422672E+02
              0.553535430438573E+02
              0.733630775286595E+02
              0.803763665098438E+01
             -0.274845669417269E+02
              0.163785022149057E+02
             -0.369441762416324E+02
             -0.478736073333020E+02
             -0.566063235702004E+02
             -0.267896531925986E+02
             -0.110173649823604E+03
             -0.292989678508752E+02
             -0.841176649403243E+02
              0.211028654227692E+02
             -0.479061482914663E+02
              0.398952251980053E+02
             -0.945777309867600E+02
             -0.331414299507255E+02
              0.550324929682562E+02
              0.208591937436028E+02
             -0.834567209733693E+02
              0.633379065884761E+02
             -0.258061487638245E+02
              0.514833262823820E+02
             -0.243675494430078E+02
             -0.754817668478587E+02
              0.112592327243233E+02
             -0.614208778097703E+02
             -0.168441998296835E+02
             -0.149924223112300E+01
              0.420043395162433E+02
              0.127566367630803E+03
             -0.463622474895896E+02
             -0.364206947002357E+02
             -0.995910721238488E+00
             -0.130733877692784E+02
             -0.826133489152756E+02
             -0.599291389620088E+02
              0.519365928793536E+02
             -0.289938004483633E+02
              0.170229418188591E+02
             -0.491551746774653E+02
             -0.132594100116425E+02
             -0.439062539233834E+02
              0.567797888502077E+02
              0.151535607033131E+02
             -0.232723738941831E+02
             -0.127763033922180E+02
              0.672440264990347E+01
             -0.622775726960487E+01
              0.443393858122250E+02
             -0.253121244863403E+02
              0.282393397139697E+01
              0.340880736830190E+02
              0.171811441572290E+02
             -0.160836018239831E+02
              0.156951276323250E+03
              0.540652749088530E+02
              0.120326666588905E+01
              0.161915769819888E+02
             -0.617534609025259E+02
              0.316404076772722E+02
             -0.725141610756041E+02
             -0.253463156791194E+02
             -0.525227982398710E+02
             -0.220938319826247E+02
              0.571786785759140E+02
             -0.539531823496550E+02
              0.161990271545848E+02
             -0.410852269317536E+01
              0.388066518274363E+01
             -0.435393801436631E+02
             -0.480158299623768E+02
             -0.403843578044768E+01
             -0.426429593978545E+02
             -0.218131527059339E+02
             -0.440350844384696E+02
             -0.119569567474890E+02
             -0.360468406201455E+02
             -0.518732696916016E+02
              0.213704047712904E+02
             -0.209869054370371E+02
              0.188792008310643E+02
              0.978769343731535E+01
             -0.741362310772671E+02
             -0.550346412404824E+02
             -0.400363761253357E+02
              0.355677747353859E+02
              0.268626582441101E+01
             -0.629377956448768E+02
              0.588307354704874E+02
             -0.403019125806371E+02
              0.547476528835477E+02
             -0.290999420635369E+02
             -0.448040784207038E+02
              0.299564917955414E+02
             -0.660835681827129E+02
             -0.381461322751717E+02
              0.675376022045739E+02
              0.204938255846749E+02
             -0.362087273191407E+02
              0.491881660142073E+02
             -0.174800785685693E+02
             -0.324497640106503E+02
             -0.303150654205693E+02
             -0.502941852349329E+02
              0.250578119866563E+02
             -0.937009010116724E+02
             -0.843717194527298E+02
             -0.737815536641017E+01
             -0.308071223364484E+02
             -0.578311255676657E+02
              0.725183710636136E+02
              0.132133584125701E+03
             -0.362074374131047E+02
             -0.257075780687626E+01
             -0.639843751828956E+02
              0.653458476867833E+02
              0.171685558189230E+02
             -0.182675435591945E+02
             -0.411691499219459E+02
              0.149297767032698E+02
             -0.588756903574091E+02
             -0.198441914360986E+02
             -0.908568290972329E+02
              0.338538615341336E+02
              0.169494133038628E+02
              0.182465617234186E+01
             -0.711115592444060E+01
             -0.331536266189198E+02
             -0.763853196182811E+01
              0.126128626441050E+03
             -0.199699393813212E+02
             -0.439630370342170E+02
             -0.687019496816812E+02
              0.109850480709916E+02
             -0.343889803679651E+02
              0.595152713920223E+01
              0.262914899795338E+02
              0.102437666068715E+02
              0.279439794559428E+02
              0.120676869798813E+02
              0.632286057081025E+02
              0.317913437505831E+02
             -0.328178865662529E+02
              0.357889433729815E+02
              0.381058375034158E+02
              0.121400575668571E+02
              0.488866044139476E+02
             -0.226136357753928E+02
              0.768979651547185E+02
              0.173405546168295E+02
             -0.273624089940844E+02
             -0.726343892536611E+01
             -0.187169133454211E+02
              0.262641120212615E+02
             -0.235489104834163E+02
             -0.169509439041093E+00
             -0.854879220433918E+01
              0.813296923719211E+02
              0.502574332839246E+02
             -0.689917906634679E+02
             -0.479886603954756E+01
             -0.557662082107733E+02
             -0.160041154667883E+02
             -0.269339398313421E+02
              0.380217712578963E+01
              0.585580609882166E+00
             -0.258861018159446E+02
              0.820489886622545E+01
             -0.606358849959349E+01
             -0.128908852756729E+02
              0.862851028906248E+02
              0.182535004867794E+02
             -0.810739547955155E+02
             -0.460178863635510E+02
              0.949279312435175E+02
              0.278984034883403E+02
             -0.107216141866320E+02
              0.105049880301104E+03
             -0.195522400614364E+02
             -0.123407887803199E+02
             -0.543863777718286E+01
              0.108076805139040E+02
              0.273911030324691E+02
              0.782517674556993E+01
              0.306627591061336E+02
             -0.188499367523487E+02
             -0.305544101997779E+02
             -0.419725329337982E+02
             -0.479056822601854E+02
              0.465904925698457E+02
              0.127454436661764E+02
              0.389347879817884E+02
              0.134184234562789E+02
              0.859625720219084E+02
              0.157311302827628E+02
             -0.849612222342297E+02
             -0.335910272094316E+02
              0.134024996517190E+02
             -0.304073999496554E+02
              0.629447493585218E+02
             -0.892934260094785E+01
              0.149492826647106E+02
              0.499655270553770E+02
             -0.710845398461138E+02
              0.150403325666569E+03
              0.209583270594428E+02
              0.272442801284528E+02
              0.349326646892517E+02
              0.104020305073137E+02
             -0.157065048295669E+01
              0.359888272356443E+02
             -0.358796516892507E+02
              0.777124991316461E+02
              0.688188219222887E+02
             -0.407814430398656E+02
              0.150302173935135E+02
              0.673416819406959E+02
             -0.224878727006486E+02
              0.155230490775581E+02
              0.436700467253615E+02
              0.424065970210331E+02
             -0.788260404150030E+02
             -0.153110526900607E+02
             -0.357446280527483E+02
             -0.151201374691794E+01
             -0.769260504163983E+01
             -0.541803928209913E+01
             -0.181269215238046E+02
             -0.295293972657871E+02
              0.640668255186230E+01
              0.112070161763955E+02
              0.538081971322727E+02
             -0.392338287540675E+02
              0.376493129789654E+02
              0.440721816073956E+02
             -0.187108441261356E+02
              0.875853025411481E+02
             -0.700977548258611E+02
             -0.103654346843483E+03
             -0.663139070611580E+01
             -0.271840451181697E+01
              0.385739111028113E+01
              0.793088003020608E+02
             -0.107227644592028E+02
              0.418602583079259E+02
              0.446229494187657E+02
              0.387028445684153E+02
             -0.998301435212625E+01
              0.630210244112932E+02
             -0.134314766882951E+02
             -0.309154417653072E+02
             -0.481160207007675E+02
              0.592047029390112E+01
              0.371114464818436E+02
             -0.604588682360432E+01
              0.394577752016071E+02
             -0.175945085739727E+01
              0.657858027917817E+02
              0.188081552800538E+02
              0.100207013441835E+02
             -0.121826496361792E+02
              0.333544232092594E+02
              0.364373499217610E+02
              0.233463500425050E+02
             -0.522072935041848E+00
             -0.553073173119582E+02
              0.262077594837216E+02
              0.176118171104059E+02
              0.404210901697603E+02
              0.273592399642710E+02
              0.374133331114120E+02
             -0.607497540034876E+01
              0.252569272690624E+02
             -0.299897547947346E+02
             -0.198948065040531E+01
             -0.571680812129076E+02
             -0.309423689308805E+02
              0.380679822866659E+02
             -0.939726690430952E+02
              0.295573853187922E+02
              0.184746091543511E+02
              0.844172738433105E+02
             -0.301227837327791E+02
              0.330968556343252E+02
             -0.138237830702788E+02
             -0.466169170241401E+02
             -0.764705241604877E+02
             -0.532124668486938E+01
             -0.864098635125503E+02
              0.200209957081644E+02
             -0.248536224452937E+02
              0.307294702150766E+02
              0.238054546172976E+02
             -0.242455587472853E+02
             -0.266818720797540E+02
              0.392794875131546E+02
             -0.590983024396276E+02
             -0.117359073314270E+02
             -0.196892432285657E+02
              0.213896202310096E+02
             -0.889728524644471E+01
              0.364058833791756E+01
             -0.201368878114521E+02
              0.561258729922092E+02
             -0.442104564074053E+02
              0.791596875156665E+01
              0.588241796299562E+02
             -0.325027832911616E+02
              0.362576450499799E+01
             -0.881489240772260E+01
             -0.672413399908023E+02
             -0.484367807805212E+02
             -0.862395465255140E+01
              0.242112230370441E+02
              0.303890407283768E+02
              0.862712470933627E+01
             -0.419024985854571E+01
              0.152646791982897E+02
             -0.441733136722345E+02
              0.330960867959567E+01
             -0.533559474173992E+02
             -0.326105411353160E+02
              0.477006363456874E+02
             -0.296544198763318E+02
              0.625599104427108E+02
             -0.215798798379847E+02
              0.355214558550734E+02
              0.242913129591059E+02
             -0.646870444307280E+02
             -0.281610287400324E+02
              0.936885703836572E+01
             -0.373666357146029E+02
             -0.341370297611934E+02
             -0.833918074247733E+02
             -0.541852038471172E+02
             -0.512768210310378E+02
             -0.417650163369657E+02
             -0.983328301339668E+00
              0.100504123032128E+02
              0.108204965442485E+01
              0.154381291241025E+02
             -0.551968036970234E+02
              0.142522522882786E+02
              0.258120822136343E+02
             -0.669918600337251E+02
             -0.704772711905803E+02
             -0.433169921343703E+02
             -0.173394976154136E+02
              0.179191443221621E+02
              0.454719847858496E+01
             -0.427862539703184E+02
              0.367629853113622E+02
             -0.217211347662530E+02
              0.519815895157612E+02
             -0.891302890237927E+02
              0.600642636192143E+02
             -0.217193547985428E+01
             -0.370418691380530E+02
             -0.217521303478668E+02
              0.471968750591240E+01
              0.376785740242284E+02
             -0.759634113060471E+02
             -0.121349910406146E+02
             -0.217517268463289E+02
              0.513111625813661E+02
              0.868603498914083E+02
             -0.969843990759014E+02
              0.948241421076106E+02
              0.469555296875681E+02
             -0.728915548234269E+02
             -0.368130633221590E+02
              0.755539782977144E+02
              0.634626322369588E+02
             -0.182147284804780E+02
             -0.466584753540724E+01
              0.739986522425673E+01
              0.652549956004091E+02
             -0.511099261719418E+02
              0.159031732147089E+02
             -0.475626360379623E+01
              0.349037073935370E+02
             -0.750307057506843E+02
             -0.650006669952817E+01
             -0.352391083487407E+02
              0.462937857802184E+02
              0.470599855587108E+02
[...]
              0.284556418062497E+02
              0.142402521237722E+03
              0.243708913416945E+02
              0.123309595681411E+02
             -0.466419104991725E+02
             -0.640329321670603E+02
             -0.189669493138414E+02
              0.331021039482077E+02
             -0.430114872157469E+01
              0.191104591357175E+02
              0.337673813005591E+02
             -0.589110527861226E+02
              0.223614322406967E+02
              0.583684075875684E+02
              0.555320862850261E+02
             -0.423071328764917E+01
             -0.135350494429986E+01
             -0.996818176728490E+01
             -0.484277684837953E+02
             -0.678078560400387E+02
              0.788831598028524E+02
             -0.527235985288024E+01
             -0.590296809483499E+02
              0.174382439249052E+01
             -0.206503035037235E+02
              0.942282188275039E+02
             -0.217516052615164E+02
             -0.355207004902568E+02
              0.336845340888008E+02
             -0.146481410387138E+02
              0.391571094517228E+02
             -0.236137273549571E+01
              0.101494486505416E+03
              0.491946143060626E+02
             -0.506693099261834E+01
             -0.323604811079127E+02
              0.233533450070347E+02
             -0.530885744242272E+02
             -0.128156827974119E+02
              0.588436795456725E+02
             -0.288858600980300E+02
             -0.440196997177048E+02
             -0.224176744482018E+02
              0.520869031738632E+02
              0.125265310478307E+02
             -0.852413146925722E+02
              0.305357161175286E+02
              0.152504985351187E+02
              0.581908167561264E+01
             -0.515583387288411E+02
             -0.374814844994035E+01
              0.324529287246871E+02
              0.514816351206225E+02
              0.635471515537364E+02
              0.230403479790408E+02
              0.785389216453069E+00
             -0.500381426800617E+02
             -0.511966410105344E+02
             -0.750733595655698E+02
             -0.621156658496113E+01
              0.310458493079745E+02
             -0.379140896948715E+01
              0.549105910949938E+02
             -0.319403223214989E+02
              0.167146448053802E+02
             -0.103538576928026E+02
             -0.290789433544379E+02
              0.588206707012445E+02
              0.794497378932726E+01
              0.607021098381980E+02
              0.512120526159345E+01
              0.265921010160030E+02
             -0.193396227900549E+02
              0.588724785667140E+02
             -0.112158944890101E+02
             -0.121570128136437E+00
             -0.793523892149692E+02
             -0.128694713105208E+02
              0.722062973354970E+02
              0.675964991017649E+02
              0.252980308614283E+02
             -0.131030218497490E+02
              0.346359762009763E+01
             -0.174485387784337E+02
             -0.212730307635994E+01
              0.911713337053334E+02
              0.126750569358830E+01
             -0.191605404753502E+02
             -0.111212810346040E+03
             -0.554552673265219E+02
             -0.376679571334682E+02
             -0.661290599486085E+02
             -0.558109366711306E+02
             -0.685629366786435E+02
             -0.449076032726404E+02
             -0.412184586700539E+02
             -0.453929465873910E+02
              0.485490537409546E+02
             -0.294987556943545E+02
             -0.999113050158639E+02
              0.420759639058164E+02
             -0.261413049182301E+02
             -0.794209025407835E+02
              0.948109540367833E+02
             -0.220723904597451E+02
              0.228755906273551E+02
              0.456789206316355E+02
             -0.129719303062387E+01
              0.255497999655967E+02
              0.471026204954239E+01
              0.416389958087183E+00
             -0.151234279917569E+02
             -0.718945038205723E+02
              0.133696787842696E+02
             -0.129906891712821E+03
              0.627195034627254E+02
             -0.442415494812942E+02
             -0.163699322083383E+02
             -0.158949149350954E+02
              0.722771713079321E+01
             -0.228432472449890E+02
              0.298319198457177E+02
             -0.523008133859627E+02
              0.368741353365048E+02
              0.372735217801624E+02
              0.168803682735368E+02
              0.100970741416410E+02
              0.198753244195407E+02
              0.626549539779035E+01
              0.311608649326517E+02
             -0.801617941531345E+01
             -0.595388289611701E+02
              0.761198470946260E+01
             -0.153919037324312E+02
             -0.195069201317597E+01
              0.508634920341744E+02
             -0.830289912718258E+02
             -0.148011858503281E+01
              0.588911191867851E+00
              0.999625883645160E+01
              0.319770041377016E+02
             -0.124114349988589E+02
              0.839233433105391E+02
              0.489300785140111E+02
             -0.183907513690461E+02
             -0.959323203298618E+01
              0.108613655354006E+01
              0.772840973349593E+02
             -0.588356665871829E+02
             -0.106202042328237E+03
              0.310451300097710E+02
             -0.163637818650101E+02
             -0.140177911294290E+02
              0.131284868881381E+02
              0.771764620004963E+02
              0.466047591915749E+02
             -0.154134549219855E+02
             -0.505277271608135E+02
             -0.554115435381638E+01
              0.307621811423822E+02
             -0.112302393471212E+02
             -0.758992138215260E+02
             -0.275111198784910E+01
             -0.894015911595375E+02
             -0.477742713115988E+02
              0.772177456663839E+02
             -0.485729048245463E+02
             -0.639566145166658E+02
             -0.516589953959226E+02
             -0.351441054730475E+02
              0.342430658446698E+02
              0.825213866504313E+02
             -0.361212698393945E+01
              0.277725210464910E+02
             -0.184662638894910E+02
             -0.696882575678282E+02
              0.467210680487176E+02
             -0.447093304202817E+02
              0.322827279297460E+02
              0.377554187169417E+02
             -0.661963903724222E+01
              0.392022887802348E+02
              0.440006460850513E+02
              0.101159890680470E+03
             -0.156421968748348E+02
             -0.458437379707800E+02
             -0.615527160623420E+02
             -0.124627112723611E+02
             -0.234602142631230E+02
              0.103422933265408E+03
             -0.450984961234936E+02
              0.105596730681304E+02
              0.972773961548455E+01
             -0.265517720491959E+02
             -0.802521595418528E+02
             -0.702355559387280E+01
              0.984130860875916E+02
              0.946211256789968E+01
              0.811572286827300E+01
             -0.529446551054154E+02
             -0.607806017069702E+02
             -0.569330560050676E+01
              0.502343694709293E+02
             -0.222985573517560E+02
              0.108403280211536E+03
             -0.437633363114853E+02
              0.147113356827117E+02
             -0.224777932016661E+02
             -0.721213793646632E+02
              0.170383315582882E+01
             -0.503974733258035E+02
             -0.763771272431546E+02
              0.620685852764291E+01
              0.236875407340000E+01
              0.516234427593860E+02
              0.188345957687351E+02
             -0.325059469694825E+02
              0.230964323836000E+02
             -0.814714504675984E+02
             -0.523743242174579E+02
              0.905675041177664E+02
              0.142562241239237E+02
             -0.188248743236921E+02
             -0.353567574840624E+02
             -0.270737173171756E+01
             -0.591275889670840E+01
              0.834149393289516E+02
              0.419506394226970E+02
             -0.166405830096705E+02
             -0.121906988516865E+02
             -0.429271202688332E+02
             -0.201276504857386E+02
             -0.672651660587235E+02
              0.461841882053759E+02
              0.549358773366490E+01
              0.145259955754578E+02
              0.156895194607396E+02
             -0.610675694741936E+00
             -0.169342567025611E+02
             -0.304947946660759E+01
             -0.100893198733387E+03
             -0.230495923256168E+02
             -0.769260666903773E+01
             -0.951125718384492E+01
              0.548462473955596E+02
              0.626561665780444E+02
              0.165521487721031E+02
             -0.974533483196550E+02
              0.650174576927038E+02
             -0.215945195954691E+02
             -0.378609524478672E+02
             -0.867916819820617E+02
             -0.388150037557676E+02
              0.567172843904573E+02
              0.245668762712603E+02
              0.520094636475278E+01
              0.293719578171961E+02
             -0.567229519544558E+02
             -0.424355349191448E+02
              0.517856141163391E+02
              0.388913616827157E+02
              0.520896388601242E+02
             -0.118366343004686E+01
              0.690189732287342E+01
              0.571720857176698E+02
              0.966918125747426E+02
             -0.301054213342651E+02
              0.324558928120200E+02
             -0.119742822795015E+02
             -0.413977655351062E+02
             -0.315791573802236E+02
             -0.301609573222267E+02
             -0.131933202991395E+02
             -0.525465764844292E+02
             -0.217995194761389E+02
             -0.141726075335504E+03
              0.370297582165290E+02
              0.207882447040508E+02
             -0.395699164698826E+01
             -0.381624510146025E+02
             -0.205023616458745E+02
             -0.529184434006728E+02
              0.151585864443229E+02
              0.823406401852261E+02
             -0.252992563528095E+02
             -0.163794830373837E+02
              0.239010368336583E+02
             -0.491518444285230E+02
              0.884127787283981E+02
              0.155046253732675E+02
              0.226652764734205E+02
              0.492353990585877E+02
              0.318130771100732E+01
              0.544459141585130E+02
              0.143802038767826E+02
             -0.106669367855377E+02
              0.736522863623821E+01
              0.742558643920916E+00
              0.729969086756915E+02
              0.101530254692354E+02
              0.121378325591677E+02
             -0.130522555911655E+02
              0.132847576626692E+02
             -0.915070462027786E+02
             -0.327322786983518E+02
             -0.459380109612123E+02
              0.487305915816794E+02
             -0.292495033810229E+02
             -0.660861233453027E+02
              0.540969671424405E+02
             -0.122532938259086E+02
              0.441812694012393E+02
             -0.902493176088678E+02
              0.232830979715122E+02
              0.859277123247094E+01
              0.585536811472718E+01
             -0.837101456295142E+01
             -0.907271466531154E+01
              0.481522945063550E+02
              0.200924297068150E+01
             -0.477308601946467E+02
             -0.177010462423119E+02
              0.277483779285301E+02
             -0.118420305067849E+03
             -0.933500548826784E+02
              0.396489502439653E+01
              0.118285918012595E+02
             -0.415304880370169E+02
             -0.389311564354267E+01
              0.112541965210050E+03
              0.307744089476753E+02
             -0.573848079133796E+02
              0.928690290152292E+01
             -0.968793194400581E+01
              0.106222067364782E+02
             -0.339195411936863E+02
              0.196365544952719E+02
              0.285656478599317E+02
             -0.302106429943262E+01
              0.108645175816853E+03
             -0.140527609117303E+02
             -0.317295258181186E+02
              0.144171700823155E+02
              0.468384020956508E+02
             -0.357241152763513E+02
             -0.318276337683753E+01
              0.968902510733762E+02
             -0.465189446742193E+01
              0.623939239079746E+02
              0.136134104484449E+02
             -0.904327094301341E+01
             -0.306117589008380E+02
              0.568648993595509E+02
             -0.516668541258903E+02
             -0.221670841304524E+01
             -0.170835023540376E+02
             -0.406929334135830E+02
              0.185539535268056E+02
              0.240342454719287E+02
              0.116189367615491E+02
              0.714527346715840E+00
             -0.386250499302663E+02
              0.216026555579067E+02
             -0.675191081897995E+01
             -0.247388264004135E+02
             -0.211466436845066E+02
              0.203960262590716E+02
             -0.598735367465520E+01
             -0.350769427033455E+02
             -0.107091239558598E+03
              0.103254401174673E+02
              0.249422848020070E+02
             -0.389237214424188E+02
             -0.211923752648435E+02
              0.810529980213918E+02
              0.656491323147054E+01
              0.312567808252580E+02
              0.395200426154940E+01
              0.323458809336002E+02
              0.647891252326195E+01
             -0.374598213656838E+02
             -0.236923382536747E+01
              0.878953941087542E+01
              0.275151640146277E+02
              0.785068954345068E+02
              0.509484876786025E+02
              0.195608836915255E+00
              0.169773805102059E+02
              0.615745649000140E+02
              0.237080283745245E+02
             -0.755802554849816E+02
             -0.274922214774103E+02
              0.151570806087582E+02
              0.565744734760443E+01
              0.256075445241058E+02
             -0.549962706471230E+02
              0.901496500129170E+01
              0.387738414135198E+02
              0.500064719535364E+02
             -0.436680953036441E+02
             -0.689843959258712E+01
             -0.209428747692380E+01
             -0.134599754785932E+02
             -0.366699914684635E+02
             -0.215865853352078E+02
             -0.207281435067286E+01
              0.797616371472827E+01
              0.423151401829428E+02
             -0.309660418947659E+02
              0.829576318839962E+02
              0.328960465571525E+02
              0.220915631312770E+02
              0.334624425163482E+02
              0.324246139693676E+02
              0.347680463164545E+02
              0.539458316357131E+02
             -0.435844468913119E+02
              0.622261779020936E+02
             -0.112751492269184E+03
              0.308651084260450E+02
             -0.106970991747465E+03
              0.858084342894709E+02
              0.693903917700972E+02
             -0.110249752778163E+02
             -0.495201273335086E+02
             -0.431340456416713E+02
             -0.625876991075336E+02
             -0.631464070020513E+02
              0.554207463802052E+02
              0.407243181232250E+02
              0.237822851880726E+02
              0.374992399786620E+02
              0.405019981509765E+02
             -0.383797550592102E+02
             -0.198508763725135E+02
              0.588857000489685E+02
             -0.116584673437375E+02
              0.553947293037454E+02
              0.702608511804556E+02
             -0.556321118077493E+01
             -0.709418050767376E+02
             -0.871502848958585E+00
             -0.246638091192985E+01
             -0.886921565498994E+01
             -0.179617027625176E+01
             -0.655649513365787E+02
             -0.211167190151469E+02
              0.544580062418709E+01
              0.905143961374165E+01
              0.471000750723533E+02
             -0.399495588238003E+02
              0.659685343858129E+02
             -0.426969646128675E+02
              0.211510881565096E+02
              0.352093425849515E+02
 
 BEEF-vdW xc energy contributions
           1 :   -785.985705384537     
           2 :    721.873411780553     
           3 :   -610.951083410909     
           4 :    480.469356052914     
           5 :   -358.023923285643     
           6 :    263.462270127230     
           7 :   -204.427339332741     
           8 :    176.363809499016     
           9 :   -166.556706839027     
          10 :    160.301842285589     
          11 :   -146.703661923718     
          12 :    121.925867953096     
          13 :   -89.0463366975752     
          14 :    55.1375288370376     
          15 :   -27.2601358048803     
          16 :    9.18233859413328     
          17 :  -8.917014548217139E-002
          18 :   -4.45342435226894     
          19 :    9.98996211640190     
          20 :   -20.4450335242271     
          21 :    36.4258169708486     
          22 :   -55.2307076109687     
          23 :    72.3906674910173     
          24 :   -83.9022158203537     
          25 :    88.0566627333809     
          26 :   -86.0547383419282     
          27 :    81.2187344316895     
          28 :   -77.2840449769690     
          29 :    76.6278862668487     
          30 :   -79.2722178068192     
          31 :   -86.2200116626562     
          32 :   -66.0330663977380     

     Writing output data file ./pwscf.save/
 
     init_run     :    354.81s CPU    359.49s WALL (       1 calls)
     electrons    :  14490.38s CPU  14622.06s WALL (       1 calls)
     forces       :    105.13s CPU    106.43s WALL (       1 calls)

     Called by init_run:
     wfcinit      :    306.81s CPU    310.40s WALL (       1 calls)
     potinit      :     44.46s CPU     44.81s WALL (       1 calls)
     hinit0       :      1.50s CPU      1.55s WALL (       1 calls)

     Called by electrons:
     c_bands      :  12114.16s CPU  12215.06s WALL (      20 calls)
     sum_band     :   1682.56s CPU   1696.47s WALL (      20 calls)
     v_of_rho     :    109.73s CPU    113.90s WALL (      20 calls)
     newd         :     33.47s CPU     46.31s WALL (      20 calls)
     PAW_pot      :    133.71s CPU    133.73s WALL (      20 calls)
     mix_rho      :    462.00s CPU    462.82s WALL (      20 calls)
     vdW_kernel   :     33.46s CPU     33.46s WALL (       1 calls)

     Called by c_bands:
     init_us_2    :     81.29s CPU     81.50s WALL (     546 calls)
     cegterg      :  11287.40s CPU  11388.00s WALL (     260 calls)

     Called by *egterg:
     cdiaghg      :    112.02s CPU    112.06s WALL (    1726 calls)
     h_psi        :   7282.91s CPU   7318.06s WALL (    1752 calls)
     s_psi        :   1178.70s CPU   1178.83s WALL (    1752 calls)
     g_psi        :     17.42s CPU     17.44s WALL (    1479 calls)

     Called by h_psi:
     h_psi:calbec :   1100.54s CPU   1100.73s WALL (    1752 calls)
     vloc_psi     :   4976.59s CPU   4978.46s WALL (    1752 calls)
     add_vuspsi   :   1177.88s CPU   1178.04s WALL (    1752 calls)

     General routines
     calbec       :   1597.86s CPU   1598.10s WALL (    2064 calls)
     fft          :     51.73s CPU     51.76s WALL (    3220 calls)
     ffts         :    149.49s CPU    149.54s WALL (    9724 calls)
     fftw         :   5040.90s CPU   5042.28s WALL (  343030 calls)
 
     Parallel routines
 
     PWSCF        :      4h11m CPU      4h13m WALL

 
   This run was terminated on:  21:11: 8  20May2022            

=------------------------------------------------------------------------------=
   JOB DONE.
=------------------------------------------------------------------------------=
