
     Program PWSCF v.6.7MaX starts on 26Sep2022 at 14: 6: 8 

     This program is part of the open-source Quantum ESPRESSO suite
     for quantum simulation of materials; please cite
         "P. Giannozzi et al., J. Phys.:Condens. Matter 21 395502 (2009);
         "P. Giannozzi et al., J. Phys.:Condens. Matter 29 465901 (2017);
          URL http://www.quantum-espresso.org", 
     in publications or presentations arising from this work. More details at
     http://www.quantum-espresso.org/quote

     Parallel version (MPI), running on     1 processors

     MPI processes distributed on     1 nodes
     Reading input from ch3ch3-ensemble.in
Warning: card &CELL ignored
Warning: card / ignored

     Current dimensions of program PWSCF are:
     Max number of different atomic species (ntypx) = 10
     Max number of k-points (npk) =  40000
     Max angular momentum in pseudopotentials (lmaxx) =  3
     file Pt.pbe-n-kjpaw_psl.1.0.0.UPF: wavefunction(s)  6S 5D renormalized
     file C.pbe-n-kjpaw_psl.1.0.0.UPF: wavefunction(s)  2S 2P renormalized
     file H.pbe-kjpaw_psl.1.0.0.UPF: wavefunction(s)  1S renormalized

     **************************************************************************
     Initializing libbeef V0.1.2 with the BEEF-vdW functional.
     Citation: Wellendorff et al., PRB 85, 235149 (2012).
     **************************************************************************


     IMPORTANT: XC functional enforced from input :
     Exchange-correlation= BEEF-VDW
                           (   1   4  43  14   2   0   0)
     Any further DFT definition will be discarded
     Please, verify this is what you really want


     Subspace diagonalization in iterative solution of the eigenvalue problem:
     a serial algorithm will be used

 
     G-vector sticks info
     --------------------
     sticks:   dense  smooth     PW     G-vecs:    dense   smooth      PW
     Sum        4267    4267   1159               760053   760053  107125
 


     bravais-lattice index     =            0
     lattice parameter (alat)  =      16.0349  a.u.
     unit-cell volume          =   12096.8992 (a.u.)^3
     number of atoms/cell      =           44
     number of atomic types    =            3
     number of electrons       =       374.00
     number of Kohn-Sham states=          224
     kinetic-energy cutoff     =      60.0000  Ry
     charge density cutoff     =     240.0000  Ry
     scf convergence threshold =      1.0E-06
     mixing beta               =       0.7000
     number of iterations used =            8  local-TF  mixing
     Exchange-correlation= BEEF-VDW
                           (   1   4  43  14   2   0   0)

     celldm(1)=  16.034858  celldm(2)=   0.000000  celldm(3)=   0.000000
     celldm(4)=   0.000000  celldm(5)=   0.000000  celldm(6)=   0.000000

     crystal axes: (cart. coord. in units of alat)
               a(1) = (   1.000000   0.000000   0.000000 )  
               a(2) = (   0.500000   0.866025   0.000000 )  
               a(3) = (   0.000000   0.000000   3.388037 )  

     reciprocal axes: (cart. coord. in units 2 pi/alat)
               b(1) = (  1.000000 -0.577350  0.000000 )  
               b(2) = (  0.000000  1.154701  0.000000 )  
               b(3) = (  0.000000  0.000000  0.295156 )  


     PseudoPot. # 1 for Pt read from file:
     /users/bkreitz1/quantum-espresso/potentials/Pt.pbe-n-kjpaw_psl.1.0.0.UPF
     MD5 check sum: 04dc8a03c51ece93fc7b5889c2958091
     Pseudo is Projector augmented-wave + core cor, Zval = 10.0
     Generated using 'atomic' code by A. Dal Corso  v.6.7MaX
     Shape of augmentation charge: PSQ
     Using radial grid of 1277 points,  6 beta functions with: 
                l(1) =   0
                l(2) =   0
                l(3) =   1
                l(4) =   1
                l(5) =   2
                l(6) =   2
     Q(r) pseudized with 0 coefficients 


     PseudoPot. # 2 for C  read from file:
     /users/bkreitz1/quantum-espresso/potentials/C.pbe-n-kjpaw_psl.1.0.0.UPF
     MD5 check sum: a169b0ebad56f5ec0d79c4633f80bf22
     Pseudo is Projector augmented-wave + core cor, Zval =  4.0
     Generated using 'atomic' code by A. Dal Corso  v.6.7MaX
     Shape of augmentation charge: PSQ
     Using radial grid of 1073 points,  4 beta functions with: 
                l(1) =   0
                l(2) =   0
                l(3) =   1
                l(4) =   1
     Q(r) pseudized with 0 coefficients 


     PseudoPot. # 3 for H  read from file:
     /users/bkreitz1/quantum-espresso/potentials/H.pbe-kjpaw_psl.1.0.0.UPF
     MD5 check sum: ae98473e6dc62675f0d0baffdab24f65
     Pseudo is Projector augmented-wave, Zval =  1.0
     Generated using 'atomic' code by A. Dal Corso  v.6.7MaX
     Shape of augmentation charge: PSQ
     Using radial grid of  929 points,  2 beta functions with: 
                l(1) =   0
                l(2) =   0
     Q(r) pseudized with 0 coefficients 


     atomic species   valence    mass     pseudopotential
        Pt            10.00   195.08400     Pt( 1.00)
        C              4.00    12.01100     C ( 1.00)
        H              1.00     1.00800     H ( 1.00)

     No symmetry found



   Cartesian axes

     site n.     atom                  positions (alat units)
         1           Pt  tau(   1) = (   0.0000000   0.0000000   1.0017346  )
         2           Pt  tau(   2) = (   0.3333333   0.0000000   1.0017346  )
         3           Pt  tau(   3) = (   0.6666667   0.0000000   1.0017346  )
         4           Pt  tau(   4) = (   0.1666667   0.2886751   1.0017346  )
         5           Pt  tau(   5) = (   0.5000000   0.2886751   1.0017346  )
         6           Pt  tau(   6) = (   0.8333333   0.2886751   1.0017346  )
         7           Pt  tau(   7) = (   0.3333333   0.5773503   1.0017346  )
         8           Pt  tau(   8) = (   0.6666667   0.5773503   1.0017346  )
         9           Pt  tau(   9) = (   1.0000000   0.5773503   1.0017346  )
        10           Pt  tau(  10) = (   0.1666667   0.0962250   1.2739001  )
        11           Pt  tau(  11) = (   0.5000000   0.0962250   1.2739001  )
        12           Pt  tau(  12) = (   0.8333333   0.0962250   1.2739001  )
        13           Pt  tau(  13) = (   0.3333333   0.3849002   1.2739001  )
        14           Pt  tau(  14) = (   0.6666667   0.3849002   1.2739001  )
        15           Pt  tau(  15) = (   1.0000000   0.3849002   1.2739001  )
        16           Pt  tau(  16) = (   0.5000000   0.6735753   1.2739001  )
        17           Pt  tau(  17) = (   0.8333333   0.6735753   1.2739001  )
        18           Pt  tau(  18) = (   1.1666667   0.6735753   1.2739001  )
        19           Pt  tau(  19) = (  -0.0000158   0.1924531   1.5424793  )
        20           Pt  tau(  20) = (   0.3333256   0.1924493   1.5425005  )
        21           Pt  tau(  21) = (   0.6666863   0.1924584   1.5424851  )
        22           Pt  tau(  22) = (   0.1666458   0.4811267   1.5424821  )
        23           Pt  tau(  23) = (   0.5000178   0.4811318   1.5424886  )
        24           Pt  tau(  24) = (   0.8333341   0.4811212   1.5424593  )
        25           Pt  tau(  25) = (   0.3333348   0.7697963   1.5424872  )
        26           Pt  tau(  26) = (   0.6666577   0.7697770   1.5424892  )
        27           Pt  tau(  27) = (   1.0000007   0.7697722   1.5424927  )
        28           Pt  tau(  28) = (  -0.0000026  -0.0000095   1.8162950  )
        29           Pt  tau(  29) = (   0.3333206  -0.0000440   1.8162869  )
        30           Pt  tau(  30) = (   0.6666775  -0.0000187   1.8162973  )
        31           Pt  tau(  31) = (   0.1666327   0.2886860   1.8162753  )
        32           Pt  tau(  32) = (   0.5000324   0.2887017   1.8162716  )
        33           Pt  tau(  33) = (   0.8333396   0.2886818   1.8162887  )
        34           Pt  tau(  34) = (   0.3333354   0.5773608   1.8162918  )
        35           Pt  tau(  35) = (   0.6666757   0.5773450   1.8162918  )
        36           Pt  tau(  36) = (   0.9999884   0.5773364   1.8162798  )
        37           C   tau(  37) = (   0.2929074   0.2298467   2.2750598  )
        38           C   tau(  38) = (   0.4729779   0.2369153   2.2704391  )
        39           H   tau(  39) = (   0.2465437   0.1562627   2.1798694  )
        40           H   tau(  40) = (   0.2410589   0.3470840   2.2623451  )
        41           H   tau(  41) = (   0.2509686   0.1802141   2.3862986  )
        42           H   tau(  42) = (   0.5248813   0.1191879   2.2782723  )
        43           H   tau(  43) = (   0.5148784   0.2903128   2.1607074  )
        44           H   tau(  44) = (   0.5196139   0.3071339   2.3689822  )

     number of k points=    13  Marzari-Vanderbilt smearing, width (Ry)=  0.0200
                       cart. coord. in units 2pi/alat
        k(    1) = (   0.0000000   0.0000000   0.0000000), wk =   0.0800000
        k(    2) = (   0.0000000   0.2309401   0.0000000), wk =   0.1600000
        k(    3) = (   0.0000000   0.4618802   0.0000000), wk =   0.1600000
        k(    4) = (   0.2000000  -0.1154701   0.0000000), wk =   0.1600000
        k(    5) = (   0.2000000   0.1154701   0.0000000), wk =   0.1600000
        k(    6) = (   0.2000000   0.3464102   0.0000000), wk =   0.1600000
        k(    7) = (   0.2000000  -0.5773503   0.0000000), wk =   0.1600000
        k(    8) = (   0.2000000  -0.3464102   0.0000000), wk =   0.1600000
        k(    9) = (   0.4000000  -0.2309401   0.0000000), wk =   0.1600000
        k(   10) = (   0.4000000  -0.0000000   0.0000000), wk =   0.1600000
        k(   11) = (   0.4000000   0.2309401   0.0000000), wk =   0.1600000
        k(   12) = (   0.4000000  -0.6928203   0.0000000), wk =   0.1600000
        k(   13) = (   0.4000000  -0.4618802   0.0000000), wk =   0.1600000

     Dense  grid:   760053 G-vectors     FFT dimensions: (  80,  80, 270)

     Estimated max dynamical RAM per process >       9.18 GB

     Check: negative core charge=   -0.000002

     Initial potential from superposition of free atoms

     starting charge  373.99375, renormalised to  374.00000

     negative rho (up, down):  1.095E-02 0.000E+00


     %%%%%%%%%%%%%%%%%%%%%%%%%%%%%%%%%%%%%%%%%%%%%%%%%%%%%%%%%%%%%%%%%%%%%%%%
     %                                                                      %
     % You are using vdW-DF, which was implemented by the Thonhauser group. %
     % Please cite the following two papers that made this development      %
     % possible and the two reviews that describe the various versions:     %
     %                                                                      %
     %   T. Thonhauser et al., PRL 115, 136402 (2015).                      %
     %   T. Thonhauser et al., PRB 76, 125112 (2007).                       %
     %   K. Berland et al., Rep. Prog. Phys. 78, 066501 (2015).             %
     %   D.C. Langreth et al., J. Phys.: Condens. Matter 21, 084203 (2009). %
     %                                                                      %
     %                                                                      %
     % If you are calculating the stress with vdW-DF, please also cite:     %
     %                                                                      %
     %   R. Sabatini et al., J. Phys.: Condens. Matter 24, 424209 (2012).   %
     %                                                                      %
     %%%%%%%%%%%%%%%%%%%%%%%%%%%%%%%%%%%%%%%%%%%%%%%%%%%%%%%%%%%%%%%%%%%%%%%%


     Starting wfcs are  338 randomized atomic wfcs
     Checking if some PAW data can be deallocated... 

     total cpu time spent up to now is      357.1 secs

     Self-consistent Calculation

     iteration #  1     ecut=    60.00 Ry     beta= 0.70
     Davidson diagonalization with overlap
     ethr =  1.00E-02,  avg # of iterations =  2.9

     Threshold (ethr) on eigenvalues was too large:
     Diagonalizing with lowered threshold

     Davidson diagonalization with overlap
     ethr =  6.44E-04,  avg # of iterations =  3.2

     negative rho (up, down):  1.043E-02 0.000E+00

     total cpu time spent up to now is     1771.2 secs

     total energy              =  -27799.53691088 Ry
     estimated scf accuracy    <       2.61221916 Ry

     iteration #  2     ecut=    60.00 Ry     beta= 0.70
     Davidson diagonalization with overlap
     ethr =  6.98E-04,  avg # of iterations =  2.6

     negative rho (up, down):  8.922E-03 0.000E+00

     total cpu time spent up to now is     2397.7 secs

     total energy              =  -27799.59852059 Ry
     estimated scf accuracy    <       1.12799389 Ry

     iteration #  3     ecut=    60.00 Ry     beta= 0.70
     Davidson diagonalization with overlap
     ethr =  3.02E-04,  avg # of iterations =  5.2

     negative rho (up, down):  4.988E-03 0.000E+00

     total cpu time spent up to now is     3063.4 secs

     total energy              =  -27799.59843566 Ry
     estimated scf accuracy    <       0.37127907 Ry

     iteration #  4     ecut=    60.00 Ry     beta= 0.70
     Davidson diagonalization with overlap
     c_bands:  1 eigenvalues not converged
     ethr =  9.93E-05,  avg # of iterations = 11.0

     negative rho (up, down):  2.973E-03 0.000E+00

     total cpu time spent up to now is     3918.3 secs

     total energy              =  -27799.65683546 Ry
     estimated scf accuracy    <       0.09613594 Ry

     iteration #  5     ecut=    60.00 Ry     beta= 0.70
     Davidson diagonalization with overlap
     ethr =  2.57E-05,  avg # of iterations =  9.2

     negative rho (up, down):  2.062E-03 0.000E+00

     total cpu time spent up to now is     4730.6 secs

     total energy              =  -27799.66354236 Ry
     estimated scf accuracy    <       0.04928558 Ry

     iteration #  6     ecut=    60.00 Ry     beta= 0.70
     Davidson diagonalization with overlap
     ethr =  1.32E-05,  avg # of iterations =  9.1

     negative rho (up, down):  2.000E-03 0.000E+00

     total cpu time spent up to now is     5444.6 secs

     total energy              =  -27799.66326289 Ry
     estimated scf accuracy    <       0.08880903 Ry

     iteration #  7     ecut=    60.00 Ry     beta= 0.70
     Davidson diagonalization with overlap
     ethr =  1.32E-05,  avg # of iterations =  7.6

     negative rho (up, down):  8.203E-03 0.000E+00

     total cpu time spent up to now is     6142.6 secs

     total energy              =  -27799.66087915 Ry
     estimated scf accuracy    <       0.04154102 Ry

     iteration #  8     ecut=    60.00 Ry     beta= 0.70
     Davidson diagonalization with overlap
     ethr =  1.11E-05,  avg # of iterations =  7.4

     negative rho (up, down):  4.406E-02 0.000E+00

     total cpu time spent up to now is     6825.8 secs

     total energy              =  -27799.66097908 Ry
     estimated scf accuracy    <       0.04453532 Ry

     iteration #  9     ecut=    60.00 Ry     beta= 0.70
     Davidson diagonalization with overlap
     ethr =  1.11E-05,  avg # of iterations =  5.9

     negative rho (up, down):  5.108E-02 0.000E+00

     total cpu time spent up to now is     7499.7 secs

     total energy              =  -27799.66140802 Ry
     estimated scf accuracy    <       0.01011702 Ry

     iteration # 10     ecut=    60.00 Ry     beta= 0.70
     Davidson diagonalization with overlap
     ethr =  2.71E-06,  avg # of iterations =  9.2

     negative rho (up, down):  4.967E-02 0.000E+00

     total cpu time spent up to now is     8211.9 secs

     total energy              =  -27799.66120614 Ry
     estimated scf accuracy    <       0.00549155 Ry

     iteration # 11     ecut=    60.00 Ry     beta= 0.70
     Davidson diagonalization with overlap
     c_bands:  1 eigenvalues not converged
     c_bands:  1 eigenvalues not converged
     c_bands:  1 eigenvalues not converged
     ethr =  1.47E-06,  avg # of iterations =  9.4

     negative rho (up, down):  3.885E-02 0.000E+00

     total cpu time spent up to now is     8905.7 secs

     total energy              =  -27799.66035154 Ry
     estimated scf accuracy    <       0.00344252 Ry

     iteration # 12     ecut=    60.00 Ry     beta= 0.70
     Davidson diagonalization with overlap
     c_bands:  1 eigenvalues not converged
     ethr =  9.20E-07,  avg # of iterations = 10.2

     negative rho (up, down):  3.680E-02 0.000E+00

     total cpu time spent up to now is     9623.5 secs

     total energy              =  -27799.66020177 Ry
     estimated scf accuracy    <       0.00164212 Ry

     iteration # 13     ecut=    60.00 Ry     beta= 0.70
     Davidson diagonalization with overlap
     c_bands:  2 eigenvalues not converged
     ethr =  4.39E-07,  avg # of iterations =  7.2

     negative rho (up, down):  3.288E-02 0.000E+00

     total cpu time spent up to now is    10301.4 secs

     total energy              =  -27799.66000197 Ry
     estimated scf accuracy    <       0.00070103 Ry

     iteration # 14     ecut=    60.00 Ry     beta= 0.70
     Davidson diagonalization with overlap
     c_bands:  2 eigenvalues not converged
     ethr =  1.87E-07,  avg # of iterations =  7.8

     negative rho (up, down):  2.908E-02 0.000E+00

     total cpu time spent up to now is    11003.4 secs

     total energy              =  -27799.65987445 Ry
     estimated scf accuracy    <       0.00032276 Ry

     iteration # 15     ecut=    60.00 Ry     beta= 0.70
     Davidson diagonalization with overlap
     ethr =  8.63E-08,  avg # of iterations =  6.0

     negative rho (up, down):  2.460E-02 0.000E+00

     total cpu time spent up to now is    11682.1 secs

     total energy              =  -27799.65976519 Ry
     estimated scf accuracy    <       0.00029871 Ry

     iteration # 16     ecut=    60.00 Ry     beta= 0.70
     Davidson diagonalization with overlap
     ethr =  7.99E-08,  avg # of iterations =  5.8

     negative rho (up, down):  2.251E-02 0.000E+00

     total cpu time spent up to now is    12332.5 secs

     total energy              =  -27799.65971898 Ry
     estimated scf accuracy    <       0.00024525 Ry

     iteration # 17     ecut=    60.00 Ry     beta= 0.70
     Davidson diagonalization with overlap
     ethr =  6.56E-08,  avg # of iterations =  1.3

     negative rho (up, down):  1.837E-02 0.000E+00

     total cpu time spent up to now is    12914.9 secs

     total energy              =  -27799.65964609 Ry
     estimated scf accuracy    <       0.00016182 Ry

     iteration # 18     ecut=    60.00 Ry     beta= 0.70
     Davidson diagonalization with overlap
     ethr =  4.33E-08,  avg # of iterations =  6.1

     negative rho (up, down):  1.549E-02 0.000E+00

     total cpu time spent up to now is    13578.0 secs

     total energy              =  -27799.65961521 Ry
     estimated scf accuracy    <       0.00010779 Ry

     iteration # 19     ecut=    60.00 Ry     beta= 0.70
     Davidson diagonalization with overlap
     ethr =  2.88E-08,  avg # of iterations =  2.5

     negative rho (up, down):  1.371E-02 0.000E+00

     total cpu time spent up to now is    14191.1 secs

     total energy              =  -27799.65960235 Ry
     estimated scf accuracy    <       0.00005444 Ry

     iteration # 20     ecut=    60.00 Ry     beta= 0.70
     Davidson diagonalization with overlap
     ethr =  1.46E-08,  avg # of iterations =  3.3

     negative rho (up, down):  1.301E-02 0.000E+00

     total cpu time spent up to now is    14828.0 secs

     total energy              =  -27799.65960583 Ry
     estimated scf accuracy    <       0.00001209 Ry

     iteration # 21     ecut=    60.00 Ry     beta= 0.70
     Davidson diagonalization with overlap
     ethr =  3.23E-09,  avg # of iterations =  4.0

     negative rho (up, down):  1.259E-02 0.000E+00

     total cpu time spent up to now is    15595.6 secs

     total energy              =  -27799.65960854 Ry
     estimated scf accuracy    <       0.00000656 Ry

     iteration # 22     ecut=    60.00 Ry     beta= 0.70
     Davidson diagonalization with overlap
     ethr =  1.75E-09,  avg # of iterations =  2.0

     negative rho (up, down):  1.246E-02 0.000E+00

     total cpu time spent up to now is    16250.1 secs

     total energy              =  -27799.65960945 Ry
     estimated scf accuracy    <       0.00000158 Ry

     iteration # 23     ecut=    60.00 Ry     beta= 0.70
     Davidson diagonalization with overlap
     ethr =  4.21E-10,  avg # of iterations =  4.3

     negative rho (up, down):  1.250E-02 0.000E+00

     total cpu time spent up to now is    16995.3 secs

     End of self-consistent calculation

          k = 0.0000 0.0000 0.0000 ( 95005 PWs)   bands (ev):

   -11.8842  -8.4024  -7.5490  -6.2371  -5.1602  -5.1270  -5.1266  -5.1265
    -5.1263  -5.1262  -5.1261  -5.1134  -4.5688  -4.5679  -4.5678  -4.5676
    -4.5675  -4.5675  -4.0958  -4.0935  -4.0932  -4.0930  -4.0928  -4.0928
    -3.9062  -3.8812  -3.8771  -3.8767  -3.8766  -3.8766  -3.8104  -3.7959
    -3.6514  -3.6512  -3.6455  -3.6453  -3.6288  -3.6285  -3.6285  -3.6282
    -3.6275  -3.6254  -3.6145  -3.6142  -3.0320  -3.0319  -3.0024  -3.0024
    -2.9438  -2.9434  -2.9433  -2.9428  -2.9427  -2.9416  -2.8059  -2.8056
    -2.7056  -2.7042  -2.1963  -2.1950  -2.1941  -2.1935  -2.1934  -2.1932
    -2.1380  -2.1280  -2.0413  -2.0413  -2.0087  -2.0085  -1.9970  -1.9969
    -1.9803  -1.9777  -1.9764  -1.9754  -1.9753  -1.9751  -1.9719  -1.9399
    -1.9398  -1.7905  -1.7795  -1.7794  -1.7790  -1.7790  -1.7784  -1.6286
    -1.6286  -1.6285  -1.6283  -1.6282  -1.6279  -1.5545  -1.5281  -1.5281
    -1.5153  -1.4298  -1.4298  -1.3648  -1.3646  -1.3549  -1.3511  -1.3182
    -1.3177  -1.3063  -1.3011  -1.1537  -1.1532  -1.1525  -1.1518  -1.1499
    -1.1349  -1.1274  -0.6608  -0.6607  -0.6600  -0.6597  -0.6596  -0.6594
    -0.5846  -0.5837  -0.5827  -0.5826  -0.5817  -0.5812  -0.5111  -0.5109
    -0.3389  -0.3380  -0.3370  -0.3368  -0.3341  -0.3316  -0.1952  -0.1950
    -0.1928  -0.1927  -0.1839  -0.1838   0.0712   0.0714   0.0719   0.0724
     0.0724   0.0725   0.1515   0.1516   0.3351   0.3356   0.3357   0.3359
     0.3370   0.3391   0.5056   0.5059   0.5060   0.5060   0.5062   0.5062
     0.5521   0.5529   0.5531   0.5534   0.5569   0.5615   0.6832   0.6840
     0.7028   0.7028   0.7036   0.7038   0.7040   0.7042   0.8093   0.8095
     0.8103   0.8103   0.8105   0.8106   0.8158   0.8158   0.9130   0.9130
     0.9135   0.9137   0.9139   0.9139   1.0173   1.0177   1.0241   1.0243
     1.0256   1.0259   1.1192   1.2425   1.2426   1.3509   1.3511   1.3516
     1.3518   1.3519   1.3520   2.2054   2.2423   2.2436   2.2445   2.2446
     2.2553   2.2629   4.5716   4.5750   4.5756   4.5767   4.5906   4.5918
     5.8011   6.1059   6.1068   6.1629   6.1632   6.1636   6.1638   6.2268

          k = 0.0000 0.2309 0.0000 ( 94910 PWs)   bands (ev):

   -11.8842  -8.4025  -7.4020  -6.0922  -5.6424  -5.2427  -5.2426  -5.0126
    -4.9777  -4.9359  -4.8921  -4.8920  -4.6834  -4.6635  -4.5069  -4.5068
    -4.4869  -4.4863  -4.2102  -4.0751  -4.0748  -4.0473  -4.0365  -3.9783
    -3.9765  -3.9109  -3.9071  -3.9070  -3.9056  -3.8422  -3.8164  -3.8004
    -3.7994  -3.7955  -3.6760  -3.6756  -3.6665  -3.6141  -3.6128  -3.4588
    -3.4587  -3.4223  -3.4217  -3.3945  -3.1573  -3.1571  -3.1137  -3.0703
    -3.0701  -3.0249  -3.0242  -2.8480  -2.8473  -2.7800  -2.7796  -2.7346
    -2.7018  -2.7010  -2.4974  -2.4014  -2.4005  -2.3149  -2.3133  -2.2738
    -2.2367  -2.1980  -2.1961  -2.1798  -2.1563  -2.1551  -2.1299  -2.1097
    -2.0342  -2.0194  -2.0047  -2.0042  -1.9361  -1.9123  -1.9117  -1.8601
    -1.8488  -1.8443  -1.7751  -1.7456  -1.7254  -1.7222  -1.7214  -1.6398
    -1.6290  -1.6224  -1.6191  -1.6050  -1.5566  -1.5353  -1.5273  -1.5102
    -1.5052  -1.4985  -1.4364  -1.4353  -1.4333  -1.3816  -1.3793  -1.3428
    -1.3421  -1.3292  -1.2290  -1.1569  -1.1525  -1.1498  -1.1452  -1.1356
    -1.1128  -1.1118  -1.1094  -1.0557  -1.0484  -1.0290  -1.0278  -0.8266
    -0.7483  -0.6893  -0.6396  -0.6390  -0.6270  -0.6266  -0.6025  -0.6020
    -0.4422  -0.4276  -0.4272  -0.3246  -0.2814  -0.2793  -0.2731  -0.2617
    -0.1597  -0.1595  -0.1468  -0.1462  -0.0643  -0.0534  -0.0532  -0.0224
    -0.0222   0.1665   0.1864   0.2023   0.2026   0.2049   0.2285   0.2386
     0.3257   0.3300   0.3524   0.3800   0.3974   0.4465   0.4467   0.4475
     0.4480   0.5635   0.5649   0.5931   0.5938   0.6846   0.7403   0.7407
     0.7489   0.7495   0.7714   0.8121   0.8158   0.8793   0.8797   0.9394
     0.9399   0.9459   0.9953   0.9957   0.9958   1.0006   1.0007   1.0072
     1.0765   1.0767   1.2375   1.2376   1.2495   1.2645   1.2751   1.2752
     1.3136   1.3534   1.3537   1.3700   1.4687   1.4689   1.4937   1.6520
     1.6566   1.6567   1.6955   1.7321   2.1152   2.1197   2.8318   2.8356
     2.8770   2.9873   3.8491   4.3053   4.3119   4.9741   4.9743   5.1379
     5.1432   5.4031   5.9076   5.9562   5.9571   6.1982   6.3371   6.3422

          k = 0.0000 0.4619 0.0000 ( 94928 PWs)   bands (ev):

   -11.8841  -8.4025  -6.9788  -6.3436  -5.6858  -5.2767  -5.2765  -5.1304
    -4.9097  -4.7549  -4.6239  -4.5864  -4.5509  -4.5508  -4.3672  -4.3660
    -4.3360  -4.3271  -4.3270  -4.2042  -4.1691  -4.1690  -4.1167  -4.1164
    -4.0515  -4.0304  -3.9788  -3.9785  -3.9424  -3.8315  -3.7998  -3.7049
    -3.7047  -3.6865  -3.6858  -3.6855  -3.6837  -3.4605  -3.4587  -3.3985
    -3.3979  -3.3884  -3.3882  -3.2063  -3.1029  -3.1025  -3.0934  -3.0931
    -3.0267  -3.0262  -2.9781  -2.9629  -2.9619  -2.8822  -2.8819  -2.7544
    -2.7541  -2.7007  -2.7003  -2.6059  -2.5689  -2.5244  -2.5234  -2.5223
    -2.3820  -2.3049  -2.2925  -2.2804  -2.2793  -2.1919  -2.1905  -2.1671
    -2.1316  -2.0563  -2.0549  -2.0344  -2.0322  -1.9141  -1.9110  -1.9107
    -1.9095  -1.9049  -1.8304  -1.8164  -1.8152  -1.8122  -1.7885  -1.7814
    -1.7807  -1.7639  -1.7228  -1.6596  -1.6456  -1.6382  -1.6311  -1.5933
    -1.5880  -1.5655  -1.5349  -1.4990  -1.4865  -1.4165  -1.3819  -1.3793
    -1.3397  -1.3336  -1.3069  -1.3001  -1.2942  -1.1717  -1.1687  -1.1510
    -1.0884  -1.0864  -1.0404  -0.9024  -0.9012  -0.8702  -0.8207  -0.7320
    -0.7316  -0.7198  -0.6993  -0.6969  -0.6944  -0.6929  -0.6038  -0.5980
    -0.5672  -0.5666  -0.5428  -0.5426  -0.5216  -0.5168  -0.4757  -0.4618
    -0.3612  -0.3250  -0.3249  -0.2555  -0.1935  -0.1641  -0.1639  -0.0244
    -0.0241   0.0371   0.0865   0.1409   0.1415   0.1709   0.1921   0.2309
     0.2311   0.2888   0.2909   0.3385   0.3386   0.4020   0.4459   0.4466
     0.5007   0.5012   0.5131   0.5133   0.5959   0.6983   0.7015   0.7823
     0.7951   0.7956   0.8014   0.8852   0.9031   0.9035   1.0012   1.0023
     1.0084   1.0095   1.0780   1.1017   1.1019   1.1127   1.2350   1.2353
     1.2594   1.2596   1.2673   1.2683   1.2855   1.2898   1.4604   1.5035
     1.5036   1.5108   1.5111   1.7005   1.7360   2.1232   2.1278   2.1815
     2.4306   2.5499   2.5501   2.9527   2.9529   3.1522   3.2879   3.7622
     3.7623   3.7890   3.9502   4.0425   4.0435   4.2011   4.2079   4.4357
     4.4360   5.0659   5.0871   5.6008   5.6018   6.0900   6.0977   6.2518

          k = 0.2000-0.1155 0.0000 ( 94910 PWs)   bands (ev):

   -11.8841  -8.4026  -7.4020  -6.0922  -5.6424  -5.2427  -5.2426  -5.0125
    -4.9777  -4.9359  -4.8922  -4.8920  -4.6832  -4.6635  -4.5069  -4.5068
    -4.4870  -4.4863  -4.2101  -4.0751  -4.0749  -4.0467  -4.0360  -3.9788
    -3.9769  -3.9119  -3.9071  -3.9069  -3.9060  -3.8398  -3.8147  -3.8028
    -3.7994  -3.7970  -3.6761  -3.6743  -3.6672  -3.6138  -3.6127  -3.4588
    -3.4587  -3.4221  -3.4217  -3.3946  -3.1573  -3.1571  -3.1140  -3.0703
    -3.0701  -3.0248  -3.0242  -2.8479  -2.8472  -2.7800  -2.7796  -2.7347
    -2.7019  -2.7011  -2.4975  -2.4012  -2.4006  -2.3147  -2.3133  -2.2744
    -2.2366  -2.1975  -2.1965  -2.1797  -2.1563  -2.1549  -2.1282  -2.1097
    -2.0347  -2.0202  -2.0046  -2.0043  -1.9361  -1.9120  -1.9117  -1.8601
    -1.8479  -1.8439  -1.7752  -1.7456  -1.7248  -1.7222  -1.7213  -1.6357
    -1.6288  -1.6217  -1.6193  -1.6051  -1.5644  -1.5363  -1.5286  -1.5099
    -1.5052  -1.5008  -1.4361  -1.4333  -1.4298  -1.3814  -1.3796  -1.3429
    -1.3425  -1.3292  -1.2285  -1.1563  -1.1524  -1.1503  -1.1451  -1.1395
    -1.1127  -1.1123  -1.1052  -1.0552  -1.0516  -1.0290  -1.0280  -0.8245
    -0.7483  -0.6893  -0.6397  -0.6393  -0.6270  -0.6266  -0.6025  -0.6020
    -0.4422  -0.4277  -0.4274  -0.3239  -0.2813  -0.2800  -0.2731  -0.2617
    -0.1597  -0.1595  -0.1469  -0.1462  -0.0643  -0.0534  -0.0533  -0.0224
    -0.0222   0.1665   0.1868   0.2022   0.2025   0.2049   0.2294   0.2386
     0.3262   0.3282   0.3524   0.3800   0.3971   0.4465   0.4466   0.4475
     0.4480   0.5635   0.5647   0.5930   0.5939   0.6859   0.7403   0.7406
     0.7489   0.7496   0.7714   0.8121   0.8159   0.8793   0.8797   0.9393
     0.9397   0.9459   0.9952   0.9957   0.9959   1.0005   1.0006   1.0073
     1.0764   1.0767   1.2374   1.2375   1.2495   1.2645   1.2750   1.2753
     1.3136   1.3534   1.3537   1.3699   1.4687   1.4689   1.4937   1.6521
     1.6565   1.6566   1.6968   1.7311   2.1161   2.1183   2.8310   2.8342
     2.8779   2.9884   3.8491   4.3053   4.3118   4.9740   4.9744   5.1344
     5.1428   5.4087   5.8882   5.9556   5.9579   6.1766   6.3339   6.3426

          k = 0.2000 0.1155 0.0000 ( 94910 PWs)   bands (ev):

   -11.8841  -8.4026  -7.4020  -6.0922  -5.6424  -5.2428  -5.2425  -5.0125
    -4.9777  -4.9359  -4.8922  -4.8920  -4.6832  -4.6635  -4.5069  -4.5068
    -4.4872  -4.4862  -4.2100  -4.0752  -4.0748  -4.0464  -4.0360  -3.9796
    -3.9765  -3.9129  -3.9071  -3.9070  -3.9054  -3.8388  -3.8176  -3.8008
    -3.7994  -3.7967  -3.6761  -3.6748  -3.6662  -3.6138  -3.6128  -3.4587
    -3.4587  -3.4221  -3.4217  -3.3947  -3.1573  -3.1571  -3.1143  -3.0703
    -3.0702  -3.0246  -3.0242  -2.8477  -2.8472  -2.7799  -2.7796  -2.7350
    -2.7018  -2.7011  -2.4977  -2.4009  -2.4007  -2.3145  -2.3137  -2.2741
    -2.2367  -2.1980  -2.1966  -2.1795  -2.1565  -2.1545  -2.1277  -2.1096
    -2.0347  -2.0195  -2.0045  -2.0043  -1.9361  -1.9125  -1.9117  -1.8601
    -1.8471  -1.8440  -1.7753  -1.7456  -1.7244  -1.7220  -1.7214  -1.6376
    -1.6292  -1.6239  -1.6190  -1.6051  -1.5680  -1.5338  -1.5282  -1.5137
    -1.5052  -1.4996  -1.4361  -1.4333  -1.4278  -1.3814  -1.3782  -1.3428
    -1.3421  -1.3292  -1.2283  -1.1567  -1.1528  -1.1477  -1.1449  -1.1405
    -1.1128  -1.1124  -1.1046  -1.0568  -1.0504  -1.0291  -1.0271  -0.8256
    -0.7484  -0.6894  -0.6397  -0.6391  -0.6270  -0.6268  -0.6024  -0.6022
    -0.4422  -0.4279  -0.4269  -0.3233  -0.2820  -0.2798  -0.2731  -0.2617
    -0.1597  -0.1595  -0.1473  -0.1459  -0.0643  -0.0534  -0.0533  -0.0224
    -0.0222   0.1665   0.1868   0.2022   0.2023   0.2049   0.2303   0.2391
     0.3246   0.3286   0.3524   0.3800   0.3973   0.4466   0.4468   0.4473
     0.4478   0.5630   0.5650   0.5931   0.5938   0.6861   0.7400   0.7406
     0.7490   0.7494   0.7714   0.8120   0.8160   0.8793   0.8796   0.9392
     0.9397   0.9459   0.9952   0.9957   0.9958   1.0005   1.0007   1.0077
     1.0765   1.0767   1.2373   1.2375   1.2495   1.2645   1.2751   1.2752
     1.3136   1.3533   1.3537   1.3700   1.4686   1.4689   1.4937   1.6520
     1.6565   1.6567   1.6977   1.7317   2.1131   2.1199   2.8307   2.8338
     2.8783   2.9893   3.8502   4.3026   4.3129   4.9741   4.9743   5.1347
     5.1415   5.4102   5.8892   5.9561   5.9585   6.1734   6.3343   6.3422

          k = 0.2000 0.3464 0.0000 ( 94920 PWs)   bands (ev):

   -11.8841  -8.4026  -7.1162  -5.8901  -5.8899  -5.8149  -4.8133  -4.8130
    -4.7815  -4.7789  -4.7392  -4.7390  -4.7337  -4.7192  -4.6229  -4.6227
    -4.2340  -4.2333  -4.2310  -4.2307  -4.1664  -4.1444  -4.0028  -3.9794
    -3.9731  -3.9446  -3.9436  -3.8816  -3.8464  -3.8242  -3.8218  -3.8048
    -3.7801  -3.7746  -3.7426  -3.6926  -3.6825  -3.6505  -3.6474  -3.5758
    -3.3022  -3.1986  -3.1984  -3.1882  -3.1645  -3.1639  -3.1467  -3.1461
    -3.0925  -3.0749  -2.9137  -2.9132  -2.9035  -2.8278  -2.8009  -2.7505
    -2.7498  -2.7264  -2.6457  -2.6451  -2.4720  -2.4713  -2.4545  -2.3692
    -2.3685  -2.3391  -2.3381  -2.3312  -2.2589  -2.2582  -2.1329  -2.1052
    -2.0814  -2.0812  -2.0755  -2.0124  -2.0113  -1.9464  -1.9449  -1.9438
    -1.9420  -1.8151  -1.7773  -1.7757  -1.7673  -1.7658  -1.7590  -1.7436
    -1.7160  -1.6968  -1.6302  -1.6222  -1.6001  -1.5925  -1.5597  -1.5310
    -1.5253  -1.5099  -1.4612  -1.4365  -1.4002  -1.3985  -1.3906  -1.3468
    -1.3441  -1.3385  -1.3224  -1.3193  -1.2977  -1.2826  -1.2785  -1.2241
    -1.2213  -1.1224  -1.0767  -1.0751  -1.0041  -1.0024  -0.9994  -0.9958
    -0.8183  -0.8176  -0.6728  -0.6540  -0.6151  -0.6118  -0.6082  -0.5862
    -0.5860  -0.5374  -0.5358  -0.5050  -0.5027  -0.4454  -0.4178  -0.3028
    -0.2234  -0.2224  -0.1734  -0.1727  -0.1671  -0.1166  -0.1030   0.0240
     0.0263   0.0284   0.0821   0.0828   0.1634   0.2188   0.2229   0.2428
     0.2440   0.3179   0.3243   0.3250   0.3403   0.3418   0.3653   0.3663
     0.3674   0.3787   0.5071   0.5799   0.5806   0.7192   0.7202   0.7411
     0.8888   0.8888   0.8899   0.8906   0.9966   1.0284   1.0296   1.0390
     1.0392   1.0786   1.0789   1.1049   1.1096   1.1103   1.1714   1.1720
     1.1900   1.2587   1.2852   1.2856   1.3210   1.3210   1.3657   1.5001
     1.5527   1.5530   1.6369   1.6372   1.6424   1.6489   1.7893   1.7898
     2.2412   2.3165   2.3171   2.8554   2.8560   2.8950   2.8962   3.5884
     3.5988   3.6597   3.7732   3.8333   3.8348   4.4860   4.9622   5.0395
     5.0421   5.2059   5.6842   5.7470   5.7961   5.8010   5.8175   5.8202

          k = 0.2000-0.5774 0.0000 ( 94926 PWs)   bands (ev):

   -11.8841  -8.4027  -6.5810  -6.5806  -5.9730  -5.3210  -5.3186  -4.8094
    -4.8045  -4.6742  -4.6409  -4.5310  -4.5307  -4.4232  -4.4228  -4.2990
    -4.2964  -4.2955  -4.2587  -4.2584  -4.2314  -4.2239  -4.1006  -4.0893
    -4.0890  -4.0463  -4.0458  -3.9432  -3.8585  -3.8405  -3.8258  -3.7999
    -3.7553  -3.6732  -3.6730  -3.6546  -3.6544  -3.6390  -3.5246  -3.5243
    -3.4310  -3.4308  -3.2568  -3.2488  -3.1884  -3.0881  -3.0878  -3.0367
    -3.0365  -2.9279  -2.8788  -2.8294  -2.8290  -2.8083  -2.7638  -2.7631
    -2.7327  -2.6273  -2.6270  -2.5972  -2.5969  -2.5875  -2.5870  -2.5864
    -2.5134  -2.5131  -2.3824  -2.3581  -2.3098  -2.3091  -2.1912  -2.1546
    -2.1516  -2.1508  -2.1288  -2.1060  -2.0615  -2.0611  -1.9740  -1.9477
    -1.9472  -1.9420  -1.9121  -1.8810  -1.8277  -1.8269  -1.7880  -1.7313
    -1.7297  -1.7086  -1.7072  -1.6015  -1.5666  -1.5509  -1.5482  -1.5204
    -1.5023  -1.4955  -1.4619  -1.4572  -1.4409  -1.4349  -1.4126  -1.4122
    -1.3598  -1.3592  -1.3290  -1.3136  -1.3115  -1.3111  -1.3067  -1.2886
    -1.2593  -1.1942  -1.1912  -1.1898  -0.9834  -0.9722  -0.8817  -0.8815
    -0.7747  -0.7618  -0.7614  -0.7317  -0.6726  -0.6693  -0.6680  -0.6464
    -0.6432  -0.5592  -0.5276  -0.5264  -0.4588  -0.4376  -0.4296  -0.3750
    -0.3684  -0.3207  -0.1809  -0.1170  -0.1156  -0.0950  -0.0945  -0.0012
     0.0049   0.0059   0.0267   0.0409   0.0482   0.0832   0.0840   0.2023
     0.2040   0.2143   0.2708   0.2719   0.2933   0.3011   0.3160   0.3195
     0.4789   0.5286   0.5558   0.6365   0.6392   0.7203   0.7208   0.8056
     0.8495   0.8547   0.8554   0.9619   0.9633   1.0342   1.0661   1.0743
     1.0855   1.0864   1.1303   1.1331   1.1649   1.2429   1.2430   1.2671
     1.2956   1.2959   1.3007   1.3085   1.3596   1.5009   1.5079   1.5081
     1.5087   1.5090   1.5840   1.6535   1.6979   1.8381   2.6571   2.6572
     2.8973   2.9216   2.9349   3.0614   3.0625   3.0691   3.5167   3.6693
     3.6694   4.1297   4.1587   4.1616   4.2750   4.2757   4.4903   4.5726
     4.6656   4.7240   5.0204   5.1104   5.1120   5.6337   5.7518   5.7522

          k = 0.2000-0.3464 0.0000 ( 94920 PWs)   bands (ev):

   -11.8841  -8.4026  -7.1162  -5.8901  -5.8900  -5.8149  -4.8133  -4.8130
    -4.7812  -4.7792  -4.7392  -4.7390  -4.7337  -4.7192  -4.6229  -4.6227
    -4.2338  -4.2334  -4.2311  -4.2306  -4.1664  -4.1444  -4.0028  -3.9790
    -3.9735  -3.9449  -3.9435  -3.8815  -3.8454  -3.8249  -3.8221  -3.8039
    -3.7796  -3.7756  -3.7426  -3.6923  -3.6829  -3.6502  -3.6486  -3.5758
    -3.3023  -3.1989  -3.1981  -3.1881  -3.1644  -3.1639  -3.1465  -3.1460
    -3.0925  -3.0748  -2.9139  -2.9134  -2.9036  -2.8278  -2.8009  -2.7506
    -2.7496  -2.7262  -2.6454  -2.6452  -2.4724  -2.4715  -2.4545  -2.3693
    -2.3687  -2.3391  -2.3380  -2.3311  -2.2589  -2.2583  -2.1319  -2.1064
    -2.0815  -2.0813  -2.0756  -2.0130  -2.0110  -1.9460  -1.9450  -1.9441
    -1.9422  -1.8156  -1.7764  -1.7759  -1.7671  -1.7661  -1.7590  -1.7436
    -1.7160  -1.6967  -1.6248  -1.6220  -1.5976  -1.5913  -1.5635  -1.5300
    -1.5257  -1.5069  -1.4621  -1.4402  -1.4001  -1.4000  -1.3911  -1.3471
    -1.3443  -1.3388  -1.3215  -1.3181  -1.2982  -1.2866  -1.2755  -1.2242
    -1.2206  -1.1225  -1.0788  -1.0752  -1.0036  -1.0024  -0.9993  -0.9953
    -0.8180  -0.8178  -0.6727  -0.6540  -0.6157  -0.6107  -0.6096  -0.5861
    -0.5853  -0.5370  -0.5359  -0.5047  -0.5032  -0.4457  -0.4178  -0.3028
    -0.2239  -0.2212  -0.1736  -0.1729  -0.1672  -0.1167  -0.1030   0.0244
     0.0256   0.0289   0.0822   0.0829   0.1632   0.2200   0.2218   0.2430
     0.2439   0.3175   0.3242   0.3248   0.3402   0.3424   0.3651   0.3663
     0.3675   0.3787   0.5070   0.5797   0.5804   0.7192   0.7200   0.7415
     0.8885   0.8893   0.8898   0.8913   0.9962   1.0286   1.0295   1.0390
     1.0393   1.0786   1.0789   1.1051   1.1096   1.1100   1.1715   1.1718
     1.1900   1.2586   1.2852   1.2859   1.3210   1.3210   1.3657   1.5001
     1.5527   1.5529   1.6369   1.6372   1.6437   1.6475   1.7891   1.7899
     2.2407   2.3165   2.3170   2.8555   2.8561   2.8944   2.8981   3.5905
     3.5954   3.6605   3.7732   3.8332   3.8343   4.4859   4.9622   5.0390
     5.0445   5.2057   5.6841   5.7530   5.7936   5.7989   5.8147   5.8174

          k = 0.4000-0.2309 0.0000 ( 94928 PWs)   bands (ev):

   -11.8841  -8.4029  -6.9788  -6.3436  -5.6857  -5.2767  -5.2766  -5.1302
    -4.9096  -4.7549  -4.6238  -4.5862  -4.5510  -4.5508  -4.3676  -4.3662
    -4.3359  -4.3271  -4.3270  -4.2039  -4.1691  -4.1690  -4.1167  -4.1165
    -4.0512  -4.0295  -3.9788  -3.9786  -3.9414  -3.8341  -3.8013  -3.7049
    -3.7048  -3.6860  -3.6858  -3.6852  -3.6832  -3.4598  -3.4584  -3.3984
    -3.3978  -3.3883  -3.3881  -3.2066  -3.1029  -3.1025  -3.0933  -3.0931
    -3.0267  -3.0263  -2.9782  -2.9625  -2.9619  -2.8822  -2.8819  -2.7544
    -2.7542  -2.7006  -2.7002  -2.6061  -2.5689  -2.5242  -2.5235  -2.5223
    -2.3821  -2.3049  -2.2934  -2.2801  -2.2794  -2.1925  -2.1908  -2.1676
    -2.1280  -2.0560  -2.0543  -2.0337  -2.0318  -1.9129  -1.9110  -1.9107
    -1.9090  -1.9051  -1.8307  -1.8163  -1.8150  -1.8122  -1.7861  -1.7811
    -1.7805  -1.7640  -1.7233  -1.6597  -1.6423  -1.6387  -1.6311  -1.5927
    -1.5886  -1.5727  -1.5323  -1.5015  -1.4864  -1.4163  -1.3818  -1.3797
    -1.3396  -1.3360  -1.3062  -1.2998  -1.2959  -1.1717  -1.1687  -1.1500
    -1.0882  -1.0871  -1.0405  -0.9024  -0.9015  -0.8694  -0.8207  -0.7321
    -0.7315  -0.7198  -0.6992  -0.6978  -0.6944  -0.6936  -0.6038  -0.5963
    -0.5671  -0.5667  -0.5431  -0.5425  -0.5209  -0.5186  -0.4756  -0.4604
    -0.3612  -0.3252  -0.3248  -0.2556  -0.1928  -0.1641  -0.1640  -0.0245
    -0.0241   0.0380   0.0861   0.1408   0.1415   0.1709   0.1921   0.2309
     0.2311   0.2891   0.2897   0.3383   0.3387   0.4020   0.4457   0.4468
     0.5007   0.5014   0.5131   0.5132   0.5961   0.6992   0.7002   0.7823
     0.7952   0.7956   0.8014   0.8852   0.9031   0.9035   1.0009   1.0021
     1.0083   1.0095   1.0789   1.1016   1.1018   1.1127   1.2349   1.2352
     1.2593   1.2596   1.2673   1.2683   1.2857   1.2898   1.4604   1.5034
     1.5037   1.5108   1.5111   1.7005   1.7359   2.1247   2.1259   2.1815
     2.4301   2.5500   2.5501   2.9523   2.9531   3.1513   3.2880   3.7622
     3.7623   3.7902   3.9461   4.0403   4.0450   4.2019   4.2092   4.4349
     4.4366   5.0673   5.0770   5.5980   5.6040   6.0775   6.0981   6.1745

          k = 0.4000-0.0000 0.0000 ( 94920 PWs)   bands (ev):

   -11.8841  -8.4028  -7.1162  -5.8902  -5.8898  -5.8148  -4.8133  -4.8130
    -4.7813  -4.7790  -4.7392  -4.7390  -4.7336  -4.7190  -4.6230  -4.6227
    -4.2342  -4.2332  -4.2309  -4.2307  -4.1664  -4.1445  -4.0027  -3.9789
    -3.9735  -3.9439  -3.9437  -3.8815  -3.8481  -3.8246  -3.8204  -3.8026
    -3.7798  -3.7784  -3.7426  -3.6916  -3.6840  -3.6496  -3.6465  -3.5758
    -3.3022  -3.1984  -3.1982  -3.1879  -3.1645  -3.1639  -3.1468  -3.1463
    -3.0925  -3.0751  -2.9136  -2.9131  -2.9035  -2.8278  -2.8010  -2.7504
    -2.7500  -2.7266  -2.6456  -2.6451  -2.4718  -2.4713  -2.4545  -2.3699
    -2.3686  -2.3387  -2.3381  -2.3311  -2.2590  -2.2583  -2.1305  -2.1049
    -2.0817  -2.0810  -2.0758  -2.0122  -2.0116  -1.9459  -1.9452  -1.9430
    -1.9414  -1.8150  -1.7771  -1.7760  -1.7678  -1.7660  -1.7591  -1.7436
    -1.7160  -1.6969  -1.6266  -1.6219  -1.6043  -1.5931  -1.5585  -1.5325
    -1.5253  -1.5100  -1.4601  -1.4382  -1.4001  -1.3995  -1.3903  -1.3463
    -1.3442  -1.3364  -1.3227  -1.3167  -1.2974  -1.2843  -1.2818  -1.2241
    -1.2208  -1.1224  -1.0779  -1.0761  -1.0043  -1.0021  -0.9995  -0.9938
    -0.8184  -0.8174  -0.6728  -0.6539  -0.6154  -0.6123  -0.6074  -0.5863
    -0.5860  -0.5375  -0.5353  -0.5053  -0.5023  -0.4455  -0.4178  -0.3028
    -0.2238  -0.2229  -0.1733  -0.1726  -0.1670  -0.1166  -0.1030   0.0236
     0.0266   0.0285   0.0816   0.0829   0.1634   0.2181   0.2237   0.2426
     0.2442   0.3181   0.3244   0.3254   0.3402   0.3412   0.3655   0.3662
     0.3671   0.3786   0.5075   0.5797   0.5809   0.7190   0.7206   0.7408
     0.8882   0.8891   0.8899   0.8905   0.9968   1.0282   1.0294   1.0390
     1.0391   1.0786   1.0791   1.1047   1.1096   1.1105   1.1712   1.1721
     1.1900   1.2587   1.2850   1.2856   1.3210   1.3210   1.3656   1.5002
     1.5529   1.5530   1.6369   1.6372   1.6412   1.6506   1.7889   1.7899
     2.2405   2.3165   2.3171   2.8554   2.8561   2.8932   2.8968   3.5870
     3.6026   3.6561   3.7732   3.8338   3.8354   4.4863   4.9621   5.0361
     5.0422   5.2057   5.6861   5.7594   5.7913   5.7990   5.8208   6.0618

          k = 0.4000 0.2309 0.0000 ( 94928 PWs)   bands (ev):

   -11.8841  -8.4029  -6.9788  -6.3436  -5.6857  -5.2768  -5.2765  -5.1302
    -4.9096  -4.7549  -4.6238  -4.5861  -4.5510  -4.5508  -4.3682  -4.3658
    -4.3359  -4.3271  -4.3270  -4.2038  -4.1691  -4.1689  -4.1168  -4.1165
    -4.0511  -4.0292  -3.9790  -3.9785  -3.9414  -3.8364  -3.7998  -3.7049
    -3.7048  -3.6862  -3.6857  -3.6854  -3.6824  -3.4598  -3.4579  -3.3983
    -3.3980  -3.3882  -3.3881  -3.2070  -3.1028  -3.1026  -3.0933  -3.0931
    -3.0265  -3.0263  -2.9783  -2.9623  -2.9618  -2.8821  -2.8820  -2.7544
    -2.7542  -2.7004  -2.7002  -2.6061  -2.5690  -2.5246  -2.5237  -2.5222
    -2.3821  -2.3049  -2.2929  -2.2798  -2.2796  -2.1919  -2.1902  -2.1676
    -2.1294  -2.0560  -2.0547  -2.0327  -2.0313  -1.9117  -1.9108  -1.9100
    -1.9094  -1.9054  -1.8305  -1.8160  -1.8150  -1.8122  -1.7830  -1.7819
    -1.7808  -1.7643  -1.7241  -1.6597  -1.6499  -1.6381  -1.6311  -1.5968
    -1.5877  -1.5724  -1.5317  -1.5049  -1.4865  -1.4162  -1.3818  -1.3759
    -1.3402  -1.3359  -1.3071  -1.3004  -1.2928  -1.1717  -1.1687  -1.1478
    -1.0889  -1.0868  -1.0404  -0.9022  -0.9013  -0.8695  -0.8207  -0.7322
    -0.7311  -0.7198  -0.6997  -0.6979  -0.6943  -0.6937  -0.6038  -0.5972
    -0.5670  -0.5665  -0.5432  -0.5419  -0.5226  -0.5184  -0.4756  -0.4598
    -0.3612  -0.3251  -0.3245  -0.2556  -0.1926  -0.1641  -0.1640  -0.0245
    -0.0243   0.0393   0.0862   0.1408   0.1410   0.1709   0.1921   0.2309
     0.2311   0.2883   0.2899   0.3384   0.3386   0.4020   0.4457   0.4468
     0.5006   0.5015   0.5130   0.5132   0.5970   0.6971   0.7013   0.7823
     0.7951   0.7957   0.8014   0.8857   0.9031   0.9034   1.0007   1.0022
     1.0083   1.0093   1.0788   1.1015   1.1018   1.1127   1.2349   1.2351
     1.2593   1.2595   1.2673   1.2683   1.2866   1.2898   1.4604   1.5034
     1.5036   1.5108   1.5111   1.7005   1.7359   2.1214   2.1278   2.1818
     2.4307   2.5500   2.5501   2.9525   2.9531   3.1523   3.2878   3.7622
     3.7623   3.7898   3.9466   4.0412   4.0444   4.1983   4.2110   4.4356
     4.4361   5.0673   5.0773   5.5998   5.6023   6.0812   6.0957   6.1728

          k = 0.4000-0.6928 0.0000 ( 94926 PWs)   bands (ev):

   -11.8841  -8.4029  -6.5808  -6.5808  -5.9731  -5.3205  -5.3188  -4.8093
    -4.8048  -4.6742  -4.6409  -4.5310  -4.5307  -4.4232  -4.4229  -4.2984
    -4.2965  -4.2955  -4.2587  -4.2584  -4.2302  -4.2241  -4.1010  -4.0894
    -4.0891  -4.0463  -4.0458  -3.9427  -3.8538  -3.8491  -3.8277  -3.8011
    -3.7505  -3.6733  -3.6729  -3.6545  -3.6539  -3.6385  -3.5246  -3.5240
    -3.4313  -3.4308  -3.2564  -3.2488  -3.1890  -3.0881  -3.0876  -3.0368
    -3.0364  -2.9275  -2.8788  -2.8294  -2.8290  -2.8082  -2.7639  -2.7632
    -2.7325  -2.6274  -2.6270  -2.5974  -2.5969  -2.5877  -2.5874  -2.5861
    -2.5134  -2.5131  -2.3825  -2.3580  -2.3098  -2.3093  -2.1912  -2.1548
    -2.1513  -2.1509  -2.1296  -2.1044  -2.0612  -2.0609  -1.9718  -1.9478
    -1.9473  -1.9419  -1.9093  -1.8783  -1.8283  -1.8271  -1.7881  -1.7321
    -1.7288  -1.7115  -1.7068  -1.5993  -1.5767  -1.5511  -1.5496  -1.5109
    -1.5023  -1.5019  -1.4615  -1.4584  -1.4432  -1.4356  -1.4127  -1.4124
    -1.3614  -1.3555  -1.3292  -1.3137  -1.3115  -1.3113  -1.3059  -1.2899
    -1.2599  -1.1934  -1.1915  -1.1850  -0.9822  -0.9735  -0.8817  -0.8814
    -0.7747  -0.7618  -0.7613  -0.7324  -0.6733  -0.6693  -0.6691  -0.6452
    -0.6439  -0.5601  -0.5272  -0.5266  -0.4588  -0.4343  -0.4313  -0.3722
    -0.3700  -0.3216  -0.1812  -0.1169  -0.1156  -0.0946  -0.0945  -0.0014
     0.0046   0.0055   0.0267   0.0437   0.0464   0.0833   0.0840   0.2026
     0.2044   0.2135   0.2709   0.2713   0.2927   0.3013   0.3172   0.3186
     0.4787   0.5295   0.5553   0.6378   0.6385   0.7205   0.7206   0.8055
     0.8487   0.8546   0.8550   0.9620   0.9634   1.0343   1.0660   1.0742
     1.0851   1.0859   1.1312   1.1325   1.1656   1.2428   1.2429   1.2670
     1.2956   1.2958   1.3033   1.3065   1.3599   1.5010   1.5079   1.5081
     1.5087   1.5089   1.5841   1.6530   1.6978   1.8380   2.6571   2.6572
     2.9038   2.9151   2.9335   3.0617   3.0624   3.0692   3.5174   3.6693
     3.6694   4.1296   4.1596   4.1609   4.2751   4.2757   4.4904   4.5727
     4.6715   4.7061   5.0197   5.1100   5.1119   5.6560   5.7515   5.7523

          k = 0.4000-0.4619 0.0000 ( 94926 PWs)   bands (ev):

   -11.8841  -8.4029  -6.5809  -6.5807  -5.9731  -5.3209  -5.3184  -4.8093
    -4.8048  -4.6742  -4.6409  -4.5310  -4.5307  -4.4231  -4.4229  -4.2989
    -4.2962  -4.2955  -4.2586  -4.2584  -4.2311  -4.2234  -4.1009  -4.0894
    -4.0890  -4.0463  -4.0458  -3.9429  -3.8551  -3.8446  -3.8273  -3.8033
    -3.7513  -3.6732  -3.6730  -3.6545  -3.6541  -3.6386  -3.5247  -3.5239
    -3.4312  -3.4308  -3.2565  -3.2488  -3.1887  -3.0882  -3.0877  -3.0368
    -3.0364  -2.9276  -2.8788  -2.8295  -2.8290  -2.8082  -2.7637  -2.7633
    -2.7326  -2.6275  -2.6269  -2.5971  -2.5968  -2.5877  -2.5873  -2.5862
    -2.5133  -2.5131  -2.3830  -2.3581  -2.3101  -2.3091  -2.1913  -2.1530
    -2.1522  -2.1509  -2.1278  -2.1056  -2.0615  -2.0609  -1.9730  -1.9477
    -1.9473  -1.9418  -1.9107  -1.8797  -1.8276  -1.8272  -1.7884  -1.7311
    -1.7291  -1.7103  -1.7072  -1.6003  -1.5708  -1.5508  -1.5472  -1.5188
    -1.5025  -1.4951  -1.4621  -1.4579  -1.4408  -1.4363  -1.4124  -1.4118
    -1.3603  -1.3581  -1.3291  -1.3135  -1.3115  -1.3112  -1.3084  -1.2893
    -1.2597  -1.1939  -1.1912  -1.1898  -0.9824  -0.9725  -0.8816  -0.8815
    -0.7747  -0.7617  -0.7613  -0.7321  -0.6729  -0.6693  -0.6683  -0.6457
    -0.6435  -0.5597  -0.5277  -0.5266  -0.4582  -0.4356  -0.4303  -0.3738
    -0.3691  -0.3210  -0.1811  -0.1170  -0.1159  -0.0950  -0.0944  -0.0013
     0.0047   0.0056   0.0266   0.0421   0.0473   0.0833   0.0840   0.2028
     0.2039   0.2139   0.2708   0.2717   0.2930   0.3013   0.3167   0.3190
     0.4787   0.5287   0.5558   0.6370   0.6387   0.7204   0.7207   0.8058
     0.8493   0.8546   0.8552   0.9621   0.9632   1.0342   1.0660   1.0743
     1.0852   1.0863   1.1307   1.1328   1.1653   1.2428   1.2430   1.2671
     1.2954   1.2959   1.3019   1.3073   1.3598   1.5010   1.5079   1.5080
     1.5087   1.5090   1.5840   1.6536   1.6978   1.8381   2.6571   2.6572
     2.9003   2.9164   2.9352   3.0618   3.0622   3.0692   3.5183   3.6693
     3.6694   4.1301   4.1591   4.1610   4.2750   4.2755   4.4907   4.5731
     4.6663   4.7106   5.0207   5.1100   5.1114   5.6552   5.7514   5.7521

     the Fermi energy is     1.2742 ev

!    total energy              =  -27799.65960936 Ry

     total all-electron energy =  -1326801.953199 Ry
     estimated scf accuracy    <       0.00000052 Ry
     smearing contrib. (-TS)   =       0.00229085 Ry
     internal energy E=F+TS    =  -27799.66190021 Ry

     The total energy is F=E-TS. E is the sum of the following terms:
     one-electron contribution =  -30185.21277971 Ry
     hartree contribution      =   15388.42892407 Ry
     xc contribution           =    -904.20846937 Ry
     ewald contribution        =   13388.37079111 Ry
     one-center paw contrib.   =  -25487.04036631 Ry

     convergence has been achieved in  23 iterations

     negative rho (up, down):  1.250E-02 0.000E+00

     Forces acting on atoms (cartesian axes, Ry/au):

     atom    1 type  1   force =    -0.00003313   -0.00001264   -0.00322499
     atom    2 type  1   force =    -0.00004184    0.00004414   -0.00315748
     atom    3 type  1   force =     0.00002422   -0.00004533   -0.00317577
     atom    4 type  1   force =    -0.00000949    0.00003233   -0.00310962
     atom    5 type  1   force =    -0.00001502    0.00006179   -0.00311974
     atom    6 type  1   force =    -0.00005266    0.00001730   -0.00309301
     atom    7 type  1   force =    -0.00003959    0.00002655   -0.00309143
     atom    8 type  1   force =    -0.00009205   -0.00003471   -0.00310840
     atom    9 type  1   force =     0.00005195   -0.00001343   -0.00312930
     atom   10 type  1   force =    -0.00005307    0.00004964    0.00289712
     atom   11 type  1   force =     0.00002627    0.00008471    0.00284960
     atom   12 type  1   force =    -0.00003372   -0.00000120    0.00287531
     atom   13 type  1   force =    -0.00000115    0.00007508    0.00279556
     atom   14 type  1   force =    -0.00007642    0.00000861    0.00272938
     atom   15 type  1   force =    -0.00000883    0.00004661    0.00269743
     atom   16 type  1   force =    -0.00009476   -0.00005722    0.00291554
     atom   17 type  1   force =    -0.00001708   -0.00007315    0.00275964
     atom   18 type  1   force =     0.00001448   -0.00005479    0.00288188
     atom   19 type  1   force =     0.00009227   -0.00010895    0.00001020
     atom   20 type  1   force =     0.00002021    0.00005052   -0.00012751
     atom   21 type  1   force =    -0.00017923   -0.00006108   -0.00006893
     atom   22 type  1   force =     0.00017889   -0.00002392    0.00007896
     atom   23 type  1   force =    -0.00018607   -0.00009029    0.00001042
     atom   24 type  1   force =    -0.00006211    0.00001201    0.00018626
     atom   25 type  1   force =    -0.00002135   -0.00001972   -0.00005831
     atom   26 type  1   force =    -0.00014000    0.00011352   -0.00000212
     atom   27 type  1   force =     0.00007454    0.00016783    0.00004806
     atom   28 type  1   force =     0.00000003   -0.00001599    0.00061364
     atom   29 type  1   force =    -0.00001072   -0.00029671    0.00000396
     atom   30 type  1   force =    -0.00006922   -0.00014821    0.00060345
     atom   31 type  1   force =    -0.00032882    0.00021418   -0.00036203
     atom   32 type  1   force =     0.00030661    0.00027326   -0.00080092
     atom   33 type  1   force =     0.00007356    0.00004237    0.00059861
     atom   34 type  1   force =    -0.00013009    0.00003421    0.00063511
     atom   35 type  1   force =     0.00001906    0.00008089    0.00065172
     atom   36 type  1   force =     0.00001574    0.00003807    0.00078059
     atom   37 type  2   force =    -0.00014828   -0.00212366    0.00041408
     atom   38 type  2   force =     0.00314910    0.00348958    0.00755677
     atom   39 type  3   force =     0.00009185    0.00049530    0.00039930
     atom   40 type  3   force =    -0.00019451    0.00023935   -0.00001379
     atom   41 type  3   force =     0.00012283    0.00035909   -0.00060036
     atom   42 type  3   force =    -0.00022453    0.00062489   -0.00016536
     atom   43 type  3   force =     0.00053112    0.00071546    0.00047098
     atom   44 type  3   force =    -0.00252898   -0.00421629   -0.00805447

     Total force =     0.013398     Total SCF correction =     0.001883
     SCF correction compared to forces is large: reduce conv_thr to get better values

     negative rho (up, down):  1.250E-02 0.000E+00

     negative rho (up, down):  1.250E-02 0.000E+00

     negative rho (up, down):  1.250E-02 0.000E+00

     negative rho (up, down):  1.250E-02 0.000E+00

     negative rho (up, down):  1.250E-02 0.000E+00

     negative rho (up, down):  1.250E-02 0.000E+00

     negative rho (up, down):  1.250E-02 0.000E+00

     negative rho (up, down):  1.250E-02 0.000E+00

     negative rho (up, down):  1.250E-02 0.000E+00

     negative rho (up, down):  1.250E-02 0.000E+00

     negative rho (up, down):  1.250E-02 0.000E+00

     negative rho (up, down):  1.250E-02 0.000E+00

     negative rho (up, down):  1.250E-02 0.000E+00

     negative rho (up, down):  1.250E-02 0.000E+00

     negative rho (up, down):  1.250E-02 0.000E+00

     negative rho (up, down):  1.250E-02 0.000E+00

     negative rho (up, down):  1.250E-02 0.000E+00

     negative rho (up, down):  1.250E-02 0.000E+00

     negative rho (up, down):  1.250E-02 0.000E+00

     negative rho (up, down):  1.250E-02 0.000E+00

     negative rho (up, down):  1.250E-02 0.000E+00

     negative rho (up, down):  1.250E-02 0.000E+00

     negative rho (up, down):  1.250E-02 0.000E+00

     negative rho (up, down):  1.250E-02 0.000E+00

     negative rho (up, down):  1.250E-02 0.000E+00

     negative rho (up, down):  1.250E-02 0.000E+00

     negative rho (up, down):  1.250E-02 0.000E+00

     negative rho (up, down):  1.250E-02 0.000E+00

     negative rho (up, down):  1.250E-02 0.000E+00

     negative rho (up, down):  1.250E-02 0.000E+00

     negative rho (up, down):  1.250E-02 0.000E+00

     negative rho (up, down):  1.250E-02 0.000E+00

     negative rho (up, down):  1.250E-02 0.000E+00

     negative rho (up, down):  1.250E-02 0.000E+00
 BEEFens 2000 ensemble energies
             -0.605198340437948E+02
             -0.358680981387309E+01
             -0.157831428639716E+02
              0.428366075906078E+02
             -0.220847174073553E+02
             -0.204822437998710E+02
             -0.351429327414280E+02
             -0.862636555887789E+02
             -0.463998986176950E+02
             -0.471628891216517E+02
             -0.368206376835101E+02
              0.228082308618148E+01
              0.403982409338300E+01
              0.762921492613867E+01
              0.263998063094721E+01
              0.473748518517832E+02
             -0.208308995217737E+02
             -0.229548220980033E+02
              0.192253018713799E+02
             -0.112122406649119E+03
              0.534830779523408E+02
             -0.289206534966110E+02
             -0.333163921253248E+01
             -0.113990973531266E+02
             -0.880372379615324E+01
             -0.459375534648640E+01
              0.880706986221538E+02
             -0.186728814633777E+02
             -0.896590095816964E+01
             -0.516838676435979E+02
              0.813430379144786E+02
             -0.186791784499251E+02
             -0.373781814566599E+02
              0.248506019836672E+02
             -0.284262290930963E+01
              0.163454051891335E+02
             -0.486221697153172E+01
              0.108051708269143E+02
              0.287686288070474E+02
             -0.103002393210691E+03
              0.557313414380072E+02
              0.142078841977262E+02
             -0.171901053003603E+01
             -0.360426173782486E+02
              0.122944616797442E+02
             -0.146667781611632E+02
              0.397147196088979E+02
              0.363910235416793E+02
             -0.307473514962027E+02
             -0.274034230112145E+02
             -0.327519584384232E+02
             -0.351413114710106E+02
              0.136257445135960E+02
             -0.489437101585926E+02
              0.115321121919471E+02
              0.621619636734309E+02
              0.633604116531260E+02
              0.355300655942225E+02
              0.153647280598432E+02
              0.269982249139031E+02
              0.889567441937827E+02
              0.211904428952887E+02
             -0.547248032415620E+02
             -0.156859807171153E+02
             -0.235384285985400E+02
              0.628014467223592E+02
             -0.771587036701512E+02
             -0.670396992267985E+02
             -0.259080199013342E+02
             -0.648672571090970E+01
             -0.469319678799019E+02
              0.270118364570382E+02
              0.798881226266803E+01
              0.862997391922130E+01
             -0.396626194056648E+02
             -0.345896556321661E+02
             -0.540473155138190E+02
              0.389304638098195E+02
             -0.295243518574830E+02
              0.264939028210287E+02
             -0.716352418393967E+01
             -0.317251920928491E+02
             -0.574612668353487E+02
             -0.175973516198078E+02
             -0.899279250140012E+01
             -0.124096210183549E+02
              0.411563551096954E+02
              0.681261561253844E+02
             -0.384438266542407E+02
             -0.792480113613132E+02
             -0.219166281697755E+02
              0.111227789596002E+03
             -0.591418426928800E+02
              0.355264866971744E+02
             -0.952622024878247E+01
             -0.661593749434198E+02
              0.253741765520878E+02
              0.397062978828380E+02
             -0.198387931158159E+02
              0.399436889179325E+02
             -0.295230698950909E+02
             -0.476838388944008E+02
              0.863502422572072E+02
              0.452430137177067E+02
              0.335918451426331E+02
              0.145785226775896E+02
              0.205010185349310E+02
              0.854367205014863E+02
             -0.256312323264176E+02
              0.788176293439643E+01
             -0.142037203450120E+03
              0.180669577599539E+02
             -0.714424715115394E+02
              0.150798573574680E+02
              0.204111224924777E+02
             -0.332002224728677E+02
             -0.555913587497814E+02
              0.650234525055384E+01
             -0.303525063753013E+02
              0.306786677388267E+02
             -0.528663078922888E+02
              0.172509303090999E+01
             -0.355939104499794E+02
             -0.420371246467352E+01
             -0.104355749124483E+01
              0.180864262886823E+02
              0.142295121434756E+01
             -0.650056031783492E+01
              0.589032932188640E+02
              0.906066908750815E+02
              0.482934521299052E+02
              0.828418141010560E+02
             -0.114938209109705E+02
              0.142406210170298E+02
              0.539879097851907E+02
             -0.110734965130137E+02
             -0.734265120139244E+02
             -0.383453080494159E+02
             -0.520737898654140E+02
             -0.276107509077268E+02
              0.326643702768059E+02
             -0.116461210276188E+03
             -0.186923030193169E+02
              0.412731620904030E+02
             -0.385257777179723E+02
             -0.364598068009315E+02
              0.542858218266745E+02
              0.399486215689126E+02
             -0.353479085416642E+02
              0.137279080027710E+02
             -0.272917760351359E+02
              0.342291837006028E+02
              0.441808525209399E+01
              0.210644641038281E+02
             -0.882865169182085E+02
             -0.478965212084799E+02
             -0.997121897876548E+01
              0.317029476530195E+01
             -0.365789018530521E+02
              0.105751753590865E+03
             -0.230556546992721E+02
             -0.398203673735748E+02
              0.387676815816012E+02
             -0.492870341912095E+02
             -0.362401457998481E+02
              0.323918494134064E+02
              0.124143164060162E+02
              0.164497837700661E+02
              0.116235182554297E+02
             -0.132530782052850E+02
              0.224867053672586E+02
              0.588568283468567E+02
             -0.310858855051277E+02
              0.161728383842399E+02
              0.932439643245773E+02
              0.339993185639676E+02
             -0.727104484688971E+01
             -0.188060642300613E+02
              0.152950303226731E+03
             -0.163557299444271E+02
              0.362477467308856E+02
              0.193843038350334E+02
              0.360635635499835E+02
              0.889529800509707E+02
              0.541512865401666E+02
             -0.235882851114375E+01
              0.227102484469757E+02
              0.483548697447112E+02
              0.362371992107115E+02
             -0.524244334675293E+02
              0.933723113347702E+02
             -0.823976960761668E+02
             -0.197597480281528E+02
              0.581221193659876E+02
              0.673959712926514E+01
              0.783880240526548E+01
              0.340002438564161E+02
              0.298736652812613E+02
              0.352804178364629E+02
             -0.635767118930182E+02
              0.284581428971285E+01
             -0.297003786811723E+02
             -0.864631430978231E+01
             -0.143733537306900E+01
             -0.721436509668667E+01
             -0.414002154667696E+01
              0.857508320828352E+02
             -0.100835958969010E+02
             -0.275639587593027E+02
             -0.496343267918861E+01
              0.139515050984770E+02
             -0.562225692096848E+02
             -0.406197567545967E+02
             -0.380998232007691E+02
             -0.628614014711707E+02
             -0.168979065480669E+02
             -0.446369077632812E+02
              0.162786816601346E+02
             -0.239327220308149E+01
             -0.104214324282705E+02
             -0.931888155397598E+01
              0.806597517255557E+01
             -0.242243571952610E+02
              0.687856110695936E+02
             -0.805282826551918E+02
             -0.140669312066407E+02
             -0.173616088175837E+02
              0.181654756237302E+02
              0.214041208207628E+02
             -0.462275562775012E+02
             -0.201216682055603E+02
              0.439951063111825E+02
             -0.275783985531235E+02
              0.186744211923358E+02
              0.382058411991666E+02
             -0.320950079746297E+01
              0.113818761133836E+03
             -0.229240159961287E+02
             -0.340083465600121E+02
              0.576629131026783E+01
             -0.227765707480455E+02
              0.525885594913971E+02
             -0.336395306197653E+02
              0.106236848321120E+02
              0.638773349586226E+02
             -0.126141383197243E+02
              0.119943997121042E+03
              0.125552568801943E+03
             -0.648305075078304E+02
              0.589175452906610E+02
              0.165973542936274E+02
             -0.516439829594545E+02
              0.215555203754280E+02
              0.353235185770556E+02
              0.361699378000655E+02
              0.132390687157746E+01
              0.159596945289678E+02
              0.694355758115667E+02
             -0.246345341191551E+02
              0.181203075104097E+02
              0.737093526745952E+02
             -0.371503707679709E+02
             -0.129426194444620E+02
              0.507379777368260E+02
              0.296704323017425E+02
              0.777881558287536E+02
              0.222218601881540E+02
              0.624875719878185E+01
              0.279596884374935E+02
              0.382440272965611E+02
             -0.470972193114394E+02
              0.331221988599850E+01
              0.129591994362829E+02
              0.113336728160463E+02
              0.220086653682225E+02
             -0.573684136471369E+02
              0.364996377135860E+02
             -0.442619902747645E+02
             -0.346813900094131E+02
              0.177852494294131E+02
             -0.181155085177485E+02
              0.553575635042649E+02
             -0.255374069769779E+02
              0.266017274809001E+02
              0.367112774637967E+02
              0.827173590572259E+02
              0.573473529531070E+02
              0.460864729854042E+02
             -0.105165513557499E+02
             -0.388333608399239E+01
             -0.331674226586424E+02
              0.748791363396138E+02
              0.794983769469626E+02
              0.360892514699260E+02
             -0.191420313916848E+02
              0.510422936660578E+02
             -0.162619037245076E+02
              0.214285764068577E+02
              0.612911887772420E+02
              0.212047715997130E+01
             -0.104273071154219E+02
             -0.282255708486085E+02
             -0.510666916558818E+02
              0.943054769547190E+02
              0.438879907142183E+02
             -0.557630134528301E+02
             -0.958086373067792E+01
              0.249075551311145E+02
             -0.995221777351279E+01
              0.590423441165872E+02
              0.151592463186321E+02
              0.796856669546746E+02
              0.278981525081329E+02
             -0.262834185168728E+02
              0.248010948323321E+02
             -0.499192711978691E+01
             -0.322531782669958E+02
              0.132624328718325E+02
              0.205007159401465E+02
              0.930906617065838E+02
              0.795378822846458E+02
              0.549801137846120E+02
              0.728779044621162E+02
              0.802369500757300E+01
             -0.273204692022234E+02
              0.162685535350917E+02
             -0.367030283317482E+02
             -0.475203294129713E+02
             -0.562063458391101E+02
             -0.265809324240053E+02
             -0.109439338063519E+03
             -0.290674413071406E+02
             -0.835333282074497E+02
              0.209618567051874E+02
             -0.476027286693274E+02
              0.395738441975416E+02
             -0.939181700165176E+02
             -0.329336404666571E+02
              0.547091205182558E+02
              0.206933875120871E+02
             -0.828476920749684E+02
              0.629219148210445E+02
             -0.256292724233624E+02
              0.511069984492358E+02
             -0.241603570397949E+02
             -0.749366916495310E+02
              0.111371214058535E+02
             -0.609580718674199E+02
             -0.167887572363628E+02
             -0.150495968588505E+01
              0.417035711419738E+02
              0.126695719658424E+03
             -0.460536058158492E+02
             -0.361380811888518E+02
             -0.981225250525881E+00
             -0.130218897798553E+02
             -0.820400322444964E+02
             -0.595437032057789E+02
              0.515890548372294E+02
             -0.288367973349315E+02
              0.168732129550922E+02
             -0.487988244150379E+02
             -0.131504952020018E+02
             -0.436095446119696E+02
              0.564212360232490E+02
              0.150270657466297E+02
             -0.231118700029717E+02
             -0.126640382236172E+02
              0.665472529372855E+01
             -0.617716068950597E+01
              0.440320756440925E+02
             -0.251317133244294E+02
              0.279958641982341E+01
              0.338810792277980E+02
              0.170648200678027E+02
             -0.159624517339682E+02
              0.155870131566042E+03
              0.536985495808052E+02
              0.114117687376749E+01
              0.160959438380336E+02
             -0.613612147769413E+02
              0.314119997764526E+02
             -0.719707972028833E+02
             -0.251243773564161E+02
             -0.521403838298282E+02
             -0.219657504652718E+02
              0.567937088314771E+02
             -0.535743828150213E+02
              0.160415596406394E+02
             -0.410132582916867E+01
              0.384996053864629E+01
             -0.432919151001120E+02
             -0.477142179114529E+02
             -0.403388498449272E+01
             -0.423780110794528E+02
             -0.216358302539999E+02
             -0.437441990919484E+02
             -0.119001325456849E+02
             -0.358174514540000E+02
             -0.515274129159030E+02
              0.212295991642537E+02
             -0.208694573877573E+02
              0.187327819191309E+02
              0.974224997095129E+01
             -0.736251819749662E+02
             -0.546748143504967E+02
             -0.397373213857725E+02
              0.353363312703152E+02
              0.271488014249005E+01
             -0.625007691197952E+02
              0.584585982583530E+02
             -0.400251560761860E+02
              0.543475312534841E+02
             -0.289095988451665E+02
             -0.444738042151794E+02
              0.297391080066320E+02
             -0.655771431598538E+02
             -0.379300693853756E+02
              0.671426979918155E+02
              0.203805119784683E+02
             -0.359536693540861E+02
              0.488612076024365E+02
             -0.173791793382059E+02
             -0.322238227258701E+02
             -0.301107302483422E+02
             -0.499466823636066E+02
              0.249051482665029E+02
             -0.931145915064018E+02
             -0.838379721404994E+02
             -0.732929278729728E+01
             -0.306019133965993E+02
             -0.574421953828537E+02
              0.719812234280986E+02
              0.131200456475007E+03
             -0.360296715953934E+02
             -0.253865967804882E+01
             -0.635842505073086E+02
              0.648774050485937E+02
              0.170356135600453E+02
             -0.181574397496341E+02
             -0.409141747783387E+02
              0.148115358783825E+02
             -0.584560854171148E+02
             -0.197669846305644E+02
             -0.902433503327074E+02
              0.336213473638165E+02
              0.168689148142839E+02
              0.186162190402865E+01
             -0.705485687979888E+01
             -0.329062210205902E+02
             -0.757989921071220E+01
              0.125247193469354E+03
             -0.198342026818372E+02
             -0.436769135009554E+02
             -0.682246163723239E+02
              0.109156981821189E+02
             -0.341416307741300E+02
              0.589901802256418E+01
              0.260774097945136E+02
              0.102146137654913E+02
              0.277330695147715E+02
              0.119700397555879E+02
              0.628143227321252E+02
              0.315969595866006E+02
             -0.325852413533785E+02
              0.354621436731197E+02
              0.378654411266880E+02
              0.120489705746497E+02
              0.486422644090713E+02
             -0.224185622504141E+02
              0.763864244802731E+02
              0.171753998820545E+02
             -0.271337657219187E+02
             -0.725419837716077E+01
             -0.186148741257346E+02
              0.261294346887279E+02
             -0.233498511479022E+02
             -0.121756243395851E+00
             -0.847828136995452E+01
              0.807456799436350E+02
              0.498823574538782E+02
             -0.685200251582227E+02
             -0.476469858573608E+01
             -0.554071119403733E+02
             -0.158805766328376E+02
             -0.268039280399260E+02
              0.374310727160594E+01
              0.619218852685899E+00
             -0.257168329205230E+02
              0.810304974810512E+01
             -0.600383465325247E+01
             -0.128366277188376E+02
              0.856632956040381E+02
              0.181353458709764E+02
             -0.805256071848466E+02
             -0.457628502328585E+02
              0.942834397584846E+02
              0.277295581107084E+02
             -0.106551931307602E+02
              0.104321353683381E+03
             -0.193991816169652E+02
             -0.122770153134522E+02
             -0.539259279700036E+01
              0.107266216081500E+02
              0.271874686151627E+02
              0.779818453240327E+01
              0.304640485753157E+02
             -0.187425987994145E+02
             -0.303214357936405E+02
             -0.417128641087224E+02
             -0.475843476073336E+02
              0.463154586493722E+02
              0.126430170166740E+02
              0.386880565822464E+02
              0.133317286222378E+02
              0.853569848830172E+02
              0.155820927608544E+02
             -0.844142043409272E+02
             -0.333775050059503E+02
              0.133462976730674E+02
             -0.302071281881726E+02
              0.625091616530539E+02
             -0.882949244421593E+01
              0.148060585724557E+02
              0.495914616667820E+02
             -0.705425453288659E+02
              0.149376935688514E+03
              0.208382599426108E+02
              0.270625553862562E+02
              0.346894365545692E+02
              0.103760461864163E+02
             -0.153962349713203E+01
              0.357442686526325E+02
             -0.356710237720094E+02
              0.771431434335913E+02
              0.683389273123430E+02
             -0.405270273610680E+02
              0.149489906104504E+02
              0.668456262132203E+02
             -0.223247185566861E+02
              0.153951292574638E+02
              0.434127168787913E+02
              0.421112813423705E+02
             -0.783201922162089E+02
             -0.152573696030331E+02
             -0.355284950252418E+02
             -0.149423172864437E+01
             -0.767749139908042E+01
             -0.540826187118932E+01
             -0.180230454875298E+02
             -0.293505713881436E+02
              0.633835652798152E+01
              0.111548298733719E+02
              0.534539262138635E+02
             -0.389398571004357E+02
              0.373728690890791E+02
              0.437640707474506E+02
             -0.185970660861523E+02
              0.870214283280676E+02
             -0.696202055503073E+02
             -0.102941110249688E+03
             -0.657113464605817E+01
             -0.268644787365440E+01
              0.386114521136960E+01
              0.787852538067824E+02
             -0.106910715183392E+02
              0.415769656053400E+02
              0.442578586658215E+02
              0.384258067359342E+02
             -0.992907845185198E+01
              0.625843576884677E+02
             -0.133297840815669E+02
             -0.306647954147829E+02
             -0.478676693808256E+02
              0.585151809641226E+01
              0.368600153163353E+02
             -0.601301893806723E+01
              0.391920988991599E+02
             -0.173071544712815E+01
              0.653622407925002E+02
              0.186642847533714E+02
              0.996053214560396E+01
             -0.121832452744500E+02
              0.331403939259371E+02
              0.361458288623990E+02
              0.232114689093639E+02
             -0.493451001482015E+00
             -0.549298436489814E+02
              0.260004789686625E+02
              0.174668558976863E+02
              0.401679738483703E+02
              0.271502420588492E+02
              0.371460379468944E+02
             -0.598690554725738E+01
              0.250673028223306E+02
             -0.298028596003310E+02
             -0.199068549463288E+01
             -0.567935494721606E+02
             -0.306799265037296E+02
              0.377743397406691E+02
             -0.933661500984821E+02
              0.293772305158709E+02
              0.183793393480878E+02
              0.838515047824808E+02
             -0.299785522789892E+02
              0.328957555282254E+02
             -0.137414809632605E+02
             -0.462807161795065E+02
             -0.759629003972830E+02
             -0.525645562286638E+01
             -0.858240811205272E+02
              0.199335734840083E+02
             -0.247101660103277E+02
              0.305100109230088E+02
              0.236651674530748E+02
             -0.240777662214692E+02
             -0.265204935378993E+02
              0.389886569425445E+02
             -0.587189185016533E+02
             -0.116681284903630E+02
             -0.195687091181822E+02
              0.212252683812776E+02
             -0.888748570924088E+01
              0.360369566615014E+01
             -0.200224114749728E+02
              0.557454007906088E+02
             -0.438797336627850E+02
              0.788606726459636E+01
              0.584331849098456E+02
             -0.322593161253205E+02
              0.360721418168689E+01
             -0.880734950486567E+01
             -0.667916464149284E+02
             -0.481350538488499E+02
             -0.858956616586457E+01
              0.240194940946002E+02
              0.301559924116003E+02
              0.861399754963463E+01
             -0.410264793699707E+01
              0.151399935141841E+02
             -0.438756454079913E+02
              0.331361950795429E+01
             -0.530054685513883E+02
             -0.324155237769326E+02
              0.473640545425314E+02
             -0.294411404223314E+02
              0.621143855574998E+02
             -0.214566712317740E+02
              0.352714197519960E+02
              0.241329814074537E+02
             -0.642726527642539E+02
             -0.279681941916995E+02
              0.929057668775323E+01
             -0.370988526594700E+02
             -0.338707532338100E+02
             -0.827880174324243E+02
             -0.538102855849689E+02
             -0.509350296479681E+02
             -0.414410452190630E+02
             -0.987731822311702E+00
              0.991225284240886E+01
              0.106086136983470E+01
              0.152760892428539E+02
             -0.548067879349158E+02
              0.141811109453481E+02
              0.256713679989707E+02
             -0.665175842078190E+02
             -0.700539890350747E+02
             -0.430548386286407E+02
             -0.171592599849596E+02
              0.178124676510215E+02
              0.456011485009003E+01
             -0.424471843741078E+02
              0.365364533377557E+02
             -0.215614543496022E+02
              0.516277297567961E+02
             -0.885073221227938E+02
              0.596457778730365E+02
             -0.212343754790199E+01
             -0.367903129314282E+02
             -0.215385554588788E+02
              0.469666866222316E+01
              0.373350502995711E+02
             -0.754769118783360E+02
             -0.120256568200573E+02
             -0.216416711981163E+02
              0.510085605680918E+02
              0.862988551356165E+02
             -0.963277329426767E+02
              0.941755947965554E+02
              0.466335315885206E+02
             -0.723677787792430E+02
             -0.365747951285065E+02
              0.750256478338669E+02
              0.630590359237862E+02
             -0.181237058072448E+02
             -0.461507428673650E+01
              0.730189154728423E+01
              0.647518172268932E+02
             -0.507215141981237E+02
[...]
              0.282906253967485E+02
              0.141433522138662E+03
              0.241941348511265E+02
              0.122188314942182E+02
             -0.462913952192511E+02
             -0.636060080427080E+02
             -0.188923067051309E+02
              0.329319379138283E+02
             -0.427204682620788E+01
              0.189964068394823E+02
              0.335412630671716E+02
             -0.584454293252264E+02
              0.221979579689237E+02
              0.580499054438380E+02
              0.551101041616598E+02
             -0.415917957912040E+01
             -0.137227934350653E+01
             -0.991880067634679E+01
             -0.481202204611749E+02
             -0.673123070328722E+02
              0.783353176269313E+02
             -0.519528321975048E+01
             -0.586456497715245E+02
              0.169536202067457E+01
             -0.204698191504592E+02
              0.936355629362553E+02
             -0.216010548234333E+02
             -0.352645089938001E+02
              0.334677148005354E+02
             -0.145487596557053E+02
              0.388464299001960E+02
             -0.232441602400945E+01
              0.100819310187427E+03
              0.488264971637875E+02
             -0.511290521638342E+01
             -0.320990507242220E+02
              0.231727545971900E+02
             -0.527175010264844E+02
             -0.127599977192296E+02
              0.584195630694710E+02
             -0.287133879053230E+02
             -0.437025268681037E+02
             -0.222557997796486E+02
              0.517162344457465E+02
              0.124178974048544E+02
             -0.846652083413663E+02
              0.303275024439992E+02
              0.151981209342217E+02
              0.577018220222135E+01
             -0.512246537802483E+02
             -0.378387033780848E+01
              0.322121357286873E+02
              0.511490597388713E+02
              0.631208627596549E+02
              0.228372873154155E+02
              0.708273720572691E+00
             -0.496820082020001E+02
             -0.508985086862688E+02
             -0.745866797539708E+02
             -0.615376576312508E+01
              0.308388346560700E+02
             -0.380932601368352E+01
              0.545466509392852E+02
             -0.317287261049329E+02
              0.165673532553252E+02
             -0.102554422324020E+02
             -0.289065459569744E+02
              0.584291977699393E+02
              0.790244799026283E+01
              0.602915969636429E+02
              0.509281108754521E+01
              0.264425524999086E+02
             -0.192088531347611E+02
              0.584426513076870E+02
             -0.111499734072266E+02
             -0.968416869412607E-01
             -0.788134959656552E+02
             -0.128102552241477E+02
              0.717192897186967E+02
              0.671347760495390E+02
              0.251248807938565E+02
             -0.129688239430982E+02
              0.344765888926395E+01
             -0.173047506567429E+02
             -0.203294000665915E+01
              0.905566064550130E+02
              0.123453932398468E+01
             -0.189787680057414E+02
             -0.110454533694423E+03
             -0.551113741559107E+02
             -0.374162537660311E+02
             -0.656701419596321E+02
             -0.554309547638460E+02
             -0.680738006076491E+02
             -0.446138708734599E+02
             -0.409982088260263E+02
             -0.450502754829623E+02
              0.482453289313838E+02
             -0.293415248073212E+02
             -0.992532633342440E+02
              0.418076556886512E+02
             -0.259449163398642E+02
             -0.788543091564324E+02
              0.941232437761428E+02
             -0.219181987253498E+02
              0.227472519748680E+02
              0.454081334114418E+02
             -0.132601027869049E+01
              0.253789453727294E+02
              0.469200160244864E+01
              0.404216670168733E+00
             -0.150646585459122E+02
             -0.714240955747270E+02
              0.133025926530104E+02
             -0.129056559996861E+03
              0.622685259053012E+02
             -0.439679057073328E+02
             -0.162321481456921E+02
             -0.157355502246111E+02
              0.712911533331836E+01
             -0.227247930983921E+02
              0.296122014677774E+02
             -0.518914236338643E+02
              0.366317961708828E+02
              0.370278785134074E+02
              0.167819309816260E+02
              0.100683270825520E+02
              0.197282579625527E+02
              0.620215777780368E+01
              0.309419904614464E+02
             -0.799037926588758E+01
             -0.590834724544712E+02
              0.755853850928878E+01
             -0.151989079418137E+02
             -0.193750514458168E+01
              0.505218980777658E+02
             -0.824870070874090E+02
             -0.145189696600852E+01
              0.567061780309132E+00
              0.993497651040900E+01
              0.317522803283543E+02
             -0.123331347935495E+02
              0.833249964824338E+02
              0.486245051293666E+02
             -0.182603398451541E+02
             -0.950101750543206E+01
              0.105715920249679E+01
              0.767303070780173E+02
             -0.584550485365378E+02
             -0.105492446904810E+03
              0.308676971004720E+02
             -0.163123711692289E+02
             -0.139515018150908E+02
              0.129978664175802E+02
              0.766425539541416E+02
              0.463045266791283E+02
             -0.152960655988958E+02
             -0.501703547871420E+02
             -0.547291229856930E+01
              0.305670711152721E+02
             -0.111258425622810E+02
             -0.753746336247257E+02
             -0.271869949530600E+01
             -0.887480602363668E+02
             -0.474084472185799E+02
              0.766593516227400E+02
             -0.482337859109230E+02
             -0.634863025805201E+02
             -0.513193601555174E+02
             -0.348807148232841E+02
              0.340480969907917E+02
              0.819432172606475E+02
             -0.358633280283556E+01
              0.275822772730876E+02
             -0.183341646109480E+02
             -0.692089766854752E+02
              0.464065069805196E+02
             -0.443975229902586E+02
              0.320953897894575E+02
              0.375193528315156E+02
             -0.653318696110347E+01
              0.389191761322239E+02
              0.437123159299711E+02
              0.100391644440501E+03
             -0.155572709612331E+02
             -0.454957011162275E+02
             -0.610948230537476E+02
             -0.123298711144496E+02
             -0.232320154276940E+02
              0.102769148417994E+03
             -0.448254870831737E+02
              0.104672498876766E+02
              0.968314783186781E+01
             -0.264013212693158E+02
             -0.796997499688088E+02
             -0.698966734528295E+01
              0.977316202683691E+02
              0.933932985840386E+01
              0.805786165985182E+01
             -0.525617386711921E+02
             -0.603640000035628E+02
             -0.559165435555717E+01
              0.499085954132686E+02
             -0.221378385790088E+02
              0.107689160539778E+03
             -0.434917239436226E+02
              0.145710829952617E+02
             -0.223414670978237E+02
             -0.716829380693684E+02
              0.166557499983651E+01
             -0.500257431331293E+02
             -0.758519686618920E+02
              0.614600092612807E+01
              0.233751242513065E+01
              0.512797267388984E+02
              0.186581290304761E+02
             -0.322946024510274E+02
              0.229430290678351E+02
             -0.809010996966132E+02
             -0.520209807830535E+02
              0.899373818228563E+02
              0.141717117307563E+02
             -0.187621475399794E+02
             -0.351491612611156E+02
             -0.270467716089991E+01
             -0.583617169207139E+01
              0.828552462960514E+02
              0.416988550469598E+02
             -0.165447064616126E+02
             -0.121575370287840E+02
             -0.426473637571008E+02
             -0.200033651458175E+02
             -0.668037453440517E+02
              0.458718263011028E+02
              0.546392837325550E+01
              0.144564938425830E+02
              0.155716136620764E+02
             -0.545653165995226E+00
             -0.167933968583043E+02
             -0.307170158755347E+01
             -0.100141097804470E+03
             -0.229738463095878E+02
             -0.765513770902078E+01
             -0.946197923195652E+01
              0.544592671435242E+02
              0.622390059316068E+02
              0.164266237832572E+02
             -0.968043298457323E+02
              0.645612048718068E+02
             -0.214294739958333E+02
             -0.375944530652478E+02
             -0.861822732458663E+02
             -0.386086868797717E+02
              0.563169041402334E+02
              0.243976178884654E+02
              0.513901918998562E+01
              0.291401744318445E+02
             -0.563326969403658E+02
             -0.421038007946007E+02
              0.513945796555078E+02
              0.385988975732446E+02
              0.517418568570957E+02
             -0.118555433178531E+01
              0.685822256259877E+01
              0.567948541257828E+02
              0.960122066923100E+02
             -0.299517148278259E+02
              0.322112281010795E+02
             -0.118401412519611E+02
             -0.411049646265728E+02
             -0.313696717776101E+02
             -0.299563873448135E+02
             -0.130917232220043E+02
             -0.521831788703148E+02
             -0.216500404024268E+02
             -0.140816110739979E+03
              0.368340665151136E+02
              0.205973391281950E+02
             -0.393283835779376E+01
             -0.378946637684310E+02
             -0.203487613224522E+02
             -0.525378522422862E+02
              0.151233131464681E+02
              0.817887844717601E+02
             -0.251479869204163E+02
             -0.162641953210943E+02
              0.237523549572642E+02
             -0.488417227533556E+02
              0.878189448241258E+02
              0.153949842738399E+02
              0.225744299566945E+02
              0.488599878163400E+02
              0.317252749020452E+01
              0.540348416603425E+02
              0.142540894520274E+02
             -0.106391332939329E+02
              0.726423112584820E+01
              0.747238167306307E+00
              0.725139811285449E+02
              0.101248932298294E+02
              0.120256565638608E+02
             -0.130034696137312E+02
              0.132120708835754E+02
             -0.908579862454777E+02
             -0.324895388898018E+02
             -0.455980725715417E+02
              0.483666780273766E+02
             -0.290220084699605E+02
             -0.656766022674269E+02
              0.536923166685870E+02
             -0.121546306111435E+02
              0.438992629764703E+02
             -0.896188661884071E+02
              0.231566861373408E+02
              0.853405426244262E+01
              0.581593694169385E+01
             -0.828705633086173E+01
             -0.902625637656604E+01
              0.478182013501495E+02
              0.198206000060202E+01
             -0.473715006221643E+02
             -0.175830053173562E+02
              0.275844693285019E+02
             -0.117647787351501E+03
             -0.927323066162767E+02
              0.394993676163818E+01
              0.117295746143900E+02
             -0.412282051775501E+02
             -0.389430703583878E+01
              0.111810423183844E+03
              0.305361117872286E+02
             -0.570148327457520E+02
              0.921628604469959E+01
             -0.959624172288952E+01
              0.105684333195595E+02
             -0.336963077007180E+02
              0.195029102655334E+02
              0.283896226035566E+02
             -0.294031006612727E+01
              0.107865703357510E+03
             -0.140175092081282E+02
             -0.315050287933846E+02
              0.142196286844352E+02
              0.465438071212022E+02
             -0.355047755566449E+02
             -0.316237066758674E+01
              0.962413209623474E+02
             -0.462305125354294E+01
              0.620114690524250E+02
              0.135111620923130E+02
             -0.897075917900909E+01
             -0.304670696967047E+02
              0.564930593142150E+02
             -0.512533339163443E+02
             -0.220618982874475E+01
             -0.169495189910627E+02
             -0.404166035188585E+02
              0.184771873701986E+02
              0.238935861215568E+02
              0.116076755172820E+02
              0.714177765750264E+00
             -0.383334549443257E+02
              0.214513549719582E+02
             -0.673886231772573E+01
             -0.245566601133255E+02
             -0.209948461608717E+02
              0.202513132798286E+02
             -0.600531234170023E+01
             -0.348179858721315E+02
             -0.106369421664945E+03
              0.102724392079714E+02
              0.248297415333376E+02
             -0.386027705021949E+02
             -0.210363032206226E+02
              0.805019104842459E+02
              0.650015527123423E+01
              0.309759930525740E+02
              0.388333895979940E+01
              0.320684531139766E+02
              0.647080184272102E+01
             -0.371843431805388E+02
             -0.233453220302002E+01
              0.874755773189236E+01
              0.273035988279408E+02
              0.779559497521231E+02
              0.505946997005761E+02
              0.182199765425480E+00
              0.169259017911454E+02
              0.611705729484008E+02
              0.235109743497564E+02
             -0.750808323662938E+02
             -0.272992537230119E+02
              0.150876582912983E+02
              0.558432797044628E+01
              0.254201748252922E+02
             -0.546289669902660E+02
              0.894553509281558E+01
              0.385131183308226E+02
              0.496540910715652E+02
             -0.433576753181085E+02
             -0.689341766728853E+01
             -0.207701350246816E+01
             -0.133130792937705E+02
             -0.364415046286113E+02
             -0.214858193000552E+02
             -0.202608292464667E+01
              0.791029172620631E+01
              0.420287759384824E+02
             -0.307084112635181E+02
              0.824049321905455E+02
              0.326434770792588E+02
              0.219329547109859E+02
              0.332473492169720E+02
              0.322312569776766E+02
              0.345607140080717E+02
              0.535592062396128E+02
             -0.432670824673950E+02
              0.618006101029534E+02
             -0.111990265745928E+03
              0.306407579571784E+02
             -0.106228527103642E+03
              0.852213507352285E+02
              0.688669840548943E+02
             -0.109553261203636E+02
             -0.491839838778615E+02
             -0.428571493021993E+02
             -0.621992118605535E+02
             -0.627088629772142E+02
              0.550511197161298E+02
              0.404259866054016E+02
              0.235988614648672E+02
              0.372864210783893E+02
              0.401981294141686E+02
             -0.381004724393558E+02
             -0.197318583466034E+02
              0.585363815917377E+02
             -0.116016401718461E+02
              0.550639390652258E+02
              0.697415613994559E+02
             -0.555532702475888E+01
             -0.704347101814004E+02
             -0.853996428347955E+00
             -0.247574140865834E+01
             -0.879089838591722E+01
             -0.183857121808342E+01
             -0.651174765029067E+02
             -0.210053097136742E+02
              0.538656235081168E+01
              0.898968923079104E+01
              0.467642076367481E+02
             -0.396535053561062E+02
              0.655744407600718E+02
             -0.424252063886013E+02
              0.209946426010982E+02
              0.349153169333587E+02
 
 BEEF-vdW xc energy contributions
           1 :   -780.667315221006     
           2 :    716.937634379001     
           3 :   -606.839222886704     
           4 :    477.520432385487     
           5 :   -356.302412314730     
           6 :    262.751429651111     
           7 :   -204.369513825886     
           8 :    176.620499920182     
           9 :   -166.902159629284     
          10 :    160.636099588999     
          11 :   -147.019323449688     
          12 :    122.256942743675     
          13 :   -89.4185629588434     
          14 :    55.5391901818698     
          15 :   -27.6457383374700     
          16 :    9.50060776642090     
          17 :  -0.315120786671969     
          18 :   -4.30462766214475     
          19 :    9.87212394725987     
          20 :   -20.3063356189190     
          21 :    36.2375877054504     
          22 :   -55.0054713036554     
          23 :    72.1793467768142     
          24 :   -83.7722950343384     
          25 :    88.0570624730016     
          26 :   -86.1850873627344     
          27 :    81.4264242533884     
          28 :   -77.4915701152663     
          29 :    76.7723023371251     
          30 :   -79.3349698504763     
          31 :   -85.6511170223464     
          32 :   -65.5934971572533     

     Writing output data file ./pwscf.save/
 
     init_run     :    352.19s CPU    356.94s WALL (       1 calls)
     electrons    :  16478.03s CPU  16638.26s WALL (       1 calls)
     forces       :    105.62s CPU    106.94s WALL (       1 calls)

     Called by init_run:
     wfcinit      :    304.84s CPU    308.53s WALL (       1 calls)
     potinit      :     44.32s CPU     44.68s WALL (       1 calls)
     hinit0       :      1.18s CPU      1.21s WALL (       1 calls)

     Called by electrons:
     c_bands      :  13751.15s CPU  13875.82s WALL (      24 calls)
     sum_band     :   1979.95s CPU   1995.52s WALL (      24 calls)
     v_of_rho     :    125.38s CPU    130.75s WALL (      24 calls)
     newd         :     37.37s CPU     51.78s WALL (      24 calls)
     PAW_pot      :    159.50s CPU    159.62s WALL (      24 calls)
     mix_rho      :    469.64s CPU    470.66s WALL (      24 calls)
     vdW_kernel   :     33.47s CPU     33.47s WALL (       1 calls)

     Called by c_bands:
     init_us_2    :     95.51s CPU     95.73s WALL (     650 calls)
     cegterg      :  12742.60s CPU  12866.98s WALL (     312 calls)

     Called by *egterg:
     cdiaghg      :    103.87s CPU    103.90s WALL (    2161 calls)
     h_psi        :   8216.02s CPU   8259.30s WALL (    2187 calls)
     s_psi        :   1378.50s CPU   1378.58s WALL (    2187 calls)
     g_psi        :     18.86s CPU     18.87s WALL (    1862 calls)

     Called by h_psi:
     h_psi:calbec :   1278.66s CPU   1278.82s WALL (    2187 calls)
     vloc_psi     :   5528.16s CPU   5530.15s WALL (    2187 calls)
     add_vuspsi   :   1378.66s CPU   1378.83s WALL (    2187 calls)

     General routines
     calbec       :   1860.25s CPU   1860.47s WALL (    2551 calls)
     fft          :     55.33s CPU     55.39s WALL (    3464 calls)
     ffts         :    151.04s CPU    151.11s WALL (    9882 calls)
     fftw         :   5678.79s CPU   5680.15s WALL (  388322 calls)
 
     Parallel routines
 
     PWSCF        :      4h44m CPU      4h47m WALL

 
   This run was terminated on:  18:53:14  26Sep2022            

=------------------------------------------------------------------------------=
   JOB DONE.
=------------------------------------------------------------------------------=
