
     Program PWSCF v.6.7MaX starts on 27Sep2022 at  8:36: 1 

     This program is part of the open-source Quantum ESPRESSO suite
     for quantum simulation of materials; please cite
         "P. Giannozzi et al., J. Phys.:Condens. Matter 21 395502 (2009);
         "P. Giannozzi et al., J. Phys.:Condens. Matter 29 465901 (2017);
          URL http://www.quantum-espresso.org", 
     in publications or presentations arising from this work. More details at
     http://www.quantum-espresso.org/quote

     Parallel version (MPI), running on     1 processors

     MPI processes distributed on     1 nodes
     Reading input from ch3och3-ensemble.in
Warning: card &CELL ignored
Warning: card / ignored

     Current dimensions of program PWSCF are:
     Max number of different atomic species (ntypx) = 10
     Max number of k-points (npk) =  40000
     Max angular momentum in pseudopotentials (lmaxx) =  3
     file Pt.pbe-n-kjpaw_psl.1.0.0.UPF: wavefunction(s)  6S 5D renormalized
     file C.pbe-n-kjpaw_psl.1.0.0.UPF: wavefunction(s)  2S 2P renormalized
     file H.pbe-kjpaw_psl.1.0.0.UPF: wavefunction(s)  1S renormalized
     file O.pbe-nl-kjpaw_psl.1.0.0.UPF: wavefunction(s)  2S 2P renormalized

     **************************************************************************
     Initializing libbeef V0.1.2 with the BEEF-vdW functional.
     Citation: Wellendorff et al., PRB 85, 235149 (2012).
     **************************************************************************


     IMPORTANT: XC functional enforced from input :
     Exchange-correlation= BEEF-VDW
                           (   1   4  43  14   2   0   0)
     Any further DFT definition will be discarded
     Please, verify this is what you really want


     Subspace diagonalization in iterative solution of the eigenvalue problem:
     a serial algorithm will be used

 
     G-vector sticks info
     --------------------
     sticks:   dense  smooth     PW     G-vecs:    dense   smooth      PW
     Sum        4267    4267   1159               748433   748433  105431
 


     bravais-lattice index     =            0
     lattice parameter (alat)  =      16.0349  a.u.
     unit-cell volume          =   11914.4743 (a.u.)^3
     number of atoms/cell      =           45
     number of atomic types    =            4
     number of electrons       =       380.00
     number of Kohn-Sham states=          228
     kinetic-energy cutoff     =      60.0000  Ry
     charge density cutoff     =     240.0000  Ry
     scf convergence threshold =      1.0E-06
     mixing beta               =       0.7000
     number of iterations used =            8  local-TF  mixing
     Exchange-correlation= BEEF-VDW
                           (   1   4  43  14   2   0   0)

     celldm(1)=  16.034858  celldm(2)=   0.000000  celldm(3)=   0.000000
     celldm(4)=   0.000000  celldm(5)=   0.000000  celldm(6)=   0.000000

     crystal axes: (cart. coord. in units of alat)
               a(1) = (   1.000000   0.000000   0.000000 )  
               a(2) = (   0.500000   0.866025   0.000000 )  
               a(3) = (   0.000000   0.000000   3.336944 )  

     reciprocal axes: (cart. coord. in units 2 pi/alat)
               b(1) = (  1.000000 -0.577350  0.000000 )  
               b(2) = (  0.000000  1.154701  0.000000 )  
               b(3) = (  0.000000  0.000000  0.299675 )  


     PseudoPot. # 1 for Pt read from file:
     /users/bkreitz1/quantum-espresso/potentials/Pt.pbe-n-kjpaw_psl.1.0.0.UPF
     MD5 check sum: 04dc8a03c51ece93fc7b5889c2958091
     Pseudo is Projector augmented-wave + core cor, Zval = 10.0
     Generated using 'atomic' code by A. Dal Corso  v.6.7MaX
     Shape of augmentation charge: PSQ
     Using radial grid of 1277 points,  6 beta functions with: 
                l(1) =   0
                l(2) =   0
                l(3) =   1
                l(4) =   1
                l(5) =   2
                l(6) =   2
     Q(r) pseudized with 0 coefficients 


     PseudoPot. # 2 for C  read from file:
     /users/bkreitz1/quantum-espresso/potentials/C.pbe-n-kjpaw_psl.1.0.0.UPF
     MD5 check sum: a169b0ebad56f5ec0d79c4633f80bf22
     Pseudo is Projector augmented-wave + core cor, Zval =  4.0
     Generated using 'atomic' code by A. Dal Corso  v.6.7MaX
     Shape of augmentation charge: PSQ
     Using radial grid of 1073 points,  4 beta functions with: 
                l(1) =   0
                l(2) =   0
                l(3) =   1
                l(4) =   1
     Q(r) pseudized with 0 coefficients 


     PseudoPot. # 3 for H  read from file:
     /users/bkreitz1/quantum-espresso/potentials/H.pbe-kjpaw_psl.1.0.0.UPF
     MD5 check sum: ae98473e6dc62675f0d0baffdab24f65
     Pseudo is Projector augmented-wave, Zval =  1.0
     Generated using 'atomic' code by A. Dal Corso  v.6.7MaX
     Shape of augmentation charge: PSQ
     Using radial grid of  929 points,  2 beta functions with: 
                l(1) =   0
                l(2) =   0
     Q(r) pseudized with 0 coefficients 


     PseudoPot. # 4 for O  read from file:
     /users/bkreitz1/quantum-espresso/potentials/O.pbe-nl-kjpaw_psl.1.0.0.UPF
     MD5 check sum: eef08af8b58d9ec80f8fdb78829eb7cf
     Pseudo is Projector augmented-wave + core cor, Zval =  6.0
     Generated using 'atomic' code by A. Dal Corso  v.6.7MaX
     Shape of augmentation charge: PSQ
     Using radial grid of 1095 points,  4 beta functions with: 
                l(1) =   0
                l(2) =   0
                l(3) =   1
                l(4) =   1
     Q(r) pseudized with 0 coefficients 


     atomic species   valence    mass     pseudopotential
        Pt            10.00   195.08400     Pt( 1.00)
        C              4.00    12.01100     C ( 1.00)
        H              1.00     1.00800     H ( 1.00)
        O              6.00    15.99900     O ( 1.00)

     No symmetry found



   Cartesian axes

     site n.     atom                  positions (alat units)
         1           Pt  tau(   1) = (   0.0000000   0.0000000   1.0017346  )
         2           Pt  tau(   2) = (   0.3333333   0.0000000   1.0017346  )
         3           Pt  tau(   3) = (   0.6666667   0.0000000   1.0017346  )
         4           Pt  tau(   4) = (   0.1666667   0.2886751   1.0017346  )
         5           Pt  tau(   5) = (   0.5000000   0.2886751   1.0017346  )
         6           Pt  tau(   6) = (   0.8333333   0.2886751   1.0017346  )
         7           Pt  tau(   7) = (   0.3333333   0.5773503   1.0017346  )
         8           Pt  tau(   8) = (   0.6666667   0.5773503   1.0017346  )
         9           Pt  tau(   9) = (   1.0000000   0.5773503   1.0017346  )
        10           Pt  tau(  10) = (   0.1666667   0.0962250   1.2739001  )
        11           Pt  tau(  11) = (   0.5000000   0.0962250   1.2739001  )
        12           Pt  tau(  12) = (   0.8333333   0.0962250   1.2739001  )
        13           Pt  tau(  13) = (   0.3333333   0.3849002   1.2739001  )
        14           Pt  tau(  14) = (   0.6666667   0.3849002   1.2739001  )
        15           Pt  tau(  15) = (   1.0000000   0.3849002   1.2739001  )
        16           Pt  tau(  16) = (   0.5000000   0.6735753   1.2739001  )
        17           Pt  tau(  17) = (   0.8333333   0.6735753   1.2739001  )
        18           Pt  tau(  18) = (   1.1666667   0.6735753   1.2739001  )
        19           Pt  tau(  19) = (   0.0001616   0.1920121   1.5417194  )
        20           Pt  tau(  20) = (   0.3341006   0.1927216   1.5439215  )
        21           Pt  tau(  21) = (   0.6661195   0.1925775   1.5434187  )
        22           Pt  tau(  22) = (   0.1665860   0.4811626   1.5425297  )
        23           Pt  tau(  23) = (   0.4999802   0.4804181   1.5436794  )
        24           Pt  tau(  24) = (   0.8333944   0.4812404   1.5423998  )
        25           Pt  tau(  25) = (   0.3335158   0.7698559   1.5421611  )
        26           Pt  tau(  26) = (   0.6665141   0.7699585   1.5420732  )
        27           Pt  tau(  27) = (   0.9999535   0.7696502   1.5426336  )
        28           Pt  tau(  28) = (   0.0000549  -0.0001434   1.8172835  )
        29           Pt  tau(  29) = (   0.3331471  -0.0006235   1.8164446  )
        30           Pt  tau(  30) = (   0.6669107  -0.0007619   1.8162402  )
        31           Pt  tau(  31) = (   0.1659337   0.2886272   1.8157965  )
        32           Pt  tau(  32) = (   0.5007359   0.2890835   1.8205259  )
        33           Pt  tau(  33) = (   0.8346041   0.2885692   1.8150831  )
        34           Pt  tau(  34) = (   0.3329529   0.5780195   1.8162185  )
        35           Pt  tau(  35) = (   0.6671490   0.5782940   1.8159307  )
        36           Pt  tau(  36) = (   1.0000934   0.5774020   1.8173019  )
        37           C   tau(  37) = (   0.6530135   0.3457319   2.2211333  )
        38           C   tau(  38) = (   0.3727103   0.3361273   2.2202048  )
        39           H   tau(  39) = (   0.6570769   0.3086937   2.3448914  )
        40           H   tau(  40) = (   0.7544739   0.2981409   2.1584075  )
        41           H   tau(  41) = (   0.6550384   0.4748613   2.2146257  )
        42           H   tau(  42) = (   0.3607001   0.4645658   2.2113689  )
        43           H   tau(  43) = (   0.3713028   0.3010216   2.3445873  )
        44           O   tau(  44) = (   0.5150276   0.2829629   2.1463735  )
        45           H   tau(  45) = (   0.2754968   0.2796418   2.1594038  )

     number of k points=    13  Marzari-Vanderbilt smearing, width (Ry)=  0.0200
                       cart. coord. in units 2pi/alat
        k(    1) = (   0.0000000   0.0000000   0.0000000), wk =   0.0800000
        k(    2) = (   0.0000000   0.2309401   0.0000000), wk =   0.1600000
        k(    3) = (   0.0000000   0.4618802   0.0000000), wk =   0.1600000
        k(    4) = (   0.2000000  -0.1154701   0.0000000), wk =   0.1600000
        k(    5) = (   0.2000000   0.1154701   0.0000000), wk =   0.1600000
        k(    6) = (   0.2000000   0.3464102   0.0000000), wk =   0.1600000
        k(    7) = (   0.2000000  -0.5773503   0.0000000), wk =   0.1600000
        k(    8) = (   0.2000000  -0.3464102   0.0000000), wk =   0.1600000
        k(    9) = (   0.4000000  -0.2309401   0.0000000), wk =   0.1600000
        k(   10) = (   0.4000000  -0.0000000   0.0000000), wk =   0.1600000
        k(   11) = (   0.4000000   0.2309401   0.0000000), wk =   0.1600000
        k(   12) = (   0.4000000  -0.6928203   0.0000000), wk =   0.1600000
        k(   13) = (   0.4000000  -0.4618802   0.0000000), wk =   0.1600000

     Dense  grid:   748433 G-vectors     FFT dimensions: (  80,  80, 270)

     Estimated max dynamical RAM per process >       9.15 GB

     Check: negative core charge=   -0.000002

     Initial potential from superposition of free atoms

     starting charge  379.99375, renormalised to  380.00000

     negative rho (up, down):  1.148E-02 0.000E+00


     %%%%%%%%%%%%%%%%%%%%%%%%%%%%%%%%%%%%%%%%%%%%%%%%%%%%%%%%%%%%%%%%%%%%%%%%
     %                                                                      %
     % You are using vdW-DF, which was implemented by the Thonhauser group. %
     % Please cite the following two papers that made this development      %
     % possible and the two reviews that describe the various versions:     %
     %                                                                      %
     %   T. Thonhauser et al., PRL 115, 136402 (2015).                      %
     %   T. Thonhauser et al., PRB 76, 125112 (2007).                       %
     %   K. Berland et al., Rep. Prog. Phys. 78, 066501 (2015).             %
     %   D.C. Langreth et al., J. Phys.: Condens. Matter 21, 084203 (2009). %
     %                                                                      %
     %                                                                      %
     % If you are calculating the stress with vdW-DF, please also cite:     %
     %                                                                      %
     %   R. Sabatini et al., J. Phys.: Condens. Matter 24, 424209 (2012).   %
     %                                                                      %
     %%%%%%%%%%%%%%%%%%%%%%%%%%%%%%%%%%%%%%%%%%%%%%%%%%%%%%%%%%%%%%%%%%%%%%%%


     Starting wfcs are  342 randomized atomic wfcs
     Checking if some PAW data can be deallocated... 

     total cpu time spent up to now is      352.1 secs

     Self-consistent Calculation

     iteration #  1     ecut=    60.00 Ry     beta= 0.70
     Davidson diagonalization with overlap
     ethr =  1.00E-02,  avg # of iterations =  2.6

     Threshold (ethr) on eigenvalues was too large:
     Diagonalizing with lowered threshold

     Davidson diagonalization with overlap
     ethr =  5.94E-04,  avg # of iterations =  5.5

     negative rho (up, down):  1.070E-02 0.000E+00

     total cpu time spent up to now is     1708.7 secs

     total energy              =  -27841.94556758 Ry
     estimated scf accuracy    <       2.47335771 Ry

     iteration #  2     ecut=    60.00 Ry     beta= 0.70
     Davidson diagonalization with overlap
     ethr =  6.51E-04,  avg # of iterations =  3.8

     negative rho (up, down):  9.133E-03 0.000E+00

     total cpu time spent up to now is     2313.8 secs

     total energy              =  -27842.01631531 Ry
     estimated scf accuracy    <       1.08642714 Ry

     iteration #  3     ecut=    60.00 Ry     beta= 0.70
     Davidson diagonalization with overlap
     ethr =  2.86E-04,  avg # of iterations =  9.7

     negative rho (up, down):  5.274E-03 0.000E+00

     total cpu time spent up to now is     2978.4 secs

     total energy              =  -27842.02949301 Ry
     estimated scf accuracy    <       0.31608100 Ry

     iteration #  4     ecut=    60.00 Ry     beta= 0.70
     Davidson diagonalization with overlap
     ethr =  8.32E-05,  avg # of iterations = 13.4

     negative rho (up, down):  3.091E-03 0.000E+00

     total cpu time spent up to now is     3732.7 secs

     total energy              =  -27842.08397632 Ry
     estimated scf accuracy    <       0.07827403 Ry

     iteration #  5     ecut=    60.00 Ry     beta= 0.70
     Davidson diagonalization with overlap
     c_bands:  1 eigenvalues not converged
     c_bands:  1 eigenvalues not converged
     ethr =  2.06E-05,  avg # of iterations =  9.0

     negative rho (up, down):  2.230E-03 0.000E+00

     total cpu time spent up to now is     4396.8 secs

     total energy              =  -27842.09161858 Ry
     estimated scf accuracy    <       0.04154104 Ry

     iteration #  6     ecut=    60.00 Ry     beta= 0.70
     Davidson diagonalization with overlap
     c_bands:  1 eigenvalues not converged
     ethr =  1.09E-05,  avg # of iterations =  7.4

     negative rho (up, down):  1.926E-03 0.000E+00

     total cpu time spent up to now is     4968.5 secs

     total energy              =  -27842.09265042 Ry
     estimated scf accuracy    <       0.03290096 Ry

     iteration #  7     ecut=    60.00 Ry     beta= 0.70
     Davidson diagonalization with overlap
     c_bands:  1 eigenvalues not converged
     c_bands:  1 eigenvalues not converged
     ethr =  8.66E-06,  avg # of iterations = 11.8

     negative rho (up, down):  2.369E-03 0.000E+00

     total cpu time spent up to now is     5576.5 secs

     total energy              =  -27842.09343675 Ry
     estimated scf accuracy    <       0.00835022 Ry

     iteration #  8     ecut=    60.00 Ry     beta= 0.70
     Davidson diagonalization with overlap
     c_bands:  1 eigenvalues not converged
     ethr =  2.20E-06,  avg # of iterations = 13.2

     negative rho (up, down):  8.998E-03 0.000E+00

     total cpu time spent up to now is     6286.2 secs

     total energy              =  -27842.09423096 Ry
     estimated scf accuracy    <       0.01645500 Ry

     iteration #  9     ecut=    60.00 Ry     beta= 0.70
     Davidson diagonalization with overlap
     c_bands:  1 eigenvalues not converged
     c_bands:  3 eigenvalues not converged
     c_bands:  1 eigenvalues not converged
     ethr =  2.20E-06,  avg # of iterations = 12.5

     negative rho (up, down):  1.415E-02 0.000E+00

     total cpu time spent up to now is     6893.2 secs

     total energy              =  -27842.09437716 Ry
     estimated scf accuracy    <       0.00322994 Ry

     iteration # 10     ecut=    60.00 Ry     beta= 0.70
     Davidson diagonalization with overlap
     c_bands:  2 eigenvalues not converged
     c_bands:  2 eigenvalues not converged
     c_bands:  2 eigenvalues not converged
     ethr =  8.50E-07,  avg # of iterations =  8.9

     negative rho (up, down):  1.391E-02 0.000E+00

     total cpu time spent up to now is     7462.6 secs

     total energy              =  -27842.09458519 Ry
     estimated scf accuracy    <       0.00177196 Ry

     iteration # 11     ecut=    60.00 Ry     beta= 0.70
     Davidson diagonalization with overlap
     c_bands:  2 eigenvalues not converged
     c_bands:  1 eigenvalues not converged
     ethr =  4.66E-07,  avg # of iterations =  6.2

     negative rho (up, down):  1.176E-02 0.000E+00

     total cpu time spent up to now is     8007.0 secs

     total energy              =  -27842.09466311 Ry
     estimated scf accuracy    <       0.00067496 Ry

     iteration # 12     ecut=    60.00 Ry     beta= 0.70
     Davidson diagonalization with overlap
     c_bands:  1 eigenvalues not converged
     c_bands:  1 eigenvalues not converged
     ethr =  1.78E-07,  avg # of iterations =  8.5

     negative rho (up, down):  1.099E-02 0.000E+00

     total cpu time spent up to now is     8577.9 secs

     total energy              =  -27842.09473187 Ry
     estimated scf accuracy    <       0.00037402 Ry

     iteration # 13     ecut=    60.00 Ry     beta= 0.70
     Davidson diagonalization with overlap
     ethr =  9.84E-08,  avg # of iterations =  4.8

     negative rho (up, down):  1.095E-02 0.000E+00

     total cpu time spent up to now is     9118.0 secs

     total energy              =  -27842.09476232 Ry
     estimated scf accuracy    <       0.00009585 Ry

     iteration # 14     ecut=    60.00 Ry     beta= 0.70
     Davidson diagonalization with overlap
     ethr =  2.52E-08,  avg # of iterations =  4.2

     negative rho (up, down):  1.075E-02 0.000E+00

     total cpu time spent up to now is     9758.5 secs

     total energy              =  -27842.09478666 Ry
     estimated scf accuracy    <       0.00005637 Ry

     iteration # 15     ecut=    60.00 Ry     beta= 0.70
     Davidson diagonalization with overlap
     ethr =  1.48E-08,  avg # of iterations =  1.9

     negative rho (up, down):  1.061E-02 0.000E+00

     total cpu time spent up to now is    10264.3 secs

     total energy              =  -27842.09479002 Ry
     estimated scf accuracy    <       0.00003008 Ry

     iteration # 16     ecut=    60.00 Ry     beta= 0.70
     Davidson diagonalization with overlap
     ethr =  7.92E-09,  avg # of iterations =  1.9

     negative rho (up, down):  1.107E-02 0.000E+00

     total cpu time spent up to now is    10765.5 secs

     total energy              =  -27842.09478888 Ry
     estimated scf accuracy    <       0.00002180 Ry

     iteration # 17     ecut=    60.00 Ry     beta= 0.70
     Davidson diagonalization with overlap
     ethr =  5.74E-09,  avg # of iterations =  1.4

     negative rho (up, down):  1.179E-02 0.000E+00

     total cpu time spent up to now is    11239.5 secs

     total energy              =  -27842.09478559 Ry
     estimated scf accuracy    <       0.00001207 Ry

     iteration # 18     ecut=    60.00 Ry     beta= 0.70
     Davidson diagonalization with overlap
     ethr =  3.18E-09,  avg # of iterations =  2.0

     negative rho (up, down):  1.215E-02 0.000E+00

     total cpu time spent up to now is    11765.2 secs

     total energy              =  -27842.09478534 Ry
     estimated scf accuracy    <       0.00000585 Ry

     iteration # 19     ecut=    60.00 Ry     beta= 0.70
     Davidson diagonalization with overlap
     ethr =  1.54E-09,  avg # of iterations =  2.0

     negative rho (up, down):  1.224E-02 0.000E+00

     total cpu time spent up to now is    12294.0 secs

     total energy              =  -27842.09478556 Ry
     estimated scf accuracy    <       0.00000319 Ry

     iteration # 20     ecut=    60.00 Ry     beta= 0.70
     Davidson diagonalization with overlap
     ethr =  8.40E-10,  avg # of iterations =  2.2

     negative rho (up, down):  1.224E-02 0.000E+00

     total cpu time spent up to now is    12809.3 secs

     total energy              =  -27842.09478563 Ry
     estimated scf accuracy    <       0.00000167 Ry

     iteration # 21     ecut=    60.00 Ry     beta= 0.70
     Davidson diagonalization with overlap
     ethr =  4.41E-10,  avg # of iterations =  2.0

     negative rho (up, down):  1.233E-02 0.000E+00

     total cpu time spent up to now is    13329.9 secs

     total energy              =  -27842.09478523 Ry
     estimated scf accuracy    <       0.00000123 Ry

     iteration # 22     ecut=    60.00 Ry     beta= 0.70
     Davidson diagonalization with overlap
     ethr =  3.24E-10,  avg # of iterations =  2.0

     negative rho (up, down):  1.273E-02 0.000E+00

     total cpu time spent up to now is    13818.2 secs

     End of self-consistent calculation

          k = 0.0000 0.0000 0.0000 ( 93455 PWs)   bands (ev):

   -19.5431 -11.5149  -9.4376  -7.0970  -5.8043  -5.3115  -5.2126  -5.0285
    -4.7017  -4.6789  -4.6769  -4.6757  -4.6723  -4.6671  -4.6658  -4.6487
    -4.1211  -4.1165  -4.1159  -4.1147  -4.1130  -4.1127  -3.6480  -3.6472
    -3.6434  -3.6397  -3.6389  -3.6375  -3.4377  -3.4288  -3.4272  -3.4267
    -3.4257  -3.4221  -3.2869  -3.1979  -3.1975  -3.1922  -3.1893  -3.1874
    -3.1832  -3.1825  -3.1819  -3.1760  -3.1712  -3.1641  -3.1534  -2.8449
    -2.5818  -2.5811  -2.5523  -2.5506  -2.5042  -2.4976  -2.4938  -2.4936
    -2.4917  -2.4857  -2.3551  -2.3546  -2.2635  -2.2564  -1.7708  -1.7551
    -1.7495  -1.7471  -1.7457  -1.7396  -1.7005  -1.6772  -1.5894  -1.5892
    -1.5606  -1.5602  -1.5504  -1.5477  -1.5340  -1.5273  -1.5264  -1.5234
    -1.5226  -1.5193  -1.4871  -1.4868  -1.4770  -1.3382  -1.3334  -1.3312
    -1.3299  -1.3297  -1.2932  -1.1847  -1.1755  -1.1747  -1.1698  -1.1676
    -1.1663  -1.0808  -1.0807  -0.9849  -0.9847  -0.9296  -0.9272  -0.9146
    -0.9139  -0.8752  -0.8738  -0.8640  -0.8577  -0.7190  -0.7131  -0.7094
    -0.7081  -0.7042  -0.7033  -0.6481  -0.2172  -0.2161  -0.2139  -0.2107
    -0.2097  -0.2085  -0.1586  -0.1536  -0.1407  -0.1372  -0.1369  -0.1295
    -0.0714  -0.0586   0.0282   0.0928   0.1029   0.1041   0.1150   0.1174
     0.2000   0.2439   0.2571   0.2582   0.2618   0.2664   0.2665   0.5162
     0.5176   0.5189   0.5211   0.5238   0.5276   0.5987   0.6004   0.7762
     0.7773   0.7802   0.7870   0.7871   0.8094   0.9485   0.9498   0.9550
     0.9558   0.9565   0.9662   0.9904   0.9926   0.9946   0.9998   1.0013
     1.0551   1.1271   1.1440   1.1451   1.1476   1.1483   1.1515   1.1571
     1.1624   1.2414   1.2443   1.2556   1.2587   1.2590   1.2600   1.2658
     1.2682   1.3528   1.3540   1.3613   1.3637   1.3649   1.3678   1.4602
     1.4625   1.4671   1.4676   1.4783   1.4786   1.5968   1.6863   1.6877
     1.7876   1.7886   1.7984   1.7990   1.8007   1.8059   2.6118   2.6692
     2.6728   2.6774   2.6864   2.6936   2.8426   4.9736   4.9961   5.0022
     5.0078   5.0167   5.0987   5.5631   6.3669   6.5522   6.5529   6.6047
     6.6054   6.6150   6.6153   6.6940

          k = 0.0000 0.2309 0.0000 ( 93490 PWs)   bands (ev):

   -19.5431 -11.5150  -9.4375  -6.9501  -5.6638  -5.3114  -5.2294  -5.1628
    -5.0287  -4.7896  -4.7874  -4.5563  -4.5201  -4.4812  -4.4386  -4.4375
    -4.2287  -4.2101  -4.0568  -4.0521  -4.0371  -4.0340  -3.7562  -3.6226
    -3.6217  -3.5933  -3.5870  -3.5270  -3.5257  -3.4610  -3.4580  -3.4553
    -3.4482  -3.3701  -3.3474  -3.3435  -3.2981  -3.2276  -3.2243  -3.2199
    -3.1693  -3.1637  -3.0095  -2.9988  -2.9776  -2.9735  -2.9443  -2.8437
    -2.7065  -2.7052  -2.6668  -2.6196  -2.6190  -2.5782  -2.5728  -2.4043
    -2.3924  -2.3331  -2.3271  -2.2857  -2.2553  -2.2528  -2.0472  -1.9586
    -1.9477  -1.8730  -1.8643  -1.8288  -1.7955  -1.7642  -1.7437  -1.7307
    -1.7219  -1.7087  -1.6593  -1.6363  -1.5872  -1.5735  -1.5557  -1.5463
    -1.4841  -1.4617  -1.4598  -1.4068  -1.3948  -1.3817  -1.3233  -1.2908
    -1.2757  -1.2732  -1.2624  -1.1789  -1.1776  -1.1696  -1.1605  -1.1569
    -1.0888  -1.0835  -1.0616  -1.0499  -0.9911  -0.9868  -0.9851  -0.9394
    -0.9374  -0.8968  -0.8922  -0.8819  -0.7845  -0.7187  -0.7126  -0.7047
    -0.6981  -0.6908  -0.6797  -0.6667  -0.6578  -0.6116  -0.6091  -0.5886
    -0.5811  -0.3948  -0.2976  -0.2415  -0.1962  -0.1941  -0.1842  -0.1752
    -0.1572  -0.1555  -0.0093   0.0062   0.0229   0.0718   0.1357   0.1650
     0.1775   0.1890   0.2053   0.2824   0.2905   0.3005   0.3172   0.3828
     0.3949   0.3962   0.4248   0.4267   0.6141   0.6265   0.6460   0.6475
     0.6562   0.6802   0.6853   0.7691   0.7899   0.7979   0.8254   0.8438
     0.8893   0.8965   0.8987   0.9043   1.0112   1.0146   1.0403   1.0582
     1.1364   1.1843   1.1884   1.1932   1.2003   1.2148   1.2559   1.2697
     1.3240   1.3298   1.3861   1.3911   1.3951   1.4393   1.4442   1.4456
     1.4506   1.4514   1.4649   1.5231   1.5306   1.6810   1.6830   1.6943
     1.7118   1.7226   1.7257   1.7588   1.8003   1.8014   1.8162   1.9154
     1.9169   1.9395   2.0977   2.1022   2.1037   2.1283   2.1973   2.5560
     2.5863   3.2628   3.2740   3.3350   3.4437   4.2886   4.7329   4.7632
     5.4215   5.4227   5.5410   5.5670   5.6844   5.8561   6.3911   6.3951
     6.4558   6.5249   6.7062   6.7870

          k = 0.0000 0.4619 0.0000 ( 93540 PWs)   bands (ev):

   -19.5432 -11.5150  -9.4375  -6.5272  -5.8929  -5.3178  -5.3114  -5.1431
    -5.0285  -4.8234  -4.8211  -4.6680  -4.4554  -4.3014  -4.1710  -4.1310
    -4.0971  -4.0968  -3.9206  -3.9137  -3.8823  -3.8760  -3.8704  -3.7502
    -3.7158  -3.7131  -3.6638  -3.6615  -3.6032  -3.5737  -3.5253  -3.5250
    -3.4939  -3.2993  -3.2534  -3.2515  -3.2397  -3.2360  -3.2353  -3.2269
    -3.0139  -3.0096  -2.9535  -2.9532  -2.9419  -2.9360  -2.8406  -2.7595
    -2.6565  -2.6535  -2.6458  -2.6397  -2.5789  -2.5772  -2.5269  -2.5165
    -2.5056  -2.4347  -2.4333  -2.3054  -2.3000  -2.2569  -2.2472  -2.1543
    -2.1190  -2.0772  -2.0735  -2.0714  -1.9310  -1.8578  -1.8496  -1.8418
    -1.8267  -1.7586  -1.7460  -1.7206  -1.6695  -1.6071  -1.5992  -1.5855
    -1.5796  -1.4686  -1.4609  -1.4586  -1.4569  -1.4432  -1.3834  -1.3652
    -1.3637  -1.3575  -1.3370  -1.3289  -1.3276  -1.3129  -1.2745  -1.2060
    -1.1930  -1.1791  -1.1783  -1.1441  -1.1386  -1.1043  -1.0317  -0.9710
    -0.9350  -0.9335  -0.8940  -0.8901  -0.8642  -0.8509  -0.8438  -0.7217
    -0.7185  -0.7022  -0.6461  -0.6378  -0.5940  -0.4603  -0.4586  -0.4277
    -0.3717  -0.3017  -0.2848  -0.2731  -0.2528  -0.2521  -0.2487  -0.2414
    -0.1821  -0.1570  -0.1301  -0.1169  -0.1122  -0.0919  -0.0790  -0.0771
    -0.0387  -0.0198   0.0873   0.0960   0.1226   0.1693   0.1912   0.2679
     0.2844   0.2881   0.4208   0.4257   0.4854   0.5358   0.5895   0.5960
     0.6173   0.6382   0.6771   0.6795   0.7337   0.7430   0.7865   0.7906
     0.8456   0.8943   0.9036   0.9486   0.9494   0.9641   0.9659   1.0436
     1.1448   1.1594   1.2233   1.2367   1.2449   1.2479   1.3317   1.3488
     1.3548   1.4454   1.4486   1.4526   1.4798   1.5318   1.5482   1.5496
     1.5605   1.6783   1.6862   1.7013   1.7103   1.7145   1.7197   1.7365
     1.7476   1.9086   1.9493   1.9537   1.9571   1.9654   2.1473   2.1813
     2.5651   2.5827   2.6265   2.8794   2.9973   2.9999   3.3973   3.3981
     3.5939   3.7338   4.2093   4.2121   4.2292   4.3644   4.4819   4.4924
     4.6284   4.6698   4.8776   4.8809   5.4924   5.5124   5.9382   6.0341
     6.0548   6.4452   6.5161   6.5544

          k = 0.2000-0.1155 0.0000 ( 93490 PWs)   bands (ev):

   -19.5431 -11.5152  -9.4370  -6.9500  -5.6630  -5.3121  -5.2186  -5.1731
    -5.0279  -4.7887  -4.7868  -4.5567  -4.5206  -4.4822  -4.4386  -4.4371
    -4.2323  -4.2104  -4.0563  -4.0521  -4.0366  -4.0320  -3.7565  -3.6225
    -3.6215  -3.5957  -3.5888  -3.5265  -3.5243  -3.4601  -3.4570  -3.4543
    -3.4484  -3.3738  -3.3472  -3.3436  -3.2950  -3.2301  -3.2236  -3.2180
    -3.1675  -3.1655  -3.0090  -2.9999  -2.9766  -2.9732  -2.9451  -2.8487
    -2.7062  -2.7053  -2.6639  -2.6211  -2.6182  -2.5775  -2.5755  -2.4030
    -2.3947  -2.3330  -2.3273  -2.2848  -2.2567  -2.2532  -2.0482  -1.9553
    -1.9480  -1.8688  -1.8673  -1.8346  -1.7929  -1.7549  -1.7477  -1.7314
    -1.7201  -1.7076  -1.6600  -1.6520  -1.5865  -1.5641  -1.5557  -1.5432
    -1.4840  -1.4623  -1.4596  -1.4072  -1.3969  -1.3768  -1.3222  -1.2904
    -1.2756  -1.2735  -1.2644  -1.1801  -1.1776  -1.1703  -1.1643  -1.1576
    -1.0899  -1.0836  -1.0600  -1.0494  -0.9891  -0.9858  -0.9843  -0.9417
    -0.9371  -0.8986  -0.8918  -0.8820  -0.7832  -0.7164  -0.7116  -0.7078
    -0.7050  -0.6932  -0.6763  -0.6713  -0.6566  -0.6165  -0.6097  -0.5885
    -0.5810  -0.3732  -0.2981  -0.2426  -0.1983  -0.1927  -0.1868  -0.1750
    -0.1563  -0.1513  -0.0008   0.0064   0.0127   0.0761   0.1314   0.1647
     0.1765   0.1894   0.2040   0.2846   0.2890   0.2984   0.3128   0.3832
     0.3954   0.3972   0.4217   0.4274   0.6141   0.6274   0.6461   0.6475
     0.6563   0.6802   0.6894   0.7669   0.7911   0.7989   0.8257   0.8423
     0.8897   0.8953   0.8985   0.9039   1.0107   1.0139   1.0399   1.0592
     1.1376   1.1852   1.1875   1.1922   1.2000   1.2161   1.2562   1.2713
     1.3243   1.3290   1.3851   1.3909   1.3953   1.4391   1.4439   1.4462
     1.4500   1.4526   1.4652   1.5234   1.5307   1.6807   1.6832   1.6939
     1.7120   1.7223   1.7259   1.7586   1.7994   1.8013   1.8161   1.9148
     1.9172   1.9394   2.0968   2.1020   2.1040   2.1303   2.2016   2.5506
     2.5867   3.2647   3.2688   3.3336   3.4500   4.2923   4.7233   4.7753
     5.4215   5.4230   5.5488   5.5568   5.6736   5.8646   6.3908   6.3936
     6.4427   6.5089   6.7860   6.8236

          k = 0.2000 0.1155 0.0000 ( 93490 PWs)   bands (ev):

   -19.5431 -11.5152  -9.4370  -6.9500  -5.6629  -5.3120  -5.2183  -5.1736
    -5.0281  -4.7881  -4.7871  -4.5568  -4.5207  -4.4825  -4.4380  -4.4373
    -4.2325  -4.2104  -4.0563  -4.0522  -4.0361  -4.0322  -3.7564  -3.6222
    -3.6216  -3.5967  -3.5890  -3.5264  -3.5238  -3.4596  -3.4568  -3.4548
    -3.4486  -3.3747  -3.3476  -3.3427  -3.2941  -3.2296  -3.2236  -3.2185
    -3.1676  -3.1655  -3.0086  -3.0003  -2.9765  -2.9729  -2.9451  -2.8487
    -2.7064  -2.7053  -2.6653  -2.6211  -2.6184  -2.5770  -2.5748  -2.4023
    -2.3949  -2.3324  -2.3271  -2.2851  -2.2562  -2.2536  -2.0485  -1.9540
    -1.9484  -1.8707  -1.8663  -1.8293  -1.7939  -1.7572  -1.7496  -1.7302
    -1.7195  -1.7076  -1.6597  -1.6467  -1.5874  -1.5676  -1.5559  -1.5470
    -1.4840  -1.4636  -1.4590  -1.4072  -1.3967  -1.3795  -1.3224  -1.2909
    -1.2746  -1.2726  -1.2640  -1.1810  -1.1779  -1.1703  -1.1616  -1.1577
    -1.0905  -1.0831  -1.0611  -1.0499  -0.9881  -0.9861  -0.9833  -0.9421
    -0.9356  -0.8974  -0.8931  -0.8813  -0.7827  -0.7167  -0.7122  -0.7073
    -0.7056  -0.6934  -0.6763  -0.6709  -0.6566  -0.6162  -0.6100  -0.5887
    -0.5780  -0.3746  -0.2979  -0.2425  -0.1981  -0.1939  -0.1866  -0.1750
    -0.1562  -0.1523   0.0039   0.0062   0.0118   0.0740   0.1309   0.1641
     0.1774   0.1885   0.2038   0.2838   0.2889   0.2981   0.3098   0.3830
     0.3954   0.3981   0.4215   0.4274   0.6129   0.6279   0.6470   0.6477
     0.6555   0.6784   0.6914   0.7657   0.7941   0.7986   0.8255   0.8436
     0.8908   0.8949   0.8985   0.9028   1.0110   1.0139   1.0400   1.0592
     1.1381   1.1858   1.1867   1.1905   1.1999   1.2156   1.2565   1.2705
     1.3244   1.3287   1.3844   1.3919   1.3953   1.4393   1.4441   1.4461
     1.4498   1.4515   1.4675   1.5234   1.5311   1.6805   1.6835   1.6945
     1.7120   1.7226   1.7261   1.7590   1.7997   1.8014   1.8161   1.9147
     1.9170   1.9394   2.0975   2.1018   2.1039   2.1297   2.2026   2.5501
     2.5871   3.2646   3.2681   3.3347   3.4493   4.2915   4.7219   4.7778
     5.4215   5.4230   5.5493   5.5568   5.6730   5.8643   6.3901   6.3922
     6.4373   6.5040   6.7915   6.8301

          k = 0.2000 0.3464 0.0000 ( 93514 PWs)   bands (ev):

   -19.5431 -11.5152  -9.4369  -6.6644  -5.4484  -5.4393  -5.4001  -5.3119
    -5.1699  -5.0281  -4.3617  -4.3580  -4.3334  -4.3234  -4.2888  -4.2817
    -4.2813  -4.2586  -4.1710  -4.1676  -3.7848  -3.7809  -3.7767  -3.7750
    -3.7119  -3.6904  -3.5474  -3.5263  -3.5192  -3.4972  -3.4955  -3.4275
    -3.3751  -3.3688  -3.3416  -3.3333  -3.2935  -3.2891  -3.2437  -3.2374
    -3.2030  -3.1960  -3.1228  -2.8647  -2.8474  -2.7536  -2.7479  -2.7371
    -2.7147  -2.7110  -2.6995  -2.6962  -2.6416  -2.6226  -2.4655  -2.4640
    -2.4544  -2.3769  -2.3493  -2.3002  -2.2963  -2.2779  -2.1985  -2.1945
    -2.0252  -2.0204  -2.0053  -1.9245  -1.9207  -1.8996  -1.8867  -1.8795
    -1.8126  -1.8072  -1.7039  -1.6419  -1.6350  -1.6323  -1.6073  -1.5655
    -1.5594  -1.5022  -1.4977  -1.4907  -1.4741  -1.3634  -1.3326  -1.3279
    -1.3131  -1.3122  -1.3088  -1.2952  -1.2629  -1.2453  -1.1767  -1.1711
    -1.1496  -1.1333  -1.0790  -1.0741  -1.0191  -0.9908  -0.9570  -0.9521
    -0.9447  -0.9031  -0.8975  -0.8961  -0.8779  -0.8722  -0.8527  -0.8414
    -0.8335  -0.7821  -0.7757  -0.6762  -0.6370  -0.6297  -0.5623  -0.5600
    -0.5560  -0.5425  -0.3687  -0.3659  -0.2319  -0.2096  -0.1779  -0.1726
    -0.1603  -0.1449  -0.1386  -0.0993  -0.0886  -0.0627  -0.0537  -0.0068
     0.0311   0.1119   0.1470   0.2220   0.2402   0.2691   0.2758   0.2957
     0.3275   0.3455   0.4665   0.4729   0.4816   0.5292   0.5320   0.6053
     0.6604   0.6773   0.6906   0.6936   0.7645   0.7686   0.7742   0.7856
     0.7965   0.8086   0.8146   0.8261   0.8389   0.9559   1.0218   1.0348
     1.1616   1.1669   1.1968   1.3324   1.3337   1.3374   1.3542   1.4462
     1.4668   1.4827   1.4857   1.4958   1.5261   1.5310   1.5514   1.5548
     1.5677   1.6145   1.6189   1.6401   1.7081   1.7317   1.7368   1.7676
     1.7705   1.8140   1.9487   1.9996   2.0015   2.0769   2.0833   2.0870
     2.1182   2.2325   2.2386   2.6887   2.7615   2.7671   3.3003   3.3021
     3.3325   3.3532   4.0058   4.0201   4.1325   4.2220   4.2649   4.2980
     4.9294   5.4109   5.4642   5.4787   5.6519   5.8505   6.0676   6.1106
     6.2058   6.2380   6.2409   6.2986

          k = 0.2000-0.5774 0.0000 ( 93536 PWs)   bands (ev):

   -19.5431 -11.5152  -9.4369  -6.1297  -6.1295  -5.5222  -5.3120  -5.2400
    -5.0341  -4.8659  -4.8346  -4.3581  -4.3512  -4.2207  -4.1865  -4.0791
    -4.0756  -3.9712  -3.9671  -3.8471  -3.8430  -3.8418  -3.8058  -3.8013
    -3.7789  -3.7667  -3.6501  -3.6367  -3.6341  -3.5939  -3.5908  -3.4947
    -3.4031  -3.3811  -3.3331  -3.2816  -3.2224  -3.2214  -3.2065  -3.2045
    -3.1867  -3.0791  -3.0767  -2.9856  -2.9795  -2.8559  -2.8014  -2.7958
    -2.7414  -2.6410  -2.6378  -2.5880  -2.5848  -2.4764  -2.4285  -2.3821
    -2.3794  -2.3592  -2.3157  -2.3094  -2.2818  -2.1797  -2.1773  -2.1478
    -2.1462  -2.1394  -2.1361  -2.1343  -2.0635  -2.0608  -1.9360  -1.9123
    -1.8612  -1.8582  -1.7452  -1.7429  -1.7047  -1.7008  -1.6650  -1.6266
    -1.6137  -1.6075  -1.5278  -1.5059  -1.4981  -1.4886  -1.4540  -1.4308
    -1.3809  -1.3783  -1.3351  -1.2832  -1.2792  -1.2626  -1.2497  -1.1490
    -1.1007  -1.0991  -1.0595  -1.0550  -1.0144  -1.0118  -0.9996  -0.9957
    -0.9648  -0.9630  -0.9179  -0.9160  -0.8804  -0.8657  -0.8625  -0.8593
    -0.8520  -0.8423  -0.8150  -0.7509  -0.7472  -0.7421  -0.5425  -0.5247
    -0.4359  -0.4308  -0.3268  -0.3181  -0.3114  -0.2836  -0.2326  -0.2304
    -0.2195  -0.2055  -0.1924  -0.1112  -0.0841  -0.0796  -0.0435  -0.0049
     0.0147   0.0604   0.0712   0.0972   0.1901   0.2667   0.3265   0.3304
     0.3509   0.3553   0.4416   0.4514   0.4540   0.4743   0.4829   0.5057
     0.5291   0.5427   0.6478   0.6550   0.6703   0.7165   0.7212   0.7379
     0.7507   0.7622   0.7834   0.9241   0.9737   1.0085   1.0799   1.0890
     1.1668   1.1704   1.2522   1.2948   1.3021   1.3146   1.4064   1.4220
     1.4797   1.5113   1.5225   1.5307   1.5413   1.5712   1.5860   1.6209
     1.6891   1.6902   1.7148   1.7384   1.7409   1.7449   1.7780   1.8111
     1.9462   1.9523   1.9544   1.9588   1.9650   2.0317   2.1103   2.1466
     2.2836   3.1052   3.1064   3.3140   3.3521   3.4159   3.5038   3.5087
     3.5168   3.9623   4.1155   4.1190   4.5725   4.5951   4.6105   4.7169
     4.7212   4.9351   5.0162   5.0541   5.1613   5.4565   5.5517   5.5555
     5.9509   6.1889   6.1977   6.2341

          k = 0.2000-0.3464 0.0000 ( 93514 PWs)   bands (ev):

   -19.5431 -11.5152  -9.4370  -6.6644  -5.4481  -5.4397  -5.4002  -5.3119
    -5.1696  -5.0280  -4.3612  -4.3581  -4.3337  -4.3231  -4.2897  -4.2820
    -4.2805  -4.2583  -4.1709  -4.1678  -3.7843  -3.7807  -3.7770  -3.7751
    -3.7117  -3.6906  -3.5475  -3.5263  -3.5189  -3.4968  -3.4955  -3.4279
    -3.3763  -3.3683  -3.3403  -3.3332  -3.2952  -3.2894  -3.2442  -3.2376
    -3.2026  -3.1958  -3.1225  -2.8639  -2.8485  -2.7535  -2.7479  -2.7371
    -2.7147  -2.7113  -2.6993  -2.6952  -2.6414  -2.6228  -2.4668  -2.4636
    -2.4552  -2.3766  -2.3494  -2.3006  -2.2960  -2.2775  -2.1975  -2.1951
    -2.0265  -2.0210  -2.0055  -1.9286  -1.9222  -1.8963  -1.8870  -1.8799
    -1.8128  -1.8071  -1.7061  -1.6418  -1.6345  -1.6297  -1.6030  -1.5650
    -1.5542  -1.5031  -1.4979  -1.4906  -1.4769  -1.3622  -1.3326  -1.3287
    -1.3136  -1.3125  -1.3087  -1.2949  -1.2627  -1.2457  -1.1769  -1.1714
    -1.1494  -1.1328  -1.0783  -1.0749  -1.0194  -0.9926  -0.9573  -0.9521
    -0.9452  -0.9034  -0.8979  -0.8951  -0.8784  -0.8710  -0.8536  -0.8409
    -0.8352  -0.7808  -0.7753  -0.6762  -0.6380  -0.6320  -0.5619  -0.5606
    -0.5552  -0.5404  -0.3691  -0.3658  -0.2307  -0.2097  -0.1797  -0.1719
    -0.1604  -0.1429  -0.1395  -0.0992  -0.0888  -0.0631  -0.0539  -0.0093
     0.0307   0.1185   0.1471   0.2215   0.2409   0.2693   0.2764   0.2952
     0.3283   0.3452   0.4674   0.4717   0.4825   0.5287   0.5313   0.6051
     0.6608   0.6762   0.6901   0.6940   0.7639   0.7693   0.7750   0.7857
     0.7964   0.8082   0.8149   0.8257   0.8382   0.9576   1.0221   1.0324
     1.1624   1.1660   1.1970   1.3326   1.3334   1.3369   1.3565   1.4462
     1.4666   1.4830   1.4850   1.4953   1.5257   1.5314   1.5514   1.5551
     1.5672   1.6133   1.6195   1.6398   1.7082   1.7322   1.7366   1.7672
     1.7706   1.8139   1.9484   1.9999   2.0005   2.0758   2.0831   2.0873
     2.1199   2.2323   2.2386   2.6891   2.7618   2.7661   3.3002   3.3019
     3.3321   3.3539   4.0064   4.0196   4.1326   4.2220   4.2646   4.2984
     4.9291   5.4109   5.4611   5.4803   5.6519   5.8526   6.0724   6.1109
     6.2056   6.2375   6.2400   6.2978

          k = 0.4000-0.2309 0.0000 ( 93540 PWs)   bands (ev):

   -19.5431 -11.5156  -9.4361  -6.5270  -5.8920  -5.3142  -5.3076  -5.1465
    -5.0273  -4.8216  -4.8207  -4.6739  -4.4561  -4.3016  -4.1719  -4.1333
    -4.0975  -4.0963  -3.9198  -3.9102  -3.8824  -3.8757  -3.8702  -3.7518
    -3.7161  -3.7130  -3.6634  -3.6615  -3.6041  -3.5773  -3.5255  -3.5248
    -3.4968  -3.2928  -3.2532  -3.2521  -3.2385  -3.2357  -3.2330  -3.2310
    -3.0138  -3.0070  -2.9541  -2.9507  -2.9410  -2.9390  -2.8564  -2.7544
    -2.6559  -2.6539  -2.6446  -2.6409  -2.5795  -2.5784  -2.5263  -2.5144
    -2.5071  -2.4358  -2.4337  -2.3057  -2.3013  -2.2557  -2.2486  -2.1552
    -2.1190  -2.0765  -2.0746  -2.0715  -1.9319  -1.8622  -1.8524  -1.8361
    -1.8283  -1.7675  -1.7444  -1.7241  -1.6567  -1.6064  -1.5920  -1.5865
    -1.5686  -1.4670  -1.4609  -1.4597  -1.4579  -1.4487  -1.3825  -1.3663
    -1.3599  -1.3569  -1.3359  -1.3325  -1.3290  -1.3139  -1.2725  -1.2060
    -1.1940  -1.1863  -1.1787  -1.1462  -1.1404  -1.1000  -1.0312  -0.9711
    -0.9381  -0.9333  -0.8966  -0.8917  -0.8632  -0.8545  -0.8449  -0.7222
    -0.7181  -0.7021  -0.6474  -0.6355  -0.5941  -0.4619  -0.4564  -0.4253
    -0.3717  -0.2961  -0.2898  -0.2737  -0.2611  -0.2523  -0.2495  -0.2445
    -0.1571  -0.1500  -0.1288  -0.1248  -0.1077  -0.1024  -0.0821  -0.0716
    -0.0307  -0.0162   0.0863   0.0973   0.1190   0.1667   0.1932   0.2595
     0.2855   0.2885   0.4202   0.4247   0.4871   0.5381   0.5880   0.5951
     0.6181   0.6384   0.6759   0.6796   0.7335   0.7423   0.7861   0.7909
     0.8464   0.8938   0.9031   0.9483   0.9490   0.9631   0.9660   1.0483
     1.1425   1.1585   1.2253   1.2376   1.2445   1.2476   1.3341   1.3490
     1.3539   1.4445   1.4483   1.4520   1.4801   1.5313   1.5490   1.5500
     1.5606   1.6785   1.6865   1.7012   1.7110   1.7139   1.7194   1.7362
     1.7507   1.9089   1.9488   1.9532   1.9567   1.9657   2.1473   2.1812
     2.5603   2.5843   2.6275   2.8818   2.9976   2.9995   3.3961   3.3990
     3.5975   3.7336   4.2091   4.2120   4.2298   4.3675   4.4778   4.4935
     4.6206   4.6852   4.8768   4.8814   5.4824   5.5121   5.9614   6.0317
     6.0485   6.4627   6.5031   6.5455

          k = 0.4000-0.0000 0.0000 ( 93514 PWs)   bands (ev):

   -19.5431 -11.5156  -9.4361  -6.6643  -5.4464  -5.4388  -5.3978  -5.3127
    -5.1716  -5.0270  -4.3619  -4.3582  -4.3308  -4.3284  -4.2867  -4.2838
    -4.2815  -4.2598  -4.1712  -4.1677  -3.7842  -3.7804  -3.7763  -3.7750
    -3.7117  -3.6900  -3.5477  -3.5251  -3.5211  -3.4977  -3.4963  -3.4277
    -3.3736  -3.3698  -3.3448  -3.3350  -3.2899  -3.2875  -3.2468  -3.2343
    -3.2008  -3.1978  -3.1224  -2.8686  -2.8506  -2.7541  -2.7481  -2.7347
    -2.7146  -2.7111  -2.6993  -2.6922  -2.6415  -2.6259  -2.4670  -2.4634
    -2.4563  -2.3768  -2.3492  -2.3001  -2.2970  -2.2804  -2.1975  -2.1946
    -2.0257  -2.0221  -2.0050  -1.9273  -1.9216  -1.8911  -1.8870  -1.8803
    -1.8155  -1.8068  -1.6888  -1.6555  -1.6341  -1.6310  -1.6035  -1.5650
    -1.5514  -1.5024  -1.4962  -1.4922  -1.4878  -1.3591  -1.3326  -1.3285
    -1.3141  -1.3123  -1.3086  -1.2951  -1.2625  -1.2448  -1.1791  -1.1736
    -1.1498  -1.1316  -1.0785  -1.0754  -1.0190  -0.9984  -0.9565  -0.9542
    -0.9441  -0.9006  -0.8990  -0.8921  -0.8782  -0.8711  -0.8543  -0.8452
    -0.8330  -0.7815  -0.7747  -0.6760  -0.6407  -0.6324  -0.5607  -0.5582
    -0.5529  -0.5340  -0.3671  -0.3661  -0.2278  -0.2085  -0.1823  -0.1704
    -0.1606  -0.1455  -0.1343  -0.0972  -0.0864  -0.0652  -0.0547  -0.0026
     0.0321   0.0942   0.1458   0.2224   0.2431   0.2691   0.2764   0.2936
     0.3317   0.3462   0.4682   0.4720   0.4789   0.5304   0.5316   0.6055
     0.6593   0.6773   0.6918   0.6957   0.7648   0.7681   0.7723   0.7832
     0.7965   0.8096   0.8134   0.8252   0.8401   0.9573   1.0252   1.0350
     1.1631   1.1668   1.1958   1.3309   1.3328   1.3381   1.3531   1.4473
     1.4670   1.4829   1.4859   1.4945   1.5254   1.5316   1.5515   1.5554
     1.5684   1.6154   1.6181   1.6405   1.7084   1.7312   1.7369   1.7679
     1.7703   1.8140   1.9484   2.0000   2.0011   2.0754   2.0834   2.0866
     2.1218   2.2312   2.2396   2.6904   2.7612   2.7678   3.2978   3.3037
     3.3283   3.3532   4.0061   4.0262   4.1307   4.2219   4.2695   4.2961
     4.9293   5.4108   5.4625   5.4848   5.6525   5.8482   6.0990   6.1113
     6.2188   6.2341   6.2480   6.2790

          k = 0.4000 0.2309 0.0000 ( 93540 PWs)   bands (ev):

   -19.5431 -11.5156  -9.4361  -6.5270  -5.8921  -5.3135  -5.3078  -5.1469
    -5.0275  -4.8214  -4.8205  -4.6743  -4.4564  -4.3016  -4.1720  -4.1337
    -4.0973  -4.0962  -3.9194  -3.9101  -3.8824  -3.8759  -3.8702  -3.7523
    -3.7158  -3.7134  -3.6630  -3.6618  -3.6044  -3.5778  -3.5254  -3.5247
    -3.4975  -3.2904  -3.2531  -3.2521  -3.2385  -3.2358  -3.2328  -3.2313
    -3.0134  -3.0065  -2.9543  -2.9509  -2.9405  -2.9389  -2.8560  -2.7568
    -2.6559  -2.6535  -2.6442  -2.6410  -2.5795  -2.5773  -2.5257  -2.5139
    -2.5081  -2.4359  -2.4330  -2.3052  -2.3014  -2.2543  -2.2498  -2.1550
    -2.1184  -2.0774  -2.0737  -2.0718  -1.9315  -1.8579  -1.8482  -1.8350
    -1.8305  -1.7644  -1.7439  -1.7214  -1.6674  -1.6075  -1.5931  -1.5916
    -1.5719  -1.4680  -1.4617  -1.4590  -1.4571  -1.4479  -1.3833  -1.3669
    -1.3609  -1.3574  -1.3359  -1.3318  -1.3279  -1.3130  -1.2722  -1.2061
    -1.1939  -1.1824  -1.1787  -1.1461  -1.1377  -1.1013  -1.0316  -0.9710
    -0.9388  -0.9318  -0.8972  -0.8907  -0.8639  -0.8559  -0.8444  -0.7221
    -0.7182  -0.7005  -0.6483  -0.6360  -0.5940  -0.4613  -0.4571  -0.4256
    -0.3718  -0.2963  -0.2892  -0.2739  -0.2619  -0.2522  -0.2480  -0.2450
    -0.1570  -0.1492  -0.1299  -0.1211  -0.1076  -0.1015  -0.0828  -0.0726
    -0.0312  -0.0158   0.0865   0.1004   0.1182   0.1589   0.1924   0.2567
     0.2856   0.2884   0.4205   0.4247   0.4891   0.5381   0.5878   0.5952
     0.6173   0.6374   0.6763   0.6797   0.7330   0.7439   0.7862   0.7918
     0.8464   0.8941   0.9031   0.9477   0.9495   0.9629   0.9644   1.0507
     1.1422   1.1574   1.2249   1.2381   1.2445   1.2475   1.3349   1.3491
     1.3536   1.4438   1.4482   1.4516   1.4829   1.5293   1.5479   1.5500
     1.5603   1.6787   1.6865   1.7018   1.7114   1.7140   1.7197   1.7368
     1.7509   1.9090   1.9491   1.9536   1.9569   1.9662   2.1472   2.1812
     2.5598   2.5843   2.6286   2.8819   2.9974   2.9992   3.3960   3.3994
     3.5974   3.7336   4.2092   4.2119   4.2307   4.3665   4.4771   4.4937
     4.6191   4.6877   4.8769   4.8817   5.4793   5.5127   5.9605   6.0321
     6.0480   6.4577   6.5029   6.5441

          k = 0.4000-0.6928 0.0000 ( 93536 PWs)   bands (ev):

   -19.5431 -11.5157  -9.4361  -6.1316  -6.1267  -5.5240  -5.3129  -5.2309
    -5.0295  -4.8735  -4.8396  -4.3568  -4.3490  -4.2209  -4.1865  -4.0785
    -4.0756  -3.9710  -3.9671  -3.8505  -3.8447  -3.8395  -3.8067  -3.8006
    -3.7839  -3.7667  -3.6497  -3.6358  -3.6343  -3.5936  -3.5910  -3.4956
    -3.4081  -3.3801  -3.3216  -3.2828  -3.2220  -3.2210  -3.2070  -3.2051
    -3.1869  -3.0782  -3.0774  -2.9839  -2.9795  -2.8673  -2.8004  -2.7947
    -2.7394  -2.6409  -2.6386  -2.5888  -2.5846  -2.4765  -2.4286  -2.3829
    -2.3798  -2.3588  -2.3147  -2.3092  -2.2817  -2.1805  -2.1764  -2.1507
    -2.1465  -2.1395  -2.1376  -2.1315  -2.0660  -2.0581  -1.9354  -1.9110
    -1.8638  -1.8615  -1.7443  -1.7318  -1.7046  -1.7003  -1.6603  -1.6300
    -1.6136  -1.6100  -1.5291  -1.5048  -1.4998  -1.4898  -1.4590  -1.4317
    -1.3822  -1.3784  -1.3355  -1.2816  -1.2797  -1.2619  -1.2461  -1.1494
    -1.1022  -1.0976  -1.0588  -1.0560  -1.0133  -1.0112  -1.0011  -0.9966
    -0.9654  -0.9627  -0.9173  -0.9132  -0.8811  -0.8708  -0.8626  -0.8594
    -0.8551  -0.8438  -0.8152  -0.7514  -0.7483  -0.7397  -0.5352  -0.5242
    -0.4365  -0.4304  -0.3273  -0.3177  -0.3111  -0.2895  -0.2338  -0.2263
    -0.2214  -0.2026  -0.1939  -0.1182  -0.0856  -0.0818  -0.0143  -0.0003
     0.0157   0.0512   0.0727   0.0951   0.1723   0.2659   0.3250   0.3349
     0.3527   0.3611   0.4411   0.4502   0.4589   0.4741   0.4855   0.5090
     0.5284   0.5362   0.6481   0.6510   0.6707   0.7144   0.7214   0.7380
     0.7512   0.7611   0.7803   0.9240   0.9788   1.0074   1.0812   1.0913
     1.1662   1.1698   1.2519   1.2937   1.3011   1.3144   1.4053   1.4236
     1.4803   1.5109   1.5217   1.5288   1.5438   1.5718   1.5863   1.6212
     1.6888   1.6909   1.7147   1.7398   1.7412   1.7453   1.7779   1.8128
     1.9465   1.9520   1.9542   1.9586   1.9656   2.0319   2.1076   2.1465
     2.2835   3.1051   3.1063   3.3190   3.3539   3.4114   3.5042   3.5079
     3.5190   3.9633   4.1153   4.1185   4.5720   4.5949   4.6098   4.7177
     4.7206   4.9355   5.0156   5.0651   5.1423   5.4614   5.5485   5.5586
     6.0414   6.1937   6.1973   6.2541

          k = 0.4000-0.4619 0.0000 ( 93536 PWs)   bands (ev):

   -19.5431 -11.5156  -9.4361  -6.1310  -6.1274  -5.5239  -5.3129  -5.2313
    -5.0296  -4.8728  -4.8395  -4.3566  -4.3493  -4.2209  -4.1865  -4.0790
    -4.0754  -3.9711  -3.9669  -3.8499  -3.8447  -3.8397  -3.8069  -3.8005
    -3.7833  -3.7668  -3.6492  -3.6369  -3.6337  -3.5935  -3.5911  -3.4953
    -3.4072  -3.3804  -3.3234  -3.2836  -3.2218  -3.2210  -3.2068  -3.2053
    -3.1870  -3.0783  -3.0772  -2.9843  -2.9793  -2.8680  -2.7999  -2.7950
    -2.7373  -2.6412  -2.6397  -2.5890  -2.5848  -2.4762  -2.4284  -2.3834
    -2.3796  -2.3588  -2.3157  -2.3092  -2.2818  -2.1806  -2.1773  -2.1492
    -2.1458  -2.1393  -2.1385  -2.1317  -2.0656  -2.0584  -1.9405  -1.9113
    -1.8649  -1.8607  -1.7443  -1.7252  -1.7051  -1.7007  -1.6600  -1.6356
    -1.6131  -1.6005  -1.5293  -1.5047  -1.4992  -1.4891  -1.4601  -1.4343
    -1.3822  -1.3797  -1.3350  -1.2824  -1.2806  -1.2617  -1.2461  -1.1489
    -1.1013  -1.0983  -1.0590  -1.0556  -1.0131  -1.0103  -1.0017  -0.9968
    -0.9642  -0.9619  -0.9168  -0.9129  -0.8822  -0.8705  -0.8624  -0.8601
    -0.8564  -0.8422  -0.8155  -0.7521  -0.7485  -0.7426  -0.5352  -0.5226
    -0.4365  -0.4304  -0.3275  -0.3172  -0.3112  -0.2897  -0.2339  -0.2255
    -0.2209  -0.2022  -0.1946  -0.1180  -0.0868  -0.0810  -0.0152   0.0004
     0.0154   0.0514   0.0727   0.0958   0.1733   0.2665   0.3249   0.3349
     0.3520   0.3607   0.4414   0.4511   0.4561   0.4744   0.4838   0.5073
     0.5283   0.5402   0.6472   0.6522   0.6712   0.7147   0.7214   0.7374
     0.7512   0.7622   0.7827   0.9234   0.9775   1.0075   1.0807   1.0909
     1.1660   1.1702   1.2519   1.2939   1.3012   1.3146   1.4060   1.4227
     1.4801   1.5112   1.5221   1.5297   1.5424   1.5709   1.5862   1.6219
     1.6888   1.6905   1.7151   1.7398   1.7411   1.7452   1.7773   1.8123
     1.9465   1.9517   1.9543   1.9581   1.9654   2.0319   2.1081   2.1466
     2.2837   3.1052   3.1063   3.3192   3.3532   3.4127   3.5043   3.5094
     3.5167   3.9629   4.1151   4.1189   4.5723   4.5951   4.6088   4.7173
     4.7207   4.9339   5.0149   5.0644   5.1463   5.4622   5.5485   5.5579
     6.0388   6.1942   6.1984   6.2576

     the Fermi energy is     1.7230 ev

!    total energy              =  -27842.09478415 Ry

     total all-electron energy =  -1326953.235268 Ry
     estimated scf accuracy    <       0.00000048 Ry
     smearing contrib. (-TS)   =       0.00184545 Ry
     internal energy E=F+TS    =  -27842.09662960 Ry

     The total energy is F=E-TS. E is the sum of the following terms:
     one-electron contribution =  -29617.73578382 Ry
     hartree contribution      =   15113.37817501 Ry
     xc contribution           =    -911.94854888 Ry
     ewald contribution        =   13071.38748746 Ry
     one-center paw contrib.   =  -25497.17795938 Ry

     convergence has been achieved in  22 iterations

     negative rho (up, down):  1.273E-02 0.000E+00

     Forces acting on atoms (cartesian axes, Ry/au):

     atom    1 type  1   force =    -0.00000381   -0.00011883   -0.00514268
     atom    2 type  1   force =    -0.00026719   -0.00003502   -0.00323945
     atom    3 type  1   force =     0.00029179   -0.00009395   -0.00329667
     atom    4 type  1   force =    -0.00006960   -0.00022876   -0.00327330
     atom    5 type  1   force =    -0.00001151    0.00001124   -0.00363112
     atom    6 type  1   force =     0.00011641   -0.00019794   -0.00333036
     atom    7 type  1   force =     0.00015637    0.00020624   -0.00327926
     atom    8 type  1   force =    -0.00013394    0.00018218   -0.00327541
     atom    9 type  1   force =     0.00004746   -0.00004450   -0.00328908
     atom   10 type  1   force =     0.00120895    0.00035668    0.00354329
     atom   11 type  1   force =    -0.00012075    0.00052025    0.00383525
     atom   12 type  1   force =    -0.00083205    0.00011258    0.00297023
     atom   13 type  1   force =     0.00058003   -0.00044637    0.00406677
     atom   14 type  1   force =    -0.00062138   -0.00031415    0.00372143
     atom   15 type  1   force =     0.00007196    0.00051159    0.00221516
     atom   16 type  1   force =    -0.00004753   -0.00099458    0.00376653
     atom   17 type  1   force =     0.00042250   -0.00013287    0.00248422
     atom   18 type  1   force =    -0.00034516   -0.00019722    0.00256196
     atom   19 type  1   force =     0.00007083    0.00031649    0.00040942
     atom   20 type  1   force =     0.00002705   -0.00001501   -0.00040418
     atom   21 type  1   force =     0.00015842   -0.00009150   -0.00040461
     atom   22 type  1   force =    -0.00000383   -0.00000840    0.00010430
     atom   23 type  1   force =     0.00003112    0.00011639   -0.00041671
     atom   24 type  1   force =     0.00020610   -0.00003165    0.00004666
     atom   25 type  1   force =    -0.00018064   -0.00007678    0.00027975
     atom   26 type  1   force =     0.00032740   -0.00004527    0.00033492
     atom   27 type  1   force =     0.00009732    0.00001885    0.00011622
     atom   28 type  1   force =     0.00015408    0.00014755   -0.00000305
     atom   29 type  1   force =     0.00023526    0.00004621    0.00061849
     atom   30 type  1   force =     0.00012919    0.00000101    0.00054548
     atom   31 type  1   force =     0.00016753    0.00007766    0.00020568
     atom   32 type  1   force =     0.00001931   -0.00003829    0.00058840
     atom   33 type  1   force =     0.00024733    0.00011506    0.00027939
     atom   34 type  1   force =     0.00003760   -0.00004835    0.00039782
     atom   35 type  1   force =     0.00029845    0.00003433    0.00037743
     atom   36 type  1   force =     0.00010992   -0.00003473    0.00007055
     atom   37 type  2   force =    -0.00153282    0.00013415   -0.00114977
     atom   38 type  2   force =     0.00370283    0.00159731    0.00482347
     atom   39 type  3   force =    -0.00032586    0.00039886   -0.00034406
     atom   40 type  3   force =    -0.00061436    0.00009803    0.00021175
     atom   41 type  3   force =    -0.00010544   -0.00037381   -0.00025051
     atom   42 type  3   force =     0.00007429   -0.00042577   -0.00008037
     atom   43 type  3   force =     0.00103320    0.00106563    0.00024546
     atom   44 type  4   force =    -0.00097561    0.00002919   -0.00007632
     atom   45 type  3   force =    -0.00383122   -0.00210376   -0.00393313

     Total force =     0.009234     Total SCF correction =     0.001328
     SCF correction compared to forces is large: reduce conv_thr to get better values

     negative rho (up, down):  1.273E-02 0.000E+00

     negative rho (up, down):  1.273E-02 0.000E+00

     negative rho (up, down):  1.273E-02 0.000E+00

     negative rho (up, down):  1.273E-02 0.000E+00

     negative rho (up, down):  1.273E-02 0.000E+00

     negative rho (up, down):  1.273E-02 0.000E+00

     negative rho (up, down):  1.273E-02 0.000E+00

     negative rho (up, down):  1.273E-02 0.000E+00

     negative rho (up, down):  1.273E-02 0.000E+00

     negative rho (up, down):  1.273E-02 0.000E+00

     negative rho (up, down):  1.273E-02 0.000E+00

     negative rho (up, down):  1.273E-02 0.000E+00

     negative rho (up, down):  1.273E-02 0.000E+00

     negative rho (up, down):  1.273E-02 0.000E+00

     negative rho (up, down):  1.273E-02 0.000E+00

     negative rho (up, down):  1.273E-02 0.000E+00

     negative rho (up, down):  1.273E-02 0.000E+00

     negative rho (up, down):  1.273E-02 0.000E+00

     negative rho (up, down):  1.273E-02 0.000E+00

     negative rho (up, down):  1.273E-02 0.000E+00

     negative rho (up, down):  1.273E-02 0.000E+00

     negative rho (up, down):  1.273E-02 0.000E+00

     negative rho (up, down):  1.273E-02 0.000E+00

     negative rho (up, down):  1.273E-02 0.000E+00

     negative rho (up, down):  1.273E-02 0.000E+00

     negative rho (up, down):  1.273E-02 0.000E+00

     negative rho (up, down):  1.273E-02 0.000E+00

     negative rho (up, down):  1.273E-02 0.000E+00

     negative rho (up, down):  1.273E-02 0.000E+00

     negative rho (up, down):  1.273E-02 0.000E+00

     negative rho (up, down):  1.273E-02 0.000E+00

     negative rho (up, down):  1.273E-02 0.000E+00

     negative rho (up, down):  1.273E-02 0.000E+00

     negative rho (up, down):  1.273E-02 0.000E+00
 BEEFens 2000 ensemble energies
             -0.610800753122871E+02
             -0.362012070503852E+01
             -0.159029413070372E+02
              0.432280861941229E+02
             -0.222605048006666E+02
             -0.206300727004706E+02
             -0.355612182098023E+02
             -0.871110396497804E+02
             -0.467270403849421E+02
             -0.475102519569136E+02
             -0.371534377318981E+02
              0.234049916456416E+01
              0.407311292965994E+01
              0.758181961170163E+01
              0.267912799688622E+01
              0.477945896722047E+02
             -0.210092089087157E+02
             -0.230617404754434E+02
              0.194131152461555E+02
             -0.113106593117532E+03
              0.540038629629725E+02
             -0.290930211722550E+02
             -0.338186817029620E+01
             -0.114826841035083E+02
             -0.879580256306826E+01
             -0.465459471863548E+01
              0.888402524286512E+02
             -0.188852705717226E+02
             -0.904962731493913E+01
             -0.521879941397864E+02
              0.819608505667434E+02
             -0.187320304453349E+02
             -0.377466530623491E+02
              0.250316151966991E+02
             -0.286853481695312E+01
              0.165821821688349E+02
             -0.484942515838702E+01
              0.108098934598095E+02
              0.290681058321882E+02
             -0.103896958051236E+03
              0.562085786364547E+02
              0.143223295326400E+02
             -0.181920355624749E+01
             -0.363277647140633E+02
              0.123936658186008E+02
             -0.148275299319606E+02
              0.401548424575107E+02
              0.367077118646399E+02
             -0.309254795976686E+02
             -0.276848618953832E+02
             -0.330121031880552E+02
             -0.354594878100676E+02
              0.137843730424472E+02
             -0.494118213094290E+02
              0.116765633963635E+02
              0.627062709297086E+02
              0.640271857791331E+02
              0.358070599221373E+02
              0.155192586742620E+02
              0.272788466657188E+02
              0.897529046545212E+02
              0.213453461465102E+02
             -0.552117255062243E+02
             -0.157703555277087E+02
             -0.237796958276488E+02
              0.633554875714802E+02
             -0.778030597801566E+02
             -0.675496073234448E+02
             -0.261839708714656E+02
             -0.664057754217993E+01
             -0.472986209235755E+02
              0.272499248422714E+02
              0.809160335548177E+01
              0.877742894127067E+01
             -0.399868257033780E+02
             -0.349054074655000E+02
             -0.545742407388862E+02
              0.392175412391246E+02
             -0.298300134387665E+02
              0.267521841034985E+02
             -0.722445974311765E+01
             -0.319685487589394E+02
             -0.579293488696860E+02
             -0.177365061364853E+02
             -0.913314107245412E+01
             -0.125564126756666E+02
              0.414940609777164E+02
              0.688013035295377E+02
             -0.388560744961173E+02
             -0.799678896413010E+02
             -0.220787991421380E+02
              0.112196114884447E+03
             -0.596262517190321E+02
              0.357965459725011E+02
             -0.964460641524431E+01
             -0.666821108439879E+02
              0.256078842371498E+02
              0.399987877165364E+02
             -0.199701569018806E+02
              0.401986453001477E+02
             -0.297342935756592E+02
             -0.482156757311695E+02
              0.872166301341537E+02
              0.456654804134567E+02
              0.337964756098492E+02
              0.147066049697241E+02
              0.207318235085509E+02
              0.861537824204928E+02
             -0.258572612455151E+02
              0.790621890449849E+01
             -0.143258411548107E+03
              0.182253867930535E+02
             -0.720261806632675E+02
              0.151900010089067E+02
              0.206077396853939E+02
             -0.335300764470862E+02
             -0.560345778386595E+02
              0.652586879244859E+01
             -0.306107819369863E+02
              0.310673639652575E+02
             -0.532830955183808E+02
              0.166045023212780E+01
             -0.359261956000209E+02
             -0.424816948449455E+01
             -0.101838358202909E+01
              0.182746872328622E+02
              0.141302232713008E+01
             -0.654966930525939E+01
              0.594817537555195E+02
              0.914181484966843E+02
              0.487258181754954E+02
              0.834443702904915E+02
             -0.116048811062342E+02
              0.143290793621059E+02
              0.544582516667754E+02
             -0.110540266469194E+02
             -0.740997015992720E+02
             -0.387056296968804E+02
             -0.524929888655792E+02
             -0.278657196764391E+02
              0.328834248383183E+02
             -0.117536935620117E+03
             -0.188102096397536E+02
              0.416853557129115E+02
             -0.388624584116658E+02
             -0.367143397027615E+02
              0.547977500943718E+02
              0.403729804846598E+02
             -0.356038039822111E+02
              0.139975137619165E+02
             -0.274998290085894E+02
              0.345535821415406E+02
              0.447559199233001E+01
              0.211594204349672E+02
             -0.890111209218420E+02
             -0.483212273811973E+02
             -0.100365638009504E+02
              0.316496649731258E+01
             -0.369614315598556E+02
              0.106718842142472E+03
             -0.231872790167774E+02
             -0.400514292568157E+02
              0.391153386798699E+02
             -0.496966500482630E+02
             -0.365590763651958E+02
              0.326731702070374E+02
              0.125228307736094E+02
              0.165479682652683E+02
              0.117594483117085E+02
             -0.133468423466607E+02
              0.225874943831984E+02
              0.593819327546864E+02
             -0.313328072441701E+02
              0.163676057435666E+02
              0.940267950654914E+02
              0.342804966100506E+02
             -0.733302354074431E+01
             -0.189832100750045E+02
              0.154337073908254E+03
             -0.165627097008674E+02
              0.365718824747786E+02
              0.196422480730993E+02
              0.363226063924769E+02
              0.897709186005034E+02
              0.545650782548539E+02
             -0.241687136483111E+01
              0.229313672473808E+02
              0.487968852949066E+02
              0.365928261364738E+02
             -0.529680128069077E+02
              0.941979266287020E+02
             -0.831419312241217E+02
             -0.198641753572106E+02
              0.586248753233030E+02
              0.687404362387092E+01
              0.789980434793222E+01
              0.342552738285459E+02
              0.300132446349451E+02
              0.355857644557370E+02
             -0.641411894295552E+02
              0.288307380332265E+01
             -0.299112817162082E+02
             -0.872501408099374E+01
             -0.146570219494606E+01
             -0.731673327697066E+01
             -0.419550216633746E+01
              0.864724066947630E+02
             -0.101371089953869E+02
             -0.278116506331315E+02
             -0.496682143627407E+01
              0.140707729931530E+02
             -0.567858136837916E+02
             -0.410919702603904E+02
             -0.384103122174620E+02
             -0.634134049632168E+02
             -0.170635714771098E+02
             -0.449976173725585E+02
              0.164581863952464E+02
             -0.237450418982087E+01
             -0.105385671709605E+02
             -0.939258601355235E+01
              0.810872560502935E+01
             -0.243419368980946E+02
              0.693557205682832E+02
             -0.812982398956999E+02
             -0.142020455276193E+02
             -0.174829252348901E+02
              0.182963885113385E+02
              0.215783422010742E+02
             -0.466675657446981E+02
             -0.202474502808229E+02
              0.443796172144370E+02
             -0.277384708618333E+02
              0.187897255750038E+02
              0.385013105978050E+02
             -0.322603600923503E+01
              0.114833215694280E+03
             -0.230472316599983E+02
             -0.342968567013924E+02
              0.579396513112340E+01
             -0.230013241859767E+02
              0.530890423407832E+02
             -0.340353615889118E+02
              0.107224393365309E+02
              0.643675356494713E+02
             -0.127314408332368E+02
              0.120986482102734E+03
              0.126697602184719E+03
             -0.654273119640170E+02
              0.594232041479090E+02
              0.167965794040465E+02
             -0.521434167239493E+02
              0.217036523030300E+02
              0.356862171513121E+02
              0.365741964732405E+02
              0.135837929845690E+01
              0.160805963507066E+02
              0.700877274523474E+02
             -0.248362621915206E+02
              0.182098925377261E+02
              0.743418489113155E+02
             -0.374795956450631E+02
             -0.131339761452921E+02
              0.512423933811088E+02
              0.299224521676349E+02
              0.784751612501219E+02
              0.225019331665893E+02
              0.635395296740774E+01
              0.281958484886105E+02
              0.386050864633760E+02
             -0.475488201369879E+02
              0.337748314871885E+01
              0.131824611306220E+02
              0.114411856794321E+02
              0.222142038346122E+02
             -0.579025495503037E+02
              0.367797697149108E+02
             -0.446468089715439E+02
             -0.349496806226628E+02
              0.179493810265731E+02
             -0.181939617263597E+02
              0.558740015831609E+02
             -0.256772968605785E+02
              0.268764344372869E+02
              0.369794618761455E+02
              0.833988238078676E+02
              0.578046839891029E+02
              0.465253286724664E+02
             -0.105534123701713E+02
             -0.397781815529657E+01
             -0.334265629591252E+02
              0.755919351173811E+02
              0.802179403047629E+02
              0.364449129159942E+02
             -0.193890848841975E+02
              0.514808158443001E+02
             -0.162689326835900E+02
              0.215874480807677E+02
              0.618877091821380E+02
              0.210399546057340E+01
             -0.105030020978434E+02
             -0.284018356915210E+02
             -0.515822965391630E+02
              0.951593251456267E+02
              0.443321268817580E+02
             -0.563144460921929E+02
             -0.977233996618043E+01
              0.251512572214757E+02
             -0.100444263011951E+02
              0.596253964806351E+02
              0.152852729425256E+02
              0.804043739553139E+02
              0.281831210889532E+02
             -0.265142552069410E+02
              0.249860909377957E+02
             -0.505310519789646E+01
             -0.324976988460381E+02
              0.134213697942039E+02
              0.206414952529335E+02
              0.938788742318481E+02
              0.802253534795396E+02
              0.554663545331573E+02
              0.734606640326701E+02
              0.807351453720560E+01
             -0.275372957568010E+02
              0.163896146647161E+02
             -0.369977757595682E+02
             -0.480094318083694E+02
             -0.567209066944209E+02
             -0.268643423433356E+02
             -0.110384324328530E+03
             -0.293845895310608E+02
             -0.843013272587712E+02
              0.211525601396825E+02
             -0.479989245399426E+02
              0.400038503663249E+02
             -0.947898762284884E+02
             -0.331955492642128E+02
              0.550732879975383E+02
              0.208917243453722E+02
             -0.836480217470840E+02
              0.634110074949042E+02
             -0.258688094265270E+02
              0.515948923763821E+02
             -0.244086374385186E+02
             -0.756514023350371E+02
              0.112915834416113E+02
             -0.615583821461112E+02
             -0.168330624097748E+02
             -0.150518995886679E+01
              0.420814321674929E+02
              0.127804496604203E+03
             -0.464381602014485E+02
             -0.364717034144542E+02
             -0.101740804750347E+01
             -0.131083217660938E+02
             -0.827554804436769E+02
             -0.600326765667299E+02
              0.520180515729132E+02
             -0.290152583014431E+02
              0.170568394409921E+02
             -0.492397766326887E+02
             -0.133025569277441E+02
             -0.439693679455025E+02
              0.568551369781315E+02
              0.151438289316477E+02
             -0.233123005314671E+02
             -0.128152307291071E+02
              0.676509216244635E+01
             -0.625597049385254E+01
              0.444090975245197E+02
             -0.253631462976527E+02
              0.288766246075807E+01
              0.341724335779591E+02
              0.171911128339449E+02
             -0.161534036612115E+02
              0.157235297773317E+03
              0.542048283698642E+02
              0.122094688031268E+01
              0.161602020809303E+02
             -0.618982085369985E+02
              0.317025898960980E+02
             -0.726701387442732E+02
             -0.254130466797065E+02
             -0.526474242678947E+02
             -0.221185259365327E+02
              0.572987486958059E+02
             -0.540863957899968E+02
              0.162653861056001E+02
             -0.412050050139942E+01
              0.387053630718731E+01
             -0.435730210789173E+02
             -0.480819797234547E+02
             -0.404959026305653E+01
             -0.426979844383516E+02
             -0.218453657295387E+02
             -0.440975165135036E+02
             -0.119657561744130E+02
             -0.361137170650547E+02
             -0.519699697437703E+02
              0.214250992092951E+02
             -0.209948844449697E+02
              0.189435819354169E+02
              0.981909912987703E+01
             -0.742938947578040E+02
             -0.551369851416775E+02
             -0.401503184890900E+02
              0.356388215432560E+02
              0.266446941895458E+01
             -0.630643086664224E+02
              0.589559127373984E+02
             -0.403866910115557E+02
              0.548581573222879E+02
             -0.291868388562324E+02
             -0.449171822301297E+02
              0.299619916305485E+02
             -0.662187529983666E+02
             -0.382210718088822E+02
              0.676586958300716E+02
              0.205328171729088E+02
             -0.363365874222374E+02
              0.493377543781102E+02
             -0.175299405470613E+02
             -0.325640147955171E+02
             -0.303799698361765E+02
             -0.503908902571691E+02
              0.251229558069193E+02
             -0.938771339006784E+02
             -0.845240858782988E+02
             -0.741883552191268E+01
             -0.308623275856150E+02
             -0.579571144423773E+02
              0.726525267537348E+02
              0.132406260811607E+03
             -0.362469841278576E+02
             -0.257437826316828E+01
             -0.641149412256110E+02
              0.654646146876424E+02
              0.172308643579691E+02
             -0.183456194762522E+02
             -0.412326422250287E+02
              0.149621226773710E+02
             -0.589973828504267E+02
             -0.198892768551047E+02
             -0.910197600799476E+02
              0.339412027850509E+02
              0.169613458932855E+02
              0.181484897577377E+01
             -0.713782843067531E+01
             -0.332646457124436E+02
             -0.767794269953430E+01
              0.126425195291824E+03
             -0.199866871900459E+02
             -0.440971346252628E+02
             -0.688352673621545E+02
              0.110345491927221E+02
             -0.344753812476485E+02
              0.599404663302499E+01
              0.263701529616523E+02
              0.102492294151045E+02
              0.280255956202866E+02
              0.121071599891023E+02
              0.633227487491987E+02
              0.318333325581541E+02
             -0.329002544805159E+02
              0.359308374059672E+02
              0.381650190523984E+02
              0.121606837609216E+02
              0.489714151903283E+02
             -0.226836490852803E+02
              0.770194271906483E+02
              0.173964728605543E+02
             -0.274375391219837E+02
             -0.728868745765680E+01
             -0.187651360276505E+02
              0.262860556161686E+02
             -0.235926561754370E+02
             -0.207139008261493E+00
             -0.860035577797748E+01
              0.814767100333816E+02
              0.503924692657478E+02
             -0.691105046906653E+02
             -0.482563454132853E+01
             -0.558625729647081E+02
             -0.160159437934960E+02
             -0.269822293972598E+02
              0.384146965318223E+01
              0.581811262984441E+00
             -0.259595845673189E+02
              0.826226334591524E+01
             -0.607858528390142E+01
             -0.129043536600036E+02
              0.864458525217829E+02
              0.182755696308815E+02
             -0.812504828723346E+02
             -0.460955782244196E+02
              0.951208550410969E+02
              0.279525317787291E+02
             -0.107267557396999E+02
              0.105293117605414E+03
             -0.195602515454987E+02
             -0.123515864112010E+02
             -0.546917692627881E+01
              0.108676683045516E+02
              0.274644901960309E+02
              0.781387323302738E+01
              0.307079587617214E+02
             -0.188461959798494E+02
             -0.306437687326404E+02
             -0.420626121535715E+02
             -0.480126841840728E+02
              0.466623222590712E+02
              0.127695142981203E+02
              0.390184441059839E+02
              0.134589173477526E+02
              0.861588151250819E+02
              0.157677868173708E+02
             -0.850973638582968E+02
             -0.336710658714090E+02
              0.133887572068668E+02
             -0.304520399926070E+02
              0.630695795526261E+02
             -0.898555237380515E+01
              0.149805780447067E+02
              0.500784147032780E+02
             -0.712464127363774E+02
              0.150695667076462E+03
              0.210070606882126E+02
              0.272708922933831E+02
              0.350178054331076E+02
              0.104267865086589E+02
             -0.155209775448907E+01
              0.360471500619113E+02
             -0.359728314672766E+02
              0.779011150916540E+02
              0.689948236456286E+02
             -0.408828512708888E+02
              0.150913332087010E+02
              0.674923801399235E+02
             -0.225205974632781E+02
              0.155571291144439E+02
              0.437318717471343E+02
              0.424857074287378E+02
             -0.789926751810011E+02
             -0.153247988869850E+02
             -0.357981577607247E+02
             -0.153784587835344E+01
             -0.771952739554288E+01
             -0.537513571955265E+01
             -0.181390584911198E+02
             -0.296182951182789E+02
              0.646611404574284E+01
              0.112142091940095E+02
              0.539276949193952E+02
             -0.393406896246106E+02
              0.377635461792469E+02
              0.441808088821826E+02
             -0.187048193052171E+02
              0.877351245772457E+02
             -0.702198561613922E+02
             -0.103863456601921E+03
             -0.663954764938482E+01
             -0.276880916216601E+01
              0.384369094706608E+01
              0.794743844985964E+02
             -0.107117276918437E+02
              0.419543031461767E+02
              0.447619849411284E+02
              0.387641246874911E+02
             -0.999861639248991E+01
              0.631244497591440E+02
             -0.134800732752885E+02
             -0.310029560060237E+02
             -0.482045968924950E+02
              0.594550939490435E+01
              0.371891973588067E+02
             -0.602994273521006E+01
              0.395020512031602E+02
             -0.173355701010337E+01
              0.658870639451733E+02
              0.188334107387587E+02
              0.100301753835563E+02
             -0.121664979008244E+02
              0.334192951081097E+02
              0.365117306217589E+02
              0.233520335172894E+02
             -0.523959138982121E+00
             -0.554114259877302E+02
              0.262790162017293E+02
              0.176546730410308E+02
              0.404698845167299E+02
              0.274319530312282E+02
              0.374671651140989E+02
             -0.607778678738543E+01
              0.253519525896182E+02
             -0.300269630814284E+02
             -0.199719848812992E+01
             -0.572619701301450E+02
             -0.309879895332967E+02
              0.381514280012160E+02
             -0.941433261217165E+02
              0.296057883969685E+02
              0.184996559148166E+02
              0.845856412031491E+02
             -0.301297265615498E+02
              0.331676870853553E+02
             -0.138323008036307E+02
             -0.467231449811505E+02
             -0.765593764155537E+02
             -0.537150964162832E+01
             -0.866168220907289E+02
              0.200144163079021E+02
             -0.248826506099760E+02
              0.307921196820948E+02
              0.238434889258862E+02
             -0.243270906288360E+02
             -0.267662345538669E+02
              0.393606737504119E+02
             -0.592324997426305E+02
             -0.117732214344849E+02
             -0.197309758251279E+02
              0.214629105983488E+02
             -0.886244529329861E+01
              0.364215000183233E+01
             -0.201788477695523E+02
              0.562265968391743E+02
             -0.443675768622886E+02
              0.795688172032737E+01
              0.589585814581990E+02
             -0.325896278411213E+02
              0.362755115965021E+01
             -0.878887694317189E+01
             -0.673815176806471E+02
             -0.484921799985198E+02
             -0.862327855484398E+01
              0.242768275915244E+02
              0.304564800237314E+02
              0.864152425510628E+01
             -0.420759635625859E+01
              0.153214961361642E+02
             -0.442516180303259E+02
              0.328085395493514E+01
             -0.534566494816645E+02
             -0.326372403459569E+02
              0.478041026634718E+02
             -0.297039115610235E+02
              0.627213762228027E+02
             -0.216476874253248E+02
              0.355842458101054E+02
              0.243534204731399E+02
             -0.648099200677018E+02
             -0.282071195548719E+02
              0.937135444107619E+01
             -0.374604896634629E+02
             -0.342237546151420E+02
             -0.835724944645206E+02
             -0.543056006585782E+02
             -0.513894115060729E+02
             -0.418475109243047E+02
             -0.971288461301583E+00
              0.101075727287775E+02
              0.112438220131304E+01
[...]
              0.284737704952491E+02
              0.142641987241127E+03
              0.244612935511935E+02
              0.123833038353026E+02
             -0.467296798068346E+02
             -0.641433103037185E+02
             -0.189964724969346E+02
              0.331803002199806E+02
             -0.432646910406982E+01
              0.191959327306284E+02
              0.338440328245231E+02
             -0.590034042288074E+02
              0.224386097166147E+02
              0.583929855169287E+02
              0.556356662885389E+02
             -0.424072140191254E+01
             -0.132856672648415E+01
             -0.998520547495434E+01
             -0.485309386849230E+02
             -0.679440636292045E+02
              0.790473901096819E+02
             -0.529186157791779E+01
             -0.591372135823963E+02
              0.175168925189539E+01
             -0.207172370883390E+02
              0.943964026505034E+02
             -0.217961689588683E+02
             -0.355871372785911E+02
              0.337620770072973E+02
             -0.146899482202589E+02
              0.392639081735913E+02
             -0.234186906615344E+01
              0.101663090694030E+03
              0.492980930560200E+02
             -0.504435546823146E+01
             -0.324475764793432E+02
              0.234252177923084E+02
             -0.532059102345470E+02
             -0.128173571743554E+02
              0.589736691608624E+02
             -0.289426783543301E+02
             -0.441034663943778E+02
             -0.224594011229701E+02
              0.521685774386949E+02
              0.125414312284365E+02
             -0.853933973864808E+02
              0.306226301477146E+02
              0.152727762874461E+02
              0.585943614598881E+01
             -0.516492665548841E+02
             -0.371204168647790E+01
              0.325199121006933E+02
              0.515713117763369E+02
              0.636862583892591E+02
              0.231224210770696E+02
              0.786461721524262E+00
             -0.501535763554291E+02
             -0.512732492426533E+02
             -0.751904435433598E+02
             -0.626804532027927E+01
              0.311229344077530E+02
             -0.381343224495274E+01
              0.549946230146655E+02
             -0.320122211358936E+02
              0.167315642737304E+02
             -0.104187097032355E+02
             -0.291500260507473E+02
              0.589474181819653E+02
              0.794931261842885E+01
              0.608395205636143E+02
              0.513469964372734E+01
              0.266265600099281E+02
             -0.193575361471956E+02
              0.589943199835266E+02
             -0.112769513418148E+02
             -0.110045194983268E+00
             -0.794996663064957E+02
             -0.128763072596157E+02
              0.723417420363852E+02
              0.677120334113148E+02
              0.253482156583101E+02
             -0.131288741628857E+02
              0.347925370869342E+01
             -0.174907173840105E+02
             -0.217647750591905E+01
              0.913455726072195E+02
              0.127921052678346E+01
             -0.192373837006000E+02
             -0.111412205005547E+03
             -0.555277640692511E+02
             -0.377447106347056E+02
             -0.662465630662463E+02
             -0.559452116913752E+02
             -0.687091895758739E+02
             -0.450144623488553E+02
             -0.412515288233910E+02
             -0.454901606496126E+02
              0.486409718199443E+02
             -0.295060622126423E+02
             -0.100045991447827E+03
              0.421649590356814E+02
             -0.262253710198935E+02
             -0.795716006159795E+02
              0.950118606489727E+02
             -0.221474878068578E+02
              0.228815239102241E+02
              0.457397052429348E+02
             -0.124423554595046E+01
              0.256036482223203E+02
              0.469789105801340E+01
              0.407559963529643E+00
             -0.151646754900173E+02
             -0.720691211659769E+02
              0.133985032250916E+02
             -0.130142472074067E+03
              0.628873401243054E+02
             -0.443320641688400E+02
             -0.163863996562004E+02
             -0.159142428258742E+02
              0.729197467678533E+01
             -0.228593002452276E+02
              0.298726589383275E+02
             -0.524117744088854E+02
              0.369521424680347E+02
              0.373950205714286E+02
              0.168826330756083E+02
              0.101409346311788E+02
              0.199179146703487E+02
              0.629220457895889E+01
              0.312026910796394E+02
             -0.804823879592956E+01
             -0.597170080739371E+02
              0.764764114718503E+01
             -0.154832163533674E+02
             -0.198064716666914E+01
              0.509922910636209E+02
             -0.831847993146453E+02
             -0.144528021135250E+01
              0.586160755852063E+00
              0.100107764520002E+02
              0.320346276011772E+02
             -0.124440200824663E+02
              0.840718728525727E+02
              0.489954510020488E+02
             -0.184057897812523E+02
             -0.959795412284672E+01
              0.110584168046989E+01
              0.774281729199665E+02
             -0.589038985644171E+02
             -0.106390855210982E+03
              0.311101239709828E+02
             -0.163783293478796E+02
             -0.140751733125972E+02
              0.131679480902162E+02
              0.773288479318803E+02
              0.466965098204922E+02
             -0.154451775962709E+02
             -0.506381517940232E+02
             -0.556616609993097E+01
              0.308152672800132E+02
             -0.112769929897961E+02
             -0.760307507515911E+02
             -0.277872016962831E+01
             -0.896080717625539E+02
             -0.478677514502739E+02
              0.774025880361387E+02
             -0.486942880669578E+02
             -0.641160537935102E+02
             -0.517770206920616E+02
             -0.352185919314782E+02
              0.343360340590448E+02
              0.826931585190092E+02
             -0.364832230604941E+01
              0.278173223044167E+02
             -0.185077301177391E+02
             -0.698185191415820E+02
              0.468370540779066E+02
             -0.448203337619126E+02
              0.323197663025371E+02
              0.377973124598856E+02
             -0.665649789496996E+01
              0.392781006092820E+02
              0.440779441607840E+02
              0.101435032245304E+03
             -0.156547603871650E+02
             -0.459604668671878E+02
             -0.616769587465703E+02
             -0.124982371014657E+02
             -0.235627506525270E+02
              0.103604728063813E+03
             -0.452081432896973E+02
              0.105671767455541E+02
              0.971309928828038E+01
             -0.265848707591567E+02
             -0.804484416018547E+02
             -0.704417680676414E+01
              0.986103511308872E+02
              0.951656185980988E+01
              0.812987244851462E+01
             -0.530686112957301E+02
             -0.608604254099166E+02
             -0.574232856894390E+01
              0.503059808157491E+02
             -0.223652093166822E+02
              0.108592615280219E+03
             -0.438935626263309E+02
              0.147509253113192E+02
             -0.224741781257256E+02
             -0.722299705686069E+02
              0.172269620649945E+01
             -0.505116125307113E+02
             -0.765035495532674E+02
              0.624386310693956E+01
              0.235669988676554E+01
              0.517253631262573E+02
              0.188923748919077E+02
             -0.325945361819713E+02
              0.231475558905454E+02
             -0.816702482082885E+02
             -0.524531615721733E+02
              0.907523995819772E+02
              0.142410330233089E+02
             -0.188183642867784E+02
             -0.353903851408088E+02
             -0.272425441801863E+01
             -0.593176334349812E+01
              0.836416053758161E+02
              0.420541365127763E+02
             -0.166360766021061E+02
             -0.121703665563995E+02
             -0.429903130015941E+02
             -0.201468823410313E+02
             -0.673684427656072E+02
              0.463132302671354E+02
              0.551942361124836E+01
              0.145323404815828E+02
              0.157239889667973E+02
             -0.649287283088324E+00
             -0.169870386626182E+02
             -0.302153024272577E+01
             -0.101133154558344E+03
             -0.230761803041109E+02
             -0.772783867353445E+01
             -0.952111072264981E+01
              0.549175967240409E+02
              0.628087575945136E+02
              0.165769067201614E+02
             -0.976381936300230E+02
              0.651267170816953E+02
             -0.216331962282481E+02
             -0.379324000768943E+02
             -0.869699143841239E+02
             -0.388504828988295E+02
              0.568631411362518E+02
              0.246762219923887E+02
              0.525583251082702E+01
              0.294537531780041E+02
             -0.568409833945639E+02
             -0.425424998128903E+02
              0.519288117143546E+02
              0.389622702519715E+02
              0.521765300988085E+02
             -0.115236819223824E+01
              0.693655573902038E+01
              0.572671108885387E+02
              0.968995337831129E+02
             -0.301121016659886E+02
              0.325768563059032E+02
             -0.120708265240877E+02
             -0.414991295318934E+02
             -0.316822630710883E+02
             -0.302466355857447E+02
             -0.132176758905575E+02
             -0.526165376177570E+02
             -0.218378605697411E+02
             -0.141992662198237E+03
              0.371031067445114E+02
              0.208251167542750E+02
             -0.396242616261404E+01
             -0.382495706881855E+02
             -0.205342563647146E+02
             -0.530367698936716E+02
              0.151773969447589E+02
              0.825002602124737E+02
             -0.253098453896615E+02
             -0.164200934639802E+02
              0.239285274728874E+02
             -0.492747228828527E+02
              0.885837263717938E+02
              0.155384222700388E+02
              0.226565340229150E+02
              0.493301456515861E+02
              0.314302659955086E+01
              0.545590802686588E+02
              0.144268785177339E+02
             -0.106613322788826E+02
              0.737257928514404E+01
              0.683109854391716E+00
              0.731116645129824E+02
              0.101852878636169E+02
              0.121964545419932E+02
             -0.130713315406217E+02
              0.133169034369272E+02
             -0.916960866882107E+02
             -0.328271582974845E+02
             -0.460337575051980E+02
              0.488277865125983E+02
             -0.293219310169836E+02
             -0.661960213041772E+02
              0.542366618830831E+02
             -0.122764378410894E+02
              0.442621467514783E+02
             -0.904374174489309E+02
              0.233285729819999E+02
              0.858545731022144E+01
              0.586150698214078E+01
             -0.839663452378647E+01
             -0.908323421733883E+01
              0.482660808885595E+02
              0.200124242992587E+01
             -0.478321884831327E+02
             -0.177484634703383E+02
              0.277779141366422E+02
             -0.118663978847201E+03
             -0.935198937661478E+02
              0.395722289853342E+01
              0.118623114285479E+02
             -0.416465184129896E+02
             -0.390046227539284E+01
              0.112729177599911E+03
              0.308255416781585E+02
             -0.574839604778201E+02
              0.929930946087177E+01
             -0.969237511887549E+01
              0.106669645750463E+02
             -0.340025458747510E+02
              0.196901413648836E+02
              0.286121486240361E+02
             -0.302964591877554E+01
              0.108877424970695E+03
             -0.140573235939168E+02
             -0.317968965022989E+02
              0.144889417871342E+02
              0.469087934743515E+02
             -0.357982691409344E+02
             -0.317507343861077E+01
              0.970966415931165E+02
             -0.463975690299321E+01
              0.624889302807127E+02
              0.136522966607342E+02
             -0.904609936082359E+01
             -0.306188862872240E+02
              0.569520471605289E+02
             -0.517921960006328E+02
             -0.222412021238307E+01
             -0.171146674284403E+02
             -0.407800038738017E+02
              0.185808794331939E+02
              0.241003083100146E+02
              0.116157820319518E+02
              0.695635739340560E+00
             -0.386949938639291E+02
              0.216007581127472E+02
             -0.673608459938885E+01
             -0.247660858532120E+02
             -0.211823396487554E+02
              0.204118548570226E+02
             -0.601326544708832E+01
             -0.351596724031590E+02
             -0.107320927495011E+03
              0.103380024370686E+02
              0.249841794241672E+02
             -0.390506754760830E+02
             -0.212459472442424E+02
              0.812334543608797E+02
              0.659956828247169E+01
              0.313673585900411E+02
              0.397435297195054E+01
              0.324371213399271E+02
              0.649969395408965E+01
             -0.375474978600936E+02
             -0.242013599247883E+01
              0.879523922091136E+01
              0.275860204093481E+02
              0.786495511128023E+02
              0.510295464328660E+02
              0.213073343904739E+00
              0.170336855734307E+02
              0.616991736750638E+02
              0.237645418984866E+02
             -0.757014684077224E+02
             -0.275451399008405E+02
              0.151856016472066E+02
              0.567785422583745E+01
              0.256545130604928E+02
             -0.550874458217565E+02
              0.901848221821935E+01
              0.388784114724970E+02
              0.500955051589862E+02
             -0.437493299454447E+02
             -0.687900982079890E+01
             -0.210734770391554E+01
             -0.134935874766695E+02
             -0.366882043043233E+02
             -0.216055926632351E+02
             -0.210582067618090E+01
              0.799962057520037E+01
              0.423998595998642E+02
             -0.310037192106754E+02
              0.831108821530138E+02
              0.329632110911367E+02
              0.221713765237357E+02
              0.335553072445743E+02
              0.324682184532043E+02
              0.348536322929677E+02
              0.540525908938942E+02
             -0.436841837769318E+02
              0.623548331379895E+02
             -0.112994874812614E+03
              0.309289015765412E+02
             -0.107186127534371E+03
              0.859496071948049E+02
              0.695643156947801E+02
             -0.110399022443380E+02
             -0.496121125706028E+02
             -0.432247980272597E+02
             -0.626777769324254E+02
             -0.632787587957928E+02
              0.555436535727595E+02
              0.408140336552673E+02
              0.238185238106925E+02
              0.375233555119557E+02
              0.405893207732356E+02
             -0.384559596539106E+02
             -0.198772930570623E+02
              0.590027938415895E+02
             -0.117023053710500E+02
              0.555018276444494E+02
              0.704240418241866E+02
             -0.557911918998130E+01
             -0.710961221090665E+02
             -0.827056249758357E+00
             -0.246652882560860E+01
             -0.889098867905386E+01
             -0.180194552660049E+01
             -0.656978804027343E+02
             -0.211024780845482E+02
              0.548324267180042E+01
              0.909709088666108E+01
              0.472097152829653E+02
             -0.400350997942469E+02
              0.660517997397353E+02
             -0.427705265919826E+02
              0.212285379905983E+02
              0.353004736104368E+02
 
 BEEF-vdW xc energy contributions
           1 :   -787.230337272667     
           2 :    722.650039643468     
           3 :   -611.147515216871     
           4 :    480.319814455382     
           5 :   -357.851528147130     
           6 :    263.452162237335     
           7 :   -204.576750421517     
           8 :    176.565699837065     
           9 :   -166.705835663107     
          10 :    160.355568136697     
          11 :   -146.693174116084     
          12 :    121.930839105297     
          13 :   -89.1434938909750     
          14 :    55.3501924443505     
          15 :   -27.5431213812749     
          16 :    9.45138954889228     
          17 :  -0.277015520152872     
          18 :   -4.35260164623787     
          19 :    9.91651584787917     
          20 :   -20.3131828147307     
          21 :    36.1816891724784     
          22 :   -54.8919119728979     
          23 :    72.0387425077264     
          24 :   -83.6333180014376     
          25 :    87.9233102146524     
          26 :   -86.0359970144974     
          27 :    81.2336196711852     
          28 :   -77.2403323328823     
          29 :    76.4803060969127     
          30 :   -79.0550189840269     
          31 :   -86.4179835413148     
          32 :   -66.1046512182867     

     Writing output data file ./pwscf.save/
 
     init_run     :    346.41s CPU    351.78s WALL (       1 calls)
     electrons    :  13309.06s CPU  13466.25s WALL (       1 calls)
     forces       :     81.44s CPU     82.81s WALL (       1 calls)

     Called by init_run:
     wfcinit      :    293.20s CPU    297.39s WALL (       1 calls)
     potinit      :     48.62s CPU     48.97s WALL (       1 calls)
     hinit0       :      2.13s CPU      2.18s WALL (       1 calls)

     Called by electrons:
     c_bands      :  10905.92s CPU  11026.15s WALL (      23 calls)
     sum_band     :   1612.85s CPU   1629.70s WALL (      23 calls)
     v_of_rho     :    117.41s CPU    122.34s WALL (      23 calls)
     newd         :     37.06s CPU     52.42s WALL (      23 calls)
     PAW_pot      :    132.94s CPU    132.94s WALL (      23 calls)
     mix_rho      :    552.37s CPU    553.17s WALL (      23 calls)
     vdW_kernel   :     37.24s CPU     37.24s WALL (       1 calls)

     Called by c_bands:
     init_us_2    :     95.43s CPU     95.75s WALL (     624 calls)
     cegterg      :  10002.91s CPU  10121.89s WALL (     299 calls)

     Called by *egterg:
     cdiaghg      :     96.41s CPU     96.46s WALL (    2063 calls)
     h_psi        :   6595.11s CPU   6636.60s WALL (    2089 calls)
     s_psi        :   1028.73s CPU   1028.80s WALL (    2089 calls)
     g_psi        :     18.40s CPU     18.43s WALL (    1777 calls)

     Called by h_psi:
     h_psi:calbec :    932.64s CPU    932.99s WALL (    2089 calls)
     vloc_psi     :   4598.88s CPU   4600.46s WALL (    2089 calls)
     add_vuspsi   :   1032.12s CPU   1032.27s WALL (    2089 calls)

     General routines
     calbec       :   1342.73s CPU   1343.13s WALL (    2440 calls)
     fft          :     44.99s CPU     45.01s WALL (    3403 calls)
     ffts         :    152.39s CPU    152.43s WALL (   12340 calls)
     fftw         :   4506.19s CPU   4506.87s WALL (  382120 calls)
 
     Parallel routines
 
     PWSCF        :      3h50m CPU      3h53m WALL

 
   This run was terminated on:  12:29:34  27Sep2022            

=------------------------------------------------------------------------------=
   JOB DONE.
=------------------------------------------------------------------------------=
