
     Program PWSCF v.6.7MaX starts on 26Sep2022 at 14: 9: 4 

     This program is part of the open-source Quantum ESPRESSO suite
     for quantum simulation of materials; please cite
         "P. Giannozzi et al., J. Phys.:Condens. Matter 21 395502 (2009);
         "P. Giannozzi et al., J. Phys.:Condens. Matter 29 465901 (2017);
          URL http://www.quantum-espresso.org", 
     in publications or presentations arising from this work. More details at
     http://www.quantum-espresso.org/quote

     Parallel version (MPI), running on     1 processors

     MPI processes distributed on     1 nodes
     Reading input from ch3oh-ensemble.in
Warning: card &CELL ignored
Warning: card / ignored

     Current dimensions of program PWSCF are:
     Max number of different atomic species (ntypx) = 10
     Max number of k-points (npk) =  40000
     Max angular momentum in pseudopotentials (lmaxx) =  3
     file Pt.pbe-n-kjpaw_psl.1.0.0.UPF: wavefunction(s)  6S 5D renormalized
     file O.pbe-nl-kjpaw_psl.1.0.0.UPF: wavefunction(s)  2S 2P renormalized
     file C.pbe-n-kjpaw_psl.1.0.0.UPF: wavefunction(s)  2S 2P renormalized
     file H.pbe-kjpaw_psl.1.0.0.UPF: wavefunction(s)  1S renormalized

     **************************************************************************
     Initializing libbeef V0.1.2 with the BEEF-vdW functional.
     Citation: Wellendorff et al., PRB 85, 235149 (2012).
     **************************************************************************


     IMPORTANT: XC functional enforced from input :
     Exchange-correlation= BEEF-VDW
                           (   1   4  43  14   2   0   0)
     Any further DFT definition will be discarded
     Please, verify this is what you really want


     Subspace diagonalization in iterative solution of the eigenvalue problem:
     a serial algorithm will be used

 
     G-vector sticks info
     --------------------
     sticks:   dense  smooth     PW     G-vecs:    dense   smooth      PW
     Sum        4267    4267   1159               749875   749875  105731
 


     bravais-lattice index     =            0
     lattice parameter (alat)  =      16.0349  a.u.
     unit-cell volume          =   11937.2059 (a.u.)^3
     number of atoms/cell      =           42
     number of atomic types    =            4
     number of electrons       =       374.00
     number of Kohn-Sham states=          224
     kinetic-energy cutoff     =      60.0000  Ry
     charge density cutoff     =     240.0000  Ry
     scf convergence threshold =      1.0E-06
     mixing beta               =       0.7000
     number of iterations used =            8  local-TF  mixing
     Exchange-correlation= BEEF-VDW
                           (   1   4  43  14   2   0   0)

     celldm(1)=  16.034858  celldm(2)=   0.000000  celldm(3)=   0.000000
     celldm(4)=   0.000000  celldm(5)=   0.000000  celldm(6)=   0.000000

     crystal axes: (cart. coord. in units of alat)
               a(1) = (   1.000000   0.000000   0.000000 )  
               a(2) = (   0.500000   0.866025   0.000000 )  
               a(3) = (   0.000000   0.000000   3.343310 )  

     reciprocal axes: (cart. coord. in units 2 pi/alat)
               b(1) = (  1.000000 -0.577350  0.000000 )  
               b(2) = (  0.000000  1.154701  0.000000 )  
               b(3) = (  0.000000  0.000000  0.299105 )  


     PseudoPot. # 1 for Pt read from file:
     /users/bkreitz1/quantum-espresso/potentials/Pt.pbe-n-kjpaw_psl.1.0.0.UPF
     MD5 check sum: 04dc8a03c51ece93fc7b5889c2958091
     Pseudo is Projector augmented-wave + core cor, Zval = 10.0
     Generated using 'atomic' code by A. Dal Corso  v.6.7MaX
     Shape of augmentation charge: PSQ
     Using radial grid of 1277 points,  6 beta functions with: 
                l(1) =   0
                l(2) =   0
                l(3) =   1
                l(4) =   1
                l(5) =   2
                l(6) =   2
     Q(r) pseudized with 0 coefficients 


     PseudoPot. # 2 for O  read from file:
     /users/bkreitz1/quantum-espresso/potentials/O.pbe-nl-kjpaw_psl.1.0.0.UPF
     MD5 check sum: eef08af8b58d9ec80f8fdb78829eb7cf
     Pseudo is Projector augmented-wave + core cor, Zval =  6.0
     Generated using 'atomic' code by A. Dal Corso  v.6.7MaX
     Shape of augmentation charge: PSQ
     Using radial grid of 1095 points,  4 beta functions with: 
                l(1) =   0
                l(2) =   0
                l(3) =   1
                l(4) =   1
     Q(r) pseudized with 0 coefficients 


     PseudoPot. # 3 for C  read from file:
     /users/bkreitz1/quantum-espresso/potentials/C.pbe-n-kjpaw_psl.1.0.0.UPF
     MD5 check sum: a169b0ebad56f5ec0d79c4633f80bf22
     Pseudo is Projector augmented-wave + core cor, Zval =  4.0
     Generated using 'atomic' code by A. Dal Corso  v.6.7MaX
     Shape of augmentation charge: PSQ
     Using radial grid of 1073 points,  4 beta functions with: 
                l(1) =   0
                l(2) =   0
                l(3) =   1
                l(4) =   1
     Q(r) pseudized with 0 coefficients 


     PseudoPot. # 4 for H  read from file:
     /users/bkreitz1/quantum-espresso/potentials/H.pbe-kjpaw_psl.1.0.0.UPF
     MD5 check sum: ae98473e6dc62675f0d0baffdab24f65
     Pseudo is Projector augmented-wave, Zval =  1.0
     Generated using 'atomic' code by A. Dal Corso  v.6.7MaX
     Shape of augmentation charge: PSQ
     Using radial grid of  929 points,  2 beta functions with: 
                l(1) =   0
                l(2) =   0
     Q(r) pseudized with 0 coefficients 


     atomic species   valence    mass     pseudopotential
        Pt            10.00   195.08400     Pt( 1.00)
        O              6.00    15.99900     O ( 1.00)
        C              4.00    12.01100     C ( 1.00)
        H              1.00     1.00800     H ( 1.00)

     No symmetry found



   Cartesian axes

     site n.     atom                  positions (alat units)
         1           Pt  tau(   1) = (   0.0000000   0.0000000   1.0017346  )
         2           Pt  tau(   2) = (   0.3333333   0.0000000   1.0017346  )
         3           Pt  tau(   3) = (   0.6666667   0.0000000   1.0017346  )
         4           Pt  tau(   4) = (   0.1666667   0.2886751   1.0017346  )
         5           Pt  tau(   5) = (   0.5000000   0.2886751   1.0017346  )
         6           Pt  tau(   6) = (   0.8333333   0.2886751   1.0017346  )
         7           Pt  tau(   7) = (   0.3333333   0.5773503   1.0017346  )
         8           Pt  tau(   8) = (   0.6666667   0.5773503   1.0017346  )
         9           Pt  tau(   9) = (   1.0000000   0.5773503   1.0017346  )
        10           Pt  tau(  10) = (   0.1666667   0.0962250   1.2739001  )
        11           Pt  tau(  11) = (   0.5000000   0.0962250   1.2739001  )
        12           Pt  tau(  12) = (   0.8333333   0.0962250   1.2739001  )
        13           Pt  tau(  13) = (   0.3333333   0.3849002   1.2739001  )
        14           Pt  tau(  14) = (   0.6666667   0.3849002   1.2739001  )
        15           Pt  tau(  15) = (   1.0000000   0.3849002   1.2739001  )
        16           Pt  tau(  16) = (   0.5000000   0.6735753   1.2739001  )
        17           Pt  tau(  17) = (   0.8333333   0.6735753   1.2739001  )
        18           Pt  tau(  18) = (   1.1666667   0.6735753   1.2739001  )
        19           Pt  tau(  19) = (  -0.0001041   0.1922402   1.5419097  )
        20           Pt  tau(  20) = (   0.3338269   0.1926462   1.5441120  )
        21           Pt  tau(  21) = (   0.6661272   0.1927679   1.5440536  )
        22           Pt  tau(  22) = (   0.1664253   0.4811595   1.5427006  )
        23           Pt  tau(  23) = (   0.5000937   0.4802253   1.5442713  )
        24           Pt  tau(  24) = (   0.8334817   0.4811853   1.5428918  )
        25           Pt  tau(  25) = (   0.3335227   0.7699311   1.5417585  )
        26           Pt  tau(  26) = (   0.6664810   0.7697814   1.5420060  )
        27           Pt  tau(  27) = (   0.9999543   0.7696175   1.5428828  )
        28           Pt  tau(  28) = (   0.0001798   0.0000462   1.8171867  )
        29           Pt  tau(  29) = (   0.3328438  -0.0011453   1.8169219  )
        30           Pt  tau(  30) = (   0.6673011  -0.0012344   1.8161675  )
        31           Pt  tau(  31) = (   0.1653696   0.2887878   1.8161163  )
        32           Pt  tau(  32) = (   0.5002539   0.2894812   1.8208482  )
        33           Pt  tau(  33) = (   0.8347673   0.2888598   1.8163336  )
        34           Pt  tau(  34) = (   0.3324951   0.5788644   1.8157265  )
        35           Pt  tau(  35) = (   0.6675887   0.5787521   1.8168108  )
        36           Pt  tau(  36) = (   1.0000340   0.5774426   1.8178194  )
        37           O   tau(  37) = (   0.5034940   0.2675153   2.1183002  )
        38           C   tau(  38) = (   0.4196004   0.3821262   2.2132877  )
        39           H   tau(  39) = (   0.4241110   0.3474847   2.3372643  )
        40           H   tau(  40) = (   0.4809877   0.4935505   2.1972665  )
        41           H   tau(  41) = (   0.2972821   0.3946890   2.1749150  )
        42           H   tau(  42) = (   0.4506554   0.1666333   2.1283703  )

     number of k points=    13  Marzari-Vanderbilt smearing, width (Ry)=  0.0200
                       cart. coord. in units 2pi/alat
        k(    1) = (   0.0000000   0.0000000   0.0000000), wk =   0.0800000
        k(    2) = (   0.0000000   0.2309401   0.0000000), wk =   0.1600000
        k(    3) = (   0.0000000   0.4618802   0.0000000), wk =   0.1600000
        k(    4) = (   0.2000000  -0.1154701   0.0000000), wk =   0.1600000
        k(    5) = (   0.2000000   0.1154701   0.0000000), wk =   0.1600000
        k(    6) = (   0.2000000   0.3464102   0.0000000), wk =   0.1600000
        k(    7) = (   0.2000000  -0.5773503   0.0000000), wk =   0.1600000
        k(    8) = (   0.2000000  -0.3464102   0.0000000), wk =   0.1600000
        k(    9) = (   0.4000000  -0.2309401   0.0000000), wk =   0.1600000
        k(   10) = (   0.4000000  -0.0000000   0.0000000), wk =   0.1600000
        k(   11) = (   0.4000000   0.2309401   0.0000000), wk =   0.1600000
        k(   12) = (   0.4000000  -0.6928203   0.0000000), wk =   0.1600000
        k(   13) = (   0.4000000  -0.4618802   0.0000000), wk =   0.1600000

     Dense  grid:   749875 G-vectors     FFT dimensions: (  80,  80, 270)

     Estimated max dynamical RAM per process >       9.08 GB

     Check: negative core charge=   -0.000001

     Initial potential from superposition of free atoms

     starting charge  373.99381, renormalised to  374.00000

     negative rho (up, down):  1.240E-02 0.000E+00


     %%%%%%%%%%%%%%%%%%%%%%%%%%%%%%%%%%%%%%%%%%%%%%%%%%%%%%%%%%%%%%%%%%%%%%%%
     %                                                                      %
     % You are using vdW-DF, which was implemented by the Thonhauser group. %
     % Please cite the following two papers that made this development      %
     % possible and the two reviews that describe the various versions:     %
     %                                                                      %
     %   T. Thonhauser et al., PRL 115, 136402 (2015).                      %
     %   T. Thonhauser et al., PRB 76, 125112 (2007).                       %
     %   K. Berland et al., Rep. Prog. Phys. 78, 066501 (2015).             %
     %   D.C. Langreth et al., J. Phys.: Condens. Matter 21, 084203 (2009). %
     %                                                                      %
     %                                                                      %
     % If you are calculating the stress with vdW-DF, please also cite:     %
     %                                                                      %
     %   R. Sabatini et al., J. Phys.: Condens. Matter 24, 424209 (2012).   %
     %                                                                      %
     %%%%%%%%%%%%%%%%%%%%%%%%%%%%%%%%%%%%%%%%%%%%%%%%%%%%%%%%%%%%%%%%%%%%%%%%


     Starting wfcs are  336 randomized atomic wfcs
     Checking if some PAW data can be deallocated... 

     total cpu time spent up to now is      353.5 secs

     Self-consistent Calculation

     iteration #  1     ecut=    60.00 Ry     beta= 0.70
     Davidson diagonalization with overlap
     ethr =  1.00E-02,  avg # of iterations =  2.0

     Threshold (ethr) on eigenvalues was too large:
     Diagonalizing with lowered threshold

     Davidson diagonalization with overlap
     ethr =  5.30E-04,  avg # of iterations =  4.0

     negative rho (up, down):  1.184E-02 0.000E+00

     total cpu time spent up to now is     1801.3 secs

     total energy              =  -27820.46218858 Ry
     estimated scf accuracy    <       2.18369550 Ry

     iteration #  2     ecut=    60.00 Ry     beta= 0.70
     Davidson diagonalization with overlap
     ethr =  5.84E-04,  avg # of iterations =  7.5

     negative rho (up, down):  1.054E-02 0.000E+00

     total cpu time spent up to now is     2470.1 secs

     total energy              =  -27820.57047474 Ry
     estimated scf accuracy    <       1.00389868 Ry

     iteration #  3     ecut=    60.00 Ry     beta= 0.70
     Davidson diagonalization with overlap
     c_bands:  1 eigenvalues not converged
     ethr =  2.68E-04,  avg # of iterations =  6.5

     negative rho (up, down):  7.069E-03 0.000E+00

     total cpu time spent up to now is     3149.2 secs

     total energy              =  -27820.60416389 Ry
     estimated scf accuracy    <       0.21053871 Ry

     iteration #  4     ecut=    60.00 Ry     beta= 0.70
     Davidson diagonalization with overlap
     c_bands:  1 eigenvalues not converged
     c_bands:  1 eigenvalues not converged
     c_bands:  1 eigenvalues not converged
     c_bands:  1 eigenvalues not converged
     ethr =  5.63E-05,  avg # of iterations = 14.8

     negative rho (up, down):  4.500E-03 0.000E+00

     total cpu time spent up to now is     4139.3 secs

     total energy              =  -27820.65568467 Ry
     estimated scf accuracy    <       0.06947613 Ry

     iteration #  5     ecut=    60.00 Ry     beta= 0.70
     Davidson diagonalization with overlap
     c_bands:  1 eigenvalues not converged
     c_bands:  1 eigenvalues not converged
     ethr =  1.86E-05,  avg # of iterations =  8.2

     negative rho (up, down):  3.596E-03 0.000E+00

     total cpu time spent up to now is     4846.2 secs

     total energy              =  -27820.66066008 Ry
     estimated scf accuracy    <       0.02811639 Ry

     iteration #  6     ecut=    60.00 Ry     beta= 0.70
     Davidson diagonalization with overlap
     c_bands:  1 eigenvalues not converged
     c_bands:  1 eigenvalues not converged
     c_bands:  1 eigenvalues not converged
     c_bands:  1 eigenvalues not converged
     ethr =  7.52E-06,  avg # of iterations = 12.2

     negative rho (up, down):  3.098E-03 0.000E+00

     total cpu time spent up to now is     5587.3 secs

     total energy              =  -27820.66196700 Ry
     estimated scf accuracy    <       0.00699777 Ry

     iteration #  7     ecut=    60.00 Ry     beta= 0.70
     Davidson diagonalization with overlap
     c_bands:  1 eigenvalues not converged
     c_bands:  1 eigenvalues not converged
     c_bands:  1 eigenvalues not converged
     c_bands:  1 eigenvalues not converged
     ethr =  1.87E-06,  avg # of iterations = 15.2

     negative rho (up, down):  3.075E-03 0.000E+00

     total cpu time spent up to now is     6562.3 secs

     total energy              =  -27820.66348799 Ry
     estimated scf accuracy    <       0.00468596 Ry

     iteration #  8     ecut=    60.00 Ry     beta= 0.70
     Davidson diagonalization with overlap
     c_bands:  1 eigenvalues not converged
     c_bands:  1 eigenvalues not converged
     ethr =  1.25E-06,  avg # of iterations =  5.6

     negative rho (up, down):  4.472E-03 0.000E+00

     total cpu time spent up to now is     7211.2 secs

     total energy              =  -27820.66377994 Ry
     estimated scf accuracy    <       0.00166576 Ry

     iteration #  9     ecut=    60.00 Ry     beta= 0.70
     Davidson diagonalization with overlap
     c_bands:  1 eigenvalues not converged
     c_bands:  1 eigenvalues not converged
     c_bands:  1 eigenvalues not converged
     c_bands:  1 eigenvalues not converged
     c_bands:  1 eigenvalues not converged
     c_bands:  1 eigenvalues not converged
     ethr =  4.45E-07,  avg # of iterations = 16.8

     negative rho (up, down):  6.294E-03 0.000E+00

     total cpu time spent up to now is     8069.1 secs

     total energy              =  -27820.66396749 Ry
     estimated scf accuracy    <       0.00211709 Ry

     iteration # 10     ecut=    60.00 Ry     beta= 0.70
     Davidson diagonalization with overlap
     c_bands:  1 eigenvalues not converged
     c_bands:  1 eigenvalues not converged
     c_bands:  1 eigenvalues not converged
     c_bands:  1 eigenvalues not converged
     ethr =  4.45E-07,  avg # of iterations =  8.3

     negative rho (up, down):  6.874E-03 0.000E+00

     total cpu time spent up to now is     8733.6 secs

     total energy              =  -27820.66408124 Ry
     estimated scf accuracy    <       0.00062281 Ry

     iteration # 11     ecut=    60.00 Ry     beta= 0.70
     Davidson diagonalization with overlap
     ethr =  1.67E-07,  avg # of iterations =  6.8

     negative rho (up, down):  7.405E-03 0.000E+00

     total cpu time spent up to now is     9409.5 secs

     total energy              =  -27820.66416017 Ry
     estimated scf accuracy    <       0.00049053 Ry

     iteration # 12     ecut=    60.00 Ry     beta= 0.70
     Davidson diagonalization with overlap
     ethr =  1.31E-07,  avg # of iterations =  2.5

     negative rho (up, down):  9.382E-03 0.000E+00

     total cpu time spent up to now is    10022.8 secs

     total energy              =  -27820.66418237 Ry
     estimated scf accuracy    <       0.00028458 Ry

     iteration # 13     ecut=    60.00 Ry     beta= 0.70
     Davidson diagonalization with overlap
     c_bands:  1 eigenvalues not converged
     ethr =  7.61E-08,  avg # of iterations =  6.8

     negative rho (up, down):  1.024E-02 0.000E+00

     total cpu time spent up to now is    10700.6 secs

     total energy              =  -27820.66418535 Ry
     estimated scf accuracy    <       0.00015167 Ry

     iteration # 14     ecut=    60.00 Ry     beta= 0.70
     Davidson diagonalization with overlap
     c_bands:  1 eigenvalues not converged
     ethr =  4.06E-08,  avg # of iterations =  3.4

     negative rho (up, down):  1.122E-02 0.000E+00

     total cpu time spent up to now is    11335.7 secs

     total energy              =  -27820.66417100 Ry
     estimated scf accuracy    <       0.00011039 Ry

     iteration # 15     ecut=    60.00 Ry     beta= 0.70
     Davidson diagonalization with overlap
     ethr =  2.95E-08,  avg # of iterations =  1.6

     negative rho (up, down):  1.278E-02 0.000E+00

     total cpu time spent up to now is    11934.7 secs

     total energy              =  -27820.66416436 Ry
     estimated scf accuracy    <       0.00007758 Ry

     iteration # 16     ecut=    60.00 Ry     beta= 0.70
     Davidson diagonalization with overlap
     ethr =  2.07E-08,  avg # of iterations =  2.0

     negative rho (up, down):  1.282E-02 0.000E+00

     total cpu time spent up to now is    12556.6 secs

     total energy              =  -27820.66416956 Ry
     estimated scf accuracy    <       0.00008560 Ry

     iteration # 17     ecut=    60.00 Ry     beta= 0.70
     Davidson diagonalization with overlap
     ethr =  2.07E-08,  avg # of iterations =  1.8

     negative rho (up, down):  1.386E-02 0.000E+00

     total cpu time spent up to now is    13162.7 secs

     total energy              =  -27820.66416831 Ry
     estimated scf accuracy    <       0.00002478 Ry

     iteration # 18     ecut=    60.00 Ry     beta= 0.70
     Davidson diagonalization with overlap
     ethr =  6.63E-09,  avg # of iterations =  2.0

     negative rho (up, down):  1.331E-02 0.000E+00

     total cpu time spent up to now is    13801.1 secs

     total energy              =  -27820.66417283 Ry
     estimated scf accuracy    <       0.00002287 Ry

     iteration # 19     ecut=    60.00 Ry     beta= 0.70
     Davidson diagonalization with overlap
     ethr =  6.12E-09,  avg # of iterations =  2.0

     negative rho (up, down):  1.374E-02 0.000E+00

     total cpu time spent up to now is    14440.5 secs

     total energy              =  -27820.66417291 Ry
     estimated scf accuracy    <       0.00001165 Ry

     iteration # 20     ecut=    60.00 Ry     beta= 0.70
     Davidson diagonalization with overlap
     ethr =  3.11E-09,  avg # of iterations =  1.1

     negative rho (up, down):  1.376E-02 0.000E+00

     total cpu time spent up to now is    15020.1 secs

     total energy              =  -27820.66417340 Ry
     estimated scf accuracy    <       0.00000198 Ry

     iteration # 21     ecut=    60.00 Ry     beta= 0.70
     Davidson diagonalization with overlap
     ethr =  5.30E-10,  avg # of iterations =  4.2

     negative rho (up, down):  1.390E-02 0.000E+00

     total cpu time spent up to now is    15883.1 secs

     End of self-consistent calculation

          k = 0.0000 0.0000 0.0000 ( 93769 PWs)   bands (ev):

   -19.8235 -10.9910  -7.1590  -6.5979  -5.8663  -4.9179  -4.7587  -4.7418
    -4.7397  -4.7391  -4.7359  -4.7261  -4.7255  -4.6711  -4.4868  -4.1834
    -4.1801  -4.1792  -4.1759  -4.1753  -4.1709  -3.7135  -3.7119  -3.7088
    -3.7018  -3.7013  -3.6995  -3.4956  -3.4914  -3.4902  -3.4894  -3.4893
    -3.4843  -3.2597  -3.2585  -3.2577  -3.2548  -3.2527  -3.2510  -3.2487
    -3.2483  -3.2418  -3.2407  -3.2241  -3.2117  -2.6665  -2.6460  -2.6443
    -2.6166  -2.6148  -2.5674  -2.5633  -2.5617  -2.5588  -2.5576  -2.5166
    -2.4176  -2.4061  -2.3211  -2.2880  -1.8229  -1.8196  -1.8150  -1.8147
    -1.8138  -1.8081  -1.7474  -1.6524  -1.6520  -1.6292  -1.6251  -1.6240
    -1.6188  -1.6113  -1.5959  -1.5922  -1.5893  -1.5856  -1.5832  -1.5744
    -1.5497  -1.5491  -1.4281  -1.4034  -1.4003  -1.3976  -1.3956  -1.3913
    -1.2464  -1.2361  -1.2360  -1.2311  -1.2298  -1.2245  -1.1504  -1.1489
    -1.1233  -1.0553  -1.0546  -1.0017  -0.9972  -0.9808  -0.9789  -0.9438
    -0.9378  -0.9340  -0.8841  -0.7816  -0.7799  -0.7754  -0.7752  -0.7711
    -0.7573  -0.6217  -0.2875  -0.2832  -0.2817  -0.2744  -0.2743  -0.2708
    -0.2308  -0.2123  -0.2057  -0.2049  -0.2034  -0.1859  -0.1333  -0.1255
     0.0193   0.0338   0.0340   0.0379   0.0565   0.0697   0.1710   0.1724
     0.1945   0.1948   0.2017   0.2020   0.4453   0.4471   0.4552   0.4559
     0.4606   0.4641   0.5314   0.5349   0.7081   0.7095   0.7113   0.7198
     0.7216   0.7452   0.8804   0.8811   0.8903   0.8913   0.8913   0.9024
     0.9208   0.9222   0.9251   0.9275   0.9340   0.9993   1.0584   1.0706
     1.0727   1.0756   1.0770   1.0869   1.0939   1.1065   1.1627   1.1644
     1.1878   1.1884   1.1901   1.1944   1.2042   1.2057   1.2821   1.2834
     1.2950   1.3008   1.3013   1.3043   1.3815   1.3961   1.4002   1.4017
     1.4124   1.4130   1.5505   1.6174   1.6183   1.7162   1.7179   1.7308
     1.7316   1.7329   1.7404   2.5130   2.5942   2.5999   2.6048   2.6073
     2.6236   2.8466   4.8651   4.9039   4.9174   4.9383   4.9418   5.1026
     5.5021   6.2609   6.4831   6.4873   6.5303   6.5388   6.5483   6.5509

          k = 0.0000 0.2309 0.0000 ( 93636 PWs)   bands (ev):

   -19.8235 -10.9910  -7.0121  -6.5979  -5.7225  -5.2533  -4.9009  -4.8495
    -4.8226  -4.6173  -4.5846  -4.5419  -4.5164  -4.4975  -4.4679  -4.2910
    -4.2720  -4.1181  -4.1149  -4.0988  -4.0911  -3.8182  -3.6846  -3.6842
    -3.6580  -3.6565  -3.5888  -3.5876  -3.5236  -3.5218  -3.5154  -3.5088
    -3.4390  -3.4075  -3.4053  -3.2936  -3.2886  -3.2868  -3.2365  -3.2344
    -3.0705  -3.0605  -3.0451  -3.0387  -3.0098  -2.7827  -2.7706  -2.7385
    -2.6934  -2.6853  -2.6564  -2.6445  -2.5722  -2.4659  -2.4566  -2.3934
    -2.3897  -2.3486  -2.3187  -2.2970  -2.1058  -2.0145  -2.0097  -1.9360
    -1.9304  -1.8957  -1.8485  -1.8193  -1.8124  -1.7927  -1.7751  -1.7733
    -1.7230  -1.6572  -1.6408  -1.6229  -1.6197  -1.5473  -1.5336  -1.5264
    -1.4759  -1.4683  -1.4546  -1.3984  -1.3566  -1.3489  -1.3397  -1.3376
    -1.2699  -1.2424  -1.2382  -1.2312  -1.2251  -1.1874  -1.1546  -1.1366
    -1.1112  -1.1029  -1.0544  -1.0532  -1.0272  -1.0053  -0.9833  -0.9590
    -0.9514  -0.9428  -0.8443  -0.7908  -0.7770  -0.7725  -0.7684  -0.7506
    -0.7461  -0.7260  -0.6998  -0.6801  -0.6616  -0.6588  -0.6065  -0.4385
    -0.3618  -0.3074  -0.2626  -0.2616  -0.2486  -0.2405  -0.2190  -0.2158
    -0.0610  -0.0586  -0.0386   0.0570   0.0968   0.1111   0.1159   0.1249
     0.2130   0.2183   0.2264   0.2380   0.3151   0.3283   0.3313   0.3541
     0.3591   0.5473   0.5495   0.5788   0.5796   0.5894   0.6100   0.6238
     0.6991   0.7243   0.7302   0.7572   0.7736   0.8206   0.8278   0.8344
     0.8407   0.9425   0.9458   0.9739   0.9941   1.0694   1.1138   1.1213
     1.1236   1.1316   1.1465   1.1874   1.2040   1.2553   1.2631   1.3190
     1.3266   1.3301   1.3723   1.3770   1.3793   1.3854   1.3865   1.4101
     1.4570   1.4723   1.6119   1.6147   1.6258   1.6447   1.6562   1.6604
     1.6908   1.7312   1.7338   1.7475   1.8480   1.8494   1.8717   2.0275
     2.0333   2.0370   2.0429   2.1490   2.4773   2.5345   3.1792   3.2049
     3.2557   3.3922   4.2145   4.6389   4.7074   5.3549   5.3575   5.4558
     5.5220   5.6031   5.7808   6.2234   6.3266   6.3405   6.4169   6.7213

          k = 0.0000 0.4619 0.0000 ( 93668 PWs)   bands (ev):

   -19.8235 -10.9911  -6.6024  -6.5846  -5.9537  -5.3227  -4.9213  -4.8832
    -4.8451  -4.7048  -4.5166  -4.4963  -4.3630  -4.2346  -4.1969  -4.1576
    -4.1557  -3.9812  -3.9701  -3.9441  -3.9366  -3.9322  -3.8145  -3.7764
    -3.7734  -3.7245  -3.7229  -3.6716  -3.6405  -3.5871  -3.5865  -3.5638
    -3.3165  -3.3148  -3.3055  -3.3033  -3.2966  -3.2935  -3.0720  -3.0698
    -3.0216  -3.0192  -3.0085  -3.0026  -2.8298  -2.7402  -2.7235  -2.7118
    -2.7045  -2.6605  -2.6468  -2.6110  -2.5852  -2.5746  -2.5402  -2.5026
    -2.4808  -2.3676  -2.3608  -2.3209  -2.3136  -2.2152  -2.1789  -2.1416
    -2.1392  -2.1263  -1.9928  -1.9196  -1.9154  -1.8998  -1.8963  -1.8119
    -1.8042  -1.7873  -1.6729  -1.6709  -1.6614  -1.6505  -1.5507  -1.5360
    -1.5260  -1.5246  -1.5213  -1.4529  -1.4444  -1.4286  -1.4173  -1.4091
    -1.4021  -1.3965  -1.3836  -1.3486  -1.2842  -1.2672  -1.2557  -1.2418
    -1.2261  -1.2087  -1.1827  -1.0940  -1.0860  -1.0360  -0.9997  -0.9864
    -0.9600  -0.9454  -0.9312  -0.9155  -0.8651  -0.7898  -0.7808  -0.7401
    -0.7086  -0.6938  -0.6628  -0.5285  -0.5219  -0.4959  -0.4377  -0.3662
    -0.3486  -0.3389  -0.3182  -0.3165  -0.3139  -0.3000  -0.2250  -0.2145
    -0.1974  -0.1849  -0.1782  -0.1528  -0.1421  -0.1267  -0.1008  -0.0636
     0.0218   0.0459   0.0594   0.1231   0.1821   0.2204   0.2208   0.3521
     0.3536   0.4161   0.4715   0.5207   0.5260   0.5509   0.5704   0.6072
     0.6133   0.6676   0.6761   0.7194   0.7252   0.7777   0.8268   0.8372
     0.8784   0.8809   0.8982   0.8992   0.9837   1.0754   1.0941   1.1520
     1.1668   1.1780   1.1823   1.2625   1.2808   1.2882   1.3770   1.3806
     1.3850   1.4249   1.4613   1.4833   1.4870   1.4930   1.6110   1.6204
     1.6321   1.6418   1.6466   1.6560   1.6689   1.7027   1.8427   1.8817
     1.8860   1.8901   1.9065   2.0790   2.1125   2.4863   2.5208   2.5682
     2.8041   2.9315   2.9340   3.3284   3.3297   3.5144   3.6663   4.1425
     4.1469   4.1598   4.2543   4.4085   4.4250   4.5370   4.6158   4.8088
     4.8156   5.3271   5.4472   5.8705   5.9635   5.9882   6.2939   6.4311

          k = 0.2000-0.1155 0.0000 ( 93636 PWs)   bands (ev):

   -19.8235 -10.9910  -7.0121  -6.5978  -5.7226  -5.2536  -4.9012  -4.8488
    -4.8221  -4.6179  -4.5860  -4.5514  -4.5026  -4.4984  -4.4715  -4.2876
    -4.2724  -4.1185  -4.1148  -4.0991  -4.0923  -3.8180  -3.6845  -3.6841
    -3.6589  -3.6545  -3.5889  -3.5879  -3.5252  -3.5219  -3.5156  -3.5090
    -3.4391  -3.4072  -3.4051  -3.2942  -3.2901  -3.2865  -3.2358  -3.2345
    -3.0703  -3.0604  -3.0442  -3.0391  -3.0094  -2.7794  -2.7704  -2.7351
    -2.6934  -2.6854  -2.6667  -2.6438  -2.5744  -2.4631  -2.4564  -2.3914
    -2.3856  -2.3514  -2.3188  -2.2967  -2.1086  -2.0120  -2.0091  -1.9352
    -1.9332  -1.8921  -1.8477  -1.8183  -1.8155  -1.7927  -1.7759  -1.7709
    -1.7231  -1.6553  -1.6370  -1.6223  -1.6194  -1.5470  -1.5343  -1.5277
    -1.4711  -1.4665  -1.4551  -1.4014  -1.3566  -1.3498  -1.3395  -1.3374
    -1.2745  -1.2443  -1.2403  -1.2325  -1.2257  -1.1905  -1.1596  -1.1328
    -1.1143  -1.1087  -1.0548  -1.0533  -1.0261  -1.0101  -0.9759  -0.9587
    -0.9509  -0.9298  -0.8402  -0.7892  -0.7755  -0.7747  -0.7704  -0.7514
    -0.7428  -0.7336  -0.6959  -0.6810  -0.6661  -0.6538  -0.6122  -0.4330
    -0.3624  -0.3095  -0.2642  -0.2584  -0.2479  -0.2409  -0.2200  -0.2157
    -0.0589  -0.0579  -0.0453   0.0589   0.0953   0.1108   0.1169   0.1245
     0.2132   0.2184   0.2288   0.2330   0.3156   0.3286   0.3308   0.3546
     0.3590   0.5453   0.5545   0.5784   0.5799   0.5879   0.6106   0.6250
     0.6945   0.7243   0.7292   0.7569   0.7713   0.8208   0.8275   0.8335
     0.8413   0.9413   0.9482   0.9739   0.9948   1.0752   1.1135   1.1197
     1.1249   1.1309   1.1457   1.1872   1.2065   1.2562   1.2630   1.3173
     1.3264   1.3301   1.3720   1.3768   1.3803   1.3854   1.3864   1.4099
     1.4566   1.4702   1.6108   1.6139   1.6251   1.6450   1.6562   1.6615
     1.6905   1.7315   1.7350   1.7474   1.8474   1.8504   1.8714   2.0284
     2.0341   2.0369   2.0529   2.1367   2.4712   2.5447   3.1753   3.1969
     3.2711   3.3910   4.2045   4.6255   4.7316   5.3560   5.3571   5.4556
     5.5292   5.6063   5.7746   6.2006   6.3215   6.3368   6.4033   6.7184

          k = 0.2000 0.1155 0.0000 ( 93636 PWs)   bands (ev):

   -19.8235 -10.9910  -7.0121  -6.5980  -5.7226  -5.2542  -4.8967  -4.8492
    -4.8266  -4.6177  -4.5855  -4.5435  -4.5144  -4.4980  -4.4682  -4.2861
    -4.2717  -4.1188  -4.1143  -4.0988  -4.0942  -3.8174  -3.6847  -3.6841
    -3.6580  -3.6540  -3.5889  -3.5882  -3.5251  -3.5227  -3.5160  -3.5090
    -3.4388  -3.4070  -3.4051  -3.2933  -3.2906  -3.2866  -3.2369  -3.2341
    -3.0705  -3.0603  -3.0452  -3.0388  -3.0098  -2.7854  -2.7702  -2.7414
    -2.6904  -2.6853  -2.6507  -2.6442  -2.5722  -2.4654  -2.4581  -2.3933
    -2.3900  -2.3477  -2.3190  -2.3000  -2.1056  -2.0140  -2.0102  -1.9339
    -1.9300  -1.8981  -1.8472  -1.8185  -1.8131  -1.7934  -1.7761  -1.7711
    -1.7230  -1.6609  -1.6439  -1.6214  -1.6201  -1.5469  -1.5304  -1.5274
    -1.4789  -1.4696  -1.4582  -1.3946  -1.3515  -1.3480  -1.3383  -1.3370
    -1.2509  -1.2453  -1.2345  -1.2313  -1.2251  -1.1897  -1.1586  -1.1397
    -1.1104  -1.0913  -1.0541  -1.0523  -1.0277  -1.0097  -0.9836  -0.9593
    -0.9562  -0.9504  -0.8436  -0.7873  -0.7765  -0.7754  -0.7725  -0.7517
    -0.7387  -0.7313  -0.7041  -0.6834  -0.6647  -0.6519  -0.6286  -0.4227
    -0.3628  -0.3100  -0.2633  -0.2591  -0.2475  -0.2421  -0.2188  -0.2112
    -0.0587  -0.0549  -0.0456   0.0566   0.0959   0.1126   0.1183   0.1245
     0.2131   0.2192   0.2309   0.2344   0.3152   0.3278   0.3311   0.3551
     0.3594   0.5443   0.5540   0.5792   0.5799   0.5880   0.6072   0.6210
     0.6955   0.7254   0.7297   0.7567   0.7676   0.8204   0.8288   0.8338
     0.8417   0.9437   0.9490   0.9742   0.9961   1.0699   1.1129   1.1204
     1.1280   1.1323   1.1458   1.1877   1.2077   1.2560   1.2638   1.3177
     1.3254   1.3299   1.3723   1.3771   1.3795   1.3856   1.3860   1.4085
     1.4565   1.4689   1.6099   1.6133   1.6262   1.6450   1.6563   1.6614
     1.6908   1.7322   1.7362   1.7476   1.8483   1.8503   1.8714   2.0288
     2.0332   2.0357   2.0445   2.1472   2.4758   2.5405   3.1836   3.2016
     3.2539   3.3938   4.2175   4.6323   4.7059   5.3556   5.3570   5.4648
     5.5300   5.6038   5.7817   6.2816   6.3287   6.3390   6.4368   6.6091

          k = 0.2000 0.3464 0.0000 ( 93674 PWs)   bands (ev):

   -19.8235 -10.9911  -6.7269  -6.5977  -5.5032  -5.5000  -5.4473  -4.8517
    -4.5165  -4.4231  -4.4187  -4.3940  -4.3805  -4.3509  -4.3443  -4.3400
    -4.3013  -4.2333  -4.2283  -3.8469  -3.8430  -3.8383  -3.8358  -3.7725
    -3.7511  -3.6079  -3.5890  -3.5816  -3.5643  -3.5630  -3.4892  -3.4394
    -3.4295  -3.4030  -3.4020  -3.3513  -3.3118  -3.3052  -3.2656  -3.2642
    -3.1849  -2.9205  -2.8362  -2.8194  -2.8041  -2.7903  -2.7758  -2.7693
    -2.7662  -2.7074  -2.6990  -2.5632  -2.5326  -2.5278  -2.5215  -2.4367
    -2.4133  -2.3609  -2.3584  -2.3321  -2.2605  -2.2506  -2.0916  -2.0888
    -2.0635  -1.9918  -1.9860  -1.9555  -1.9455  -1.9409  -1.8781  -1.8718
    -1.7289  -1.7032  -1.7007  -1.6908  -1.6366  -1.6300  -1.5732  -1.5677
    -1.5551  -1.5526  -1.4446  -1.4057  -1.3966  -1.3825  -1.3752  -1.3737
    -1.3640  -1.3253  -1.3117  -1.2548  -1.2417  -1.2320  -1.2114  -1.1471
    -1.1399  -1.1285  -1.0765  -1.0583  -1.0257  -1.0167  -1.0081  -0.9671
    -0.9623  -0.9557  -0.9425  -0.9308  -0.9209  -0.9035  -0.8662  -0.8426
    -0.8220  -0.7446  -0.7022  -0.6969  -0.6306  -0.6246  -0.6177  -0.5758
    -0.4326  -0.4232  -0.2935  -0.2738  -0.2429  -0.2374  -0.2232  -0.2067
    -0.1908  -0.1589  -0.1494  -0.1289  -0.1065  -0.0682  -0.0317   0.0786
     0.1527   0.1646   0.1977   0.2091   0.2245   0.2555   0.2789   0.3946
     0.4036   0.4128   0.4594   0.4660   0.5338   0.5916   0.6090   0.6191
     0.6265   0.6950   0.6989   0.7040   0.7162   0.7276   0.7400   0.7474
     0.7602   0.7812   0.8876   0.9554   0.9690   1.0932   1.0973   1.1346
     1.2641   1.2667   1.2702   1.2948   1.3788   1.3973   1.4153   1.4200
     1.4323   1.4589   1.4668   1.4832   1.4878   1.5096   1.5453   1.5503
     1.5767   1.6431   1.6636   1.6745   1.6998   1.7048   1.7484   1.8825
     1.9314   1.9346   2.0057   2.0140   2.0217   2.0647   2.1620   2.1745
     2.6141   2.6927   2.7056   3.2290   3.2363   3.2607   3.2932   3.9089
     3.9320   4.0451   4.1563   4.1993   4.2451   4.8609   5.3453   5.3837
     5.3969   5.5869   5.7385   5.9424   6.0469   6.0849   6.1690   6.1764

          k = 0.2000-0.5774 0.0000 ( 93686 PWs)   bands (ev):

   -19.8235 -10.9911  -6.5984  -6.1924  -6.1893  -5.5840  -5.0202  -4.9386
    -4.7726  -4.5113  -4.4173  -4.3901  -4.2822  -4.2466  -4.1395  -4.1354
    -4.0333  -4.0271  -3.9138  -3.9056  -3.9035  -3.8673  -3.8608  -3.8478
    -3.8298  -3.7119  -3.6981  -3.6948  -3.6562  -3.6516  -3.5627  -3.4732
    -3.4424  -3.3828  -3.2860  -3.2843  -3.2739  -3.2721  -3.2490  -3.1483
    -3.1454  -3.0503  -3.0439  -2.8725  -2.8584  -2.8116  -2.7220  -2.7088
    -2.6681  -2.6515  -2.5893  -2.5303  -2.4846  -2.4458  -2.4368  -2.4196
    -2.3732  -2.3698  -2.3451  -2.2446  -2.2413  -2.2129  -2.2068  -2.2035
    -2.1976  -2.1882  -2.1282  -2.1213  -2.0008  -1.9772  -1.9257  -1.9202
    -1.8130  -1.7727  -1.7697  -1.7654  -1.7188  -1.6818  -1.6797  -1.6005
    -1.5786  -1.5705  -1.5539  -1.5375  -1.5071  -1.4576  -1.4479  -1.4027
    -1.3711  -1.3461  -1.3319  -1.3261  -1.2224  -1.1882  -1.1631  -1.1518
    -1.1267  -1.1182  -1.0769  -1.0720  -1.0674  -1.0323  -1.0311  -1.0235
    -0.9859  -0.9762  -0.9449  -0.9309  -0.9249  -0.9223  -0.9133  -0.8882
    -0.8684  -0.8167  -0.8080  -0.7560  -0.6017  -0.5772  -0.5051  -0.4948
    -0.3894  -0.3871  -0.3773  -0.3482  -0.2986  -0.2929  -0.2824  -0.2746
    -0.2522  -0.1761  -0.1481  -0.1445  -0.0811  -0.0771  -0.0388   0.0019
     0.0191   0.0764   0.1972   0.2565   0.2633   0.2832   0.2865   0.3715
     0.3822   0.3868   0.4070   0.4143   0.4412   0.4624   0.4696   0.5744
     0.5814   0.6050   0.6485   0.6540   0.6696   0.6819   0.6943   0.7204
     0.8556   0.9091   0.9431   1.0098   1.0248   1.0985   1.1033   1.1831
     1.2254   1.2345   1.2521   1.3374   1.3621   1.4121   1.4428   1.4556
     1.4623   1.4785   1.5006   1.5210   1.5614   1.6211   1.6233   1.6486
     1.6650   1.6726   1.6769   1.7256   1.7566   1.8773   1.8843   1.8880
     1.8915   1.9050   1.9656   2.0499   2.0815   2.2159   3.0392   3.0406
     3.2147   3.2818   3.3502   3.4335   3.4415   3.4574   3.8850   4.0492
     4.0537   4.5049   4.5165   4.5547   4.6503   4.6519   4.8634   4.8966
     4.9487   5.0481   5.3806   5.4781   5.4991   5.8291   6.1273   6.1334

          k = 0.2000-0.3464 0.0000 ( 93674 PWs)   bands (ev):

   -19.8235 -10.9911  -6.7264  -6.5978  -5.5016  -5.5011  -5.4475  -4.8522
    -4.5182  -4.4221  -4.4177  -4.3952  -4.3780  -4.3495  -4.3450  -4.3419
    -4.3025  -4.2330  -4.2290  -3.8472  -3.8427  -3.8386  -3.8356  -3.7722
    -3.7510  -3.6080  -3.5885  -3.5821  -3.5646  -3.5635  -3.4895  -3.4379
    -3.4309  -3.4035  -3.4019  -3.3511  -3.3123  -3.3058  -3.2663  -3.2625
    -3.1849  -2.9208  -2.8277  -2.8197  -2.8039  -2.7873  -2.7756  -2.7681
    -2.7672  -2.7096  -2.6998  -2.5993  -2.5311  -2.5269  -2.4900  -2.4411
    -2.4123  -2.3613  -2.3562  -2.3329  -2.2604  -2.2569  -2.0888  -2.0859
    -2.0638  -1.9910  -1.9804  -1.9527  -1.9492  -1.9423  -1.8766  -1.8718
    -1.7233  -1.7022  -1.6987  -1.6918  -1.6336  -1.6268  -1.5760  -1.5691
    -1.5622  -1.5514  -1.4288  -1.4188  -1.4007  -1.3882  -1.3752  -1.3734
    -1.3642  -1.3257  -1.3186  -1.2856  -1.2400  -1.2301  -1.2079  -1.1580
    -1.1380  -1.1281  -1.0838  -1.0451  -1.0238  -1.0129  -1.0035  -0.9692
    -0.9594  -0.9545  -0.9415  -0.9295  -0.9192  -0.9016  -0.8538  -0.8460
    -0.8137  -0.7448  -0.7002  -0.6848  -0.6316  -0.6235  -0.6186  -0.5820
    -0.4320  -0.4236  -0.2957  -0.2743  -0.2425  -0.2361  -0.2239  -0.2058
    -0.1987  -0.1600  -0.1498  -0.1286  -0.1042  -0.0707  -0.0320   0.0786
     0.1551   0.1585   0.1976   0.2088   0.2229   0.2564   0.2789   0.3974
     0.4015   0.4113   0.4593   0.4655   0.5331   0.5912   0.6117   0.6205
     0.6283   0.6962   0.6995   0.7046   0.7144   0.7269   0.7409   0.7472
     0.7595   0.7835   0.8861   0.9575   0.9706   1.0933   1.0955   1.1332
     1.2627   1.2656   1.2714   1.2902   1.3812   1.3959   1.4147   1.4205
     1.4328   1.4583   1.4676   1.4831   1.4883   1.5109   1.5465   1.5496
     1.5768   1.6438   1.6635   1.6747   1.7000   1.7045   1.7485   1.8821
     1.9327   1.9335   2.0006   2.0146   2.0207   2.0697   2.1615   2.1746
     2.6104   2.6936   2.7050   3.2276   3.2377   3.2539   3.2985   3.9050
     3.9401   4.0441   4.1562   4.1973   4.2385   4.8612   5.3453   5.3729
     5.4235   5.5857   5.7109   5.9452   6.0443   6.0844   6.1697   6.1753

          k = 0.4000-0.2309 0.0000 ( 93668 PWs)   bands (ev):

   -19.8235 -10.9911  -6.5981  -6.5887  -5.9540  -5.3234  -4.9221  -4.8824
    -4.8447  -4.7082  -4.5312  -4.4784  -4.3630  -4.2339  -4.1951  -4.1579
    -4.1559  -3.9826  -3.9718  -3.9434  -3.9370  -3.9318  -3.8141  -3.7763
    -3.7738  -3.7253  -3.7224  -3.6716  -3.6400  -3.5870  -3.5864  -3.5633
    -3.3166  -3.3154  -3.3068  -3.3027  -3.2971  -3.2931  -3.0753  -3.0701
    -3.0212  -3.0193  -3.0103  -3.0014  -2.8281  -2.7406  -2.7226  -2.7119
    -2.7053  -2.6659  -2.6470  -2.6073  -2.5888  -2.5735  -2.5352  -2.5029
    -2.4706  -2.3662  -2.3634  -2.3190  -2.3160  -2.2155  -2.1791  -2.1412
    -2.1396  -2.1328  -1.9929  -1.9216  -1.9092  -1.8990  -1.8936  -1.8118
    -1.8010  -1.7823  -1.6722  -1.6677  -1.6604  -1.6528  -1.5461  -1.5350
    -1.5278  -1.5245  -1.5219  -1.4526  -1.4408  -1.4299  -1.4177  -1.4110
    -1.4028  -1.3958  -1.3873  -1.3526  -1.2959  -1.2676  -1.2587  -1.2416
    -1.2253  -1.2138  -1.1785  -1.0935  -1.0858  -1.0361  -1.0052  -0.9789
    -0.9616  -0.9469  -0.9298  -0.9190  -0.8690  -0.7893  -0.7810  -0.7290
    -0.7038  -0.6983  -0.6627  -0.5275  -0.5209  -0.4930  -0.4379  -0.3638
    -0.3545  -0.3399  -0.3189  -0.3171  -0.3127  -0.3001  -0.2250  -0.2105
    -0.1968  -0.1850  -0.1748  -0.1584  -0.1486  -0.1299  -0.0986  -0.0602
     0.0217   0.0478   0.0555   0.1228   0.1860   0.2202   0.2209   0.3514
     0.3534   0.4183   0.4670   0.5192   0.5268   0.5497   0.5693   0.6080
     0.6130   0.6650   0.6750   0.7191   0.7251   0.7766   0.8266   0.8396
     0.8800   0.8817   0.8976   0.9000   0.9861   1.0709   1.0970   1.1502
     1.1665   1.1780   1.1823   1.2628   1.2824   1.2880   1.3744   1.3821
     1.3842   1.4222   1.4654   1.4823   1.4880   1.4930   1.6104   1.6200
     1.6319   1.6408   1.6465   1.6559   1.6695   1.7027   1.8429   1.8819
     1.8867   1.8900   1.9078   2.0788   2.1122   2.4802   2.5290   2.5652
     2.8077   2.9324   2.9337   3.3266   3.3323   3.5123   3.6667   4.1429
     4.1467   4.1637   4.2451   4.4026   4.4337   4.5211   4.6447   4.8059
     4.8174   5.3163   5.4462   5.8801   5.9558   5.9919   6.3234   6.4239

          k = 0.4000-0.0000 0.0000 ( 93674 PWs)   bands (ev):

   -19.8235 -10.9910  -6.7266  -6.5978  -5.5027  -5.5004  -5.4480  -4.8520
    -4.5208  -4.4210  -4.4179  -4.3969  -4.3746  -4.3503  -4.3438  -4.3425
    -4.3003  -4.2336  -4.2282  -3.8478  -3.8429  -3.8382  -3.8353  -3.7725
    -3.7513  -3.6080  -3.5892  -3.5817  -3.5646  -3.5622  -3.4892  -3.4379
    -3.4310  -3.4028  -3.4016  -3.3509  -3.3139  -3.3036  -3.2709  -3.2629
    -3.1849  -2.9202  -2.8325  -2.8181  -2.8105  -2.7865  -2.7751  -2.7702
    -2.7661  -2.7079  -2.6964  -2.5823  -2.5313  -2.5251  -2.5011  -2.4407
    -2.4119  -2.3601  -2.3578  -2.3369  -2.2609  -2.2540  -2.0907  -2.0864
    -2.0639  -1.9912  -1.9818  -1.9526  -1.9465  -1.9417  -1.8782  -1.8719
    -1.7225  -1.7039  -1.6991  -1.6915  -1.6355  -1.6292  -1.5727  -1.5656
    -1.5563  -1.5520  -1.4408  -1.4075  -1.3980  -1.3865  -1.3756  -1.3734
    -1.3641  -1.3258  -1.3124  -1.2680  -1.2413  -1.2340  -1.2094  -1.1479
    -1.1415  -1.1317  -1.0817  -1.0564  -1.0241  -1.0202  -1.0084  -0.9677
    -0.9627  -0.9482  -0.9445  -0.9292  -0.9157  -0.9103  -0.8641  -0.8436
    -0.8118  -0.7444  -0.7032  -0.7011  -0.6273  -0.6242  -0.6185  -0.5732
    -0.4314  -0.4229  -0.2936  -0.2739  -0.2433  -0.2389  -0.2235  -0.2056
    -0.1938  -0.1601  -0.1481  -0.1300  -0.1041  -0.0687  -0.0321   0.0794
     0.1517   0.1624   0.1984   0.2088   0.2248   0.2546   0.2788   0.3939
     0.4028   0.4132   0.4597   0.4649   0.5343   0.5869   0.6115   0.6182
     0.6273   0.6957   0.7010   0.7074   0.7157   0.7252   0.7404   0.7466
     0.7600   0.7784   0.8926   0.9539   0.9692   1.0943   1.0978   1.1358
     1.2638   1.2660   1.2718   1.2945   1.3799   1.3942   1.4142   1.4205
     1.4333   1.4583   1.4676   1.4824   1.4873   1.5087   1.5437   1.5486
     1.5779   1.6434   1.6636   1.6740   1.7002   1.7048   1.7480   1.8831
     1.9324   1.9350   2.0008   2.0138   2.0217   2.0737   2.1597   2.1749
     2.6127   2.6939   2.7035   3.2309   3.2351   3.2525   3.3025   3.9050
     3.9435   4.0452   4.1566   4.1947   4.2405   4.8613   5.3447   5.3665
     5.4321   5.5861   5.7440   5.9079   6.0480   6.1122   6.1653   6.1722

          k = 0.4000 0.2309 0.0000 ( 93668 PWs)   bands (ev):

   -19.8235 -10.9910  -6.6040  -6.5835  -5.9540  -5.3239  -4.9186  -4.8827
    -4.8504  -4.7044  -4.5186  -4.4906  -4.3627  -4.2336  -4.1950  -4.1577
    -4.1555  -3.9815  -3.9743  -3.9428  -3.9375  -3.9317  -3.8140  -3.7762
    -3.7737  -3.7257  -3.7221  -3.6706  -3.6394  -3.5871  -3.5866  -3.5628
    -3.3173  -3.3146  -3.3061  -3.3032  -3.2978  -3.2930  -3.0759  -3.0694
    -3.0237  -3.0190  -3.0103  -3.0012  -2.8335  -2.7419  -2.7224  -2.7117
    -2.7051  -2.6505  -2.6465  -2.6128  -2.5863  -2.5734  -2.5244  -2.5024
    -2.4908  -2.3684  -2.3617  -2.3199  -2.3146  -2.2164  -2.1783  -2.1400
    -2.1379  -2.1251  -1.9939  -1.9213  -1.9169  -1.9004  -1.8966  -1.8136
    -1.8077  -1.7891  -1.6778  -1.6713  -1.6621  -1.6499  -1.5456  -1.5310
    -1.5262  -1.5232  -1.5218  -1.4565  -1.4387  -1.4298  -1.4178  -1.4030
    -1.4004  -1.3962  -1.3837  -1.3468  -1.2678  -1.2604  -1.2493  -1.2414
    -1.2290  -1.2125  -1.1881  -1.0924  -1.0718  -1.0382  -1.0043  -0.9945
    -0.9649  -0.9510  -0.9283  -0.9205  -0.8762  -0.7886  -0.7816  -0.7579
    -0.7150  -0.6913  -0.6627  -0.5274  -0.5225  -0.4906  -0.4382  -0.3623
    -0.3537  -0.3408  -0.3181  -0.3163  -0.3137  -0.3006  -0.2253  -0.2082
    -0.1968  -0.1862  -0.1723  -0.1593  -0.1485  -0.1232  -0.0970  -0.0547
     0.0213   0.0500   0.0550   0.1228   0.1903   0.2191   0.2206   0.3519
     0.3544   0.4164   0.4677   0.5200   0.5254   0.5481   0.5693   0.6068
     0.6133   0.6639   0.6717   0.7199   0.7251   0.7769   0.8281   0.8401
     0.8800   0.8826   0.8978   0.9018   0.9755   1.0729   1.1015   1.1509
     1.1660   1.1783   1.1829   1.2632   1.2820   1.2888   1.3762   1.3813
     1.3847   1.4224   1.4651   1.4819   1.4873   1.4929   1.6108   1.6210
     1.6322   1.6421   1.6474   1.6558   1.6695   1.6999   1.8431   1.8823
     1.8874   1.8905   1.9078   2.0788   2.1122   2.4846   2.5278   2.5618
     2.8073   2.9321   2.9342   3.3274   3.3314   3.5197   3.6661   4.1434
     4.1469   4.1614   4.2670   4.4044   4.4266   4.5287   4.6123   4.8071
     4.8171   5.3624   5.4477   5.9031   5.9692   5.9914   6.3092   6.4613

          k = 0.4000-0.6928 0.0000 ( 93686 PWs)   bands (ev):

   -19.8235 -10.9911  -6.5987  -6.1923  -6.1896  -5.5836  -5.0241  -4.9395
    -4.7692  -4.5027  -4.4180  -4.3971  -4.2821  -4.2471  -4.1399  -4.1357
    -4.0328  -4.0279  -3.9121  -3.9060  -3.9030  -3.8663  -3.8617  -3.8465
    -3.8289  -3.7129  -3.6980  -3.6953  -3.6561  -3.6516  -3.5621  -3.4720
    -3.4423  -3.3839  -3.2867  -3.2841  -3.2736  -3.2722  -3.2506  -3.1499
    -3.1456  -3.0501  -3.0439  -2.8749  -2.8585  -2.8153  -2.7136  -2.7082
    -2.6702  -2.6516  -2.5902  -2.5261  -2.4829  -2.4458  -2.4420  -2.4186
    -2.3727  -2.3683  -2.3448  -2.2454  -2.2400  -2.2127  -2.2076  -2.2026
    -2.1990  -2.1885  -2.1273  -2.1209  -2.0041  -1.9776  -1.9259  -1.9243
    -1.8125  -1.7728  -1.7670  -1.7616  -1.7172  -1.6840  -1.6794  -1.6009
    -1.5793  -1.5711  -1.5527  -1.5340  -1.5059  -1.4523  -1.4490  -1.4039
    -1.3713  -1.3456  -1.3311  -1.3281  -1.2186  -1.1954  -1.1642  -1.1558
    -1.1243  -1.1153  -1.0763  -1.0707  -1.0649  -1.0393  -1.0315  -1.0115
    -0.9853  -0.9659  -0.9439  -0.9338  -0.9251  -0.9214  -0.9181  -0.8865
    -0.8642  -0.8188  -0.8110  -0.7901  -0.6040  -0.5718  -0.5044  -0.4960
    -0.3893  -0.3848  -0.3787  -0.3489  -0.3028  -0.2878  -0.2820  -0.2709
    -0.2502  -0.1772  -0.1491  -0.1460  -0.0787  -0.0690  -0.0374   0.0009
     0.0172   0.0815   0.1965   0.2572   0.2601   0.2808   0.2874   0.3704
     0.3801   0.3841   0.4074   0.4167   0.4383   0.4629   0.4717   0.5776
     0.5819   0.6048   0.6477   0.6540   0.6683   0.6797   0.6954   0.7198
     0.8534   0.9038   0.9444   1.0103   1.0250   1.1001   1.1048   1.1856
     1.2260   1.2356   1.2545   1.3380   1.3605   1.4117   1.4413   1.4545
     1.4627   1.4789   1.5024   1.5193   1.5612   1.6212   1.6233   1.6472
     1.6642   1.6733   1.6783   1.7245   1.7538   1.8773   1.8855   1.8884
     1.8920   1.9053   1.9642   2.0526   2.0823   2.2154   3.0390   3.0411
     3.2219   3.2835   3.3495   3.4346   3.4388   3.4572   3.8777   4.0491
     4.0547   4.5040   4.5189   4.5525   4.6491   4.6543   4.8684   4.9277
     4.9531   5.0514   5.3691   5.4822   5.4924   5.7884   6.1179   6.1470

          k = 0.4000-0.4619 0.0000 ( 93686 PWs)   bands (ev):

   -19.8235 -10.9911  -6.5980  -6.1944  -6.1877  -5.5838  -5.0189  -4.9430
    -4.7728  -4.5043  -4.4175  -4.3938  -4.2823  -4.2470  -4.1399  -4.1361
    -4.0330  -4.0274  -3.9135  -3.9064  -3.9017  -3.8678  -3.8609  -3.8463
    -3.8298  -3.7127  -3.6976  -3.6952  -3.6560  -3.6517  -3.5629  -3.4724
    -3.4424  -3.3837  -3.2855  -3.2845  -3.2745  -3.2719  -3.2505  -3.1485
    -3.1458  -3.0476  -3.0456  -2.8752  -2.8584  -2.8100  -2.7274  -2.7082
    -2.6651  -2.6545  -2.5876  -2.5245  -2.4835  -2.4467  -2.4354  -2.4157
    -2.3734  -2.3724  -2.3445  -2.2460  -2.2381  -2.2136  -2.2077  -2.2058
    -2.1967  -2.1912  -2.1305  -2.1212  -1.9941  -1.9746  -1.9274  -1.9190
    -1.8127  -1.7756  -1.7694  -1.7637  -1.7181  -1.6807  -1.6781  -1.6013
    -1.5777  -1.5699  -1.5543  -1.5362  -1.5084  -1.4609  -1.4462  -1.4049
    -1.3692  -1.3448  -1.3323  -1.3285  -1.2236  -1.1948  -1.1623  -1.1539
    -1.1261  -1.1170  -1.0765  -1.0724  -1.0698  -1.0323  -1.0276  -1.0246
    -0.9852  -0.9750  -0.9448  -0.9320  -0.9261  -0.9215  -0.9118  -0.8908
    -0.8743  -0.8186  -0.8121  -0.7417  -0.6004  -0.5790  -0.5045  -0.4952
    -0.3881  -0.3870  -0.3774  -0.3479  -0.3013  -0.2909  -0.2854  -0.2724
    -0.2526  -0.1773  -0.1481  -0.1445  -0.0804  -0.0723  -0.0381   0.0032
     0.0176   0.0743   0.1966   0.2576   0.2606   0.2816   0.2880   0.3705
     0.3822   0.3844   0.4068   0.4162   0.4391   0.4620   0.4708   0.5763
     0.5821   0.6052   0.6466   0.6531   0.6696   0.6783   0.6945   0.7212
     0.8547   0.9118   0.9428   1.0133   1.0211   1.0992   1.1042   1.1850
     1.2270   1.2352   1.2506   1.3384   1.3603   1.4118   1.4421   1.4553
     1.4628   1.4751   1.5006   1.5218   1.5627   1.6215   1.6227   1.6479
     1.6676   1.6730   1.6761   1.7236   1.7549   1.8777   1.8844   1.8881
     1.8914   1.9059   1.9654   2.0514   2.0819   2.2154   3.0391   3.0409
     3.2368   3.2620   3.3455   3.4345   3.4428   3.4546   3.8896   4.0486
     4.0547   4.5057   4.5262   4.5443   4.6492   4.6535   4.8681   4.9360
     4.9521   4.9862   5.3883   5.4838   5.4866   5.8710   6.1285   6.1324

     the Fermi energy is     1.6572 ev

!    total energy              =  -27820.66417328 Ry

     total all-electron energy =  -1326874.040569 Ry
     estimated scf accuracy    <       0.00000064 Ry
     smearing contrib. (-TS)   =       0.00154640 Ry
     internal energy E=F+TS    =  -27820.66571968 Ry

     The total energy is F=E-TS. E is the sum of the following terms:
     one-electron contribution =  -29842.84736908 Ry
     hartree contribution      =   15222.55006804 Ry
     xc contribution           =    -905.58550017 Ry
     ewald contribution        =   13195.85212444 Ry
     one-center paw contrib.   =  -25490.63504290 Ry

     convergence has been achieved in  21 iterations

     negative rho (up, down):  1.390E-02 0.000E+00

     Forces acting on atoms (cartesian axes, Ry/au):

     atom    1 type  1   force =     0.00010418    0.00004792   -0.00592845
     atom    2 type  1   force =    -0.00043386    0.00005295   -0.00311676
     atom    3 type  1   force =     0.00040942    0.00005584   -0.00304142
     atom    4 type  1   force =    -0.00009395   -0.00035870   -0.00313863
     atom    5 type  1   force =    -0.00003629    0.00003626   -0.00368749
     atom    6 type  1   force =     0.00016736   -0.00031980   -0.00312386
     atom    7 type  1   force =     0.00024027    0.00029178   -0.00295140
     atom    8 type  1   force =    -0.00021000    0.00034293   -0.00300884
     atom    9 type  1   force =     0.00002327    0.00003931   -0.00310469
     atom   10 type  1   force =     0.00064403    0.00019239    0.00405079
     atom   11 type  1   force =    -0.00001999    0.00085214    0.00503342
     atom   12 type  1   force =    -0.00079966    0.00028539    0.00353113
     atom   13 type  1   force =     0.00083650   -0.00045036    0.00472186
     atom   14 type  1   force =    -0.00083559   -0.00045768    0.00490090
     atom   15 type  1   force =    -0.00003717    0.00066332    0.00284947
     atom   16 type  1   force =    -0.00011563   -0.00125934    0.00368849
     atom   17 type  1   force =     0.00051911   -0.00030475    0.00339778
     atom   18 type  1   force =    -0.00050341   -0.00029203    0.00255331
     atom   19 type  1   force =     0.00004981   -0.00016404   -0.00001418
     atom   20 type  1   force =     0.00034683    0.00006807   -0.00027000
     atom   21 type  1   force =    -0.00030741    0.00018826   -0.00031262
     atom   22 type  1   force =     0.00026669    0.00001468   -0.00023646
     atom   23 type  1   force =     0.00011798   -0.00021147   -0.00021020
     atom   24 type  1   force =    -0.00030320    0.00007292   -0.00015587
     atom   25 type  1   force =     0.00012102    0.00015885   -0.00005451
     atom   26 type  1   force =     0.00003370    0.00014253    0.00003170
     atom   27 type  1   force =    -0.00007830    0.00038689   -0.00011112
     atom   28 type  1   force =     0.00000894    0.00011071   -0.00017042
     atom   29 type  1   force =     0.00016336    0.00009194   -0.00023419
     atom   30 type  1   force =    -0.00017176    0.00020505   -0.00022249
     atom   31 type  1   force =     0.00008671    0.00009453   -0.00017983
     atom   32 type  1   force =    -0.00002653   -0.00006987   -0.00024836
     atom   33 type  1   force =    -0.00017271    0.00013224   -0.00017344
     atom   34 type  1   force =     0.00007828   -0.00005975   -0.00024519
     atom   35 type  1   force =     0.00001093   -0.00005602   -0.00030234
     atom   36 type  1   force =    -0.00003511    0.00017189    0.00012308
     atom   37 type  2   force =    -0.00207942   -0.00201216    0.00183439
     atom   38 type  3   force =    -0.00022300    0.00079485    0.00047652
     atom   39 type  4   force =     0.00015176    0.00001854   -0.00069233
     atom   40 type  4   force =    -0.00017725    0.00000375   -0.00020605
     atom   41 type  4   force =     0.00077996   -0.00056699   -0.00022562
     atom   42 type  4   force =     0.00150015    0.00106705   -0.00182607

     Total force =     0.004756     Total SCF correction =     0.001488
     SCF correction compared to forces is large: reduce conv_thr to get better values

     negative rho (up, down):  1.390E-02 0.000E+00

     negative rho (up, down):  1.390E-02 0.000E+00

     negative rho (up, down):  1.390E-02 0.000E+00

     negative rho (up, down):  1.390E-02 0.000E+00

     negative rho (up, down):  1.390E-02 0.000E+00

     negative rho (up, down):  1.390E-02 0.000E+00

     negative rho (up, down):  1.390E-02 0.000E+00

     negative rho (up, down):  1.390E-02 0.000E+00

     negative rho (up, down):  1.390E-02 0.000E+00

     negative rho (up, down):  1.390E-02 0.000E+00

     negative rho (up, down):  1.390E-02 0.000E+00

     negative rho (up, down):  1.390E-02 0.000E+00

     negative rho (up, down):  1.390E-02 0.000E+00

     negative rho (up, down):  1.390E-02 0.000E+00

     negative rho (up, down):  1.390E-02 0.000E+00

     negative rho (up, down):  1.390E-02 0.000E+00

     negative rho (up, down):  1.390E-02 0.000E+00

     negative rho (up, down):  1.390E-02 0.000E+00

     negative rho (up, down):  1.390E-02 0.000E+00

     negative rho (up, down):  1.390E-02 0.000E+00

     negative rho (up, down):  1.390E-02 0.000E+00

     negative rho (up, down):  1.390E-02 0.000E+00

     negative rho (up, down):  1.390E-02 0.000E+00

     negative rho (up, down):  1.390E-02 0.000E+00

     negative rho (up, down):  1.390E-02 0.000E+00

     negative rho (up, down):  1.390E-02 0.000E+00

     negative rho (up, down):  1.390E-02 0.000E+00

     negative rho (up, down):  1.390E-02 0.000E+00

     negative rho (up, down):  1.390E-02 0.000E+00

     negative rho (up, down):  1.390E-02 0.000E+00

     negative rho (up, down):  1.390E-02 0.000E+00

     negative rho (up, down):  1.390E-02 0.000E+00

     negative rho (up, down):  1.390E-02 0.000E+00

     negative rho (up, down):  1.390E-02 0.000E+00
 BEEFens 2000 ensemble energies
             -0.605992685085097E+02
             -0.360235379435736E+01
             -0.158132718438690E+02
              0.429024327265863E+02
             -0.221096550749314E+02
             -0.205196880767278E+02
             -0.351862115193446E+02
             -0.863859689805084E+02
             -0.464888800875981E+02
             -0.472579531967025E+02
             -0.368839860758537E+02
              0.227634779613012E+01
              0.404623037966385E+01
              0.764479667986998E+01
              0.264840563070715E+01
              0.474455914103944E+02
             -0.208702627122212E+02
             -0.230146721324709E+02
              0.192456321162795E+02
             -0.112288419657044E+03
              0.535764291125829E+02
             -0.289710495994154E+02
             -0.333642768510542E+01
             -0.114196370761187E+02
             -0.883660595676633E+01
             -0.462272368658043E+01
              0.881978535073486E+02
             -0.186880726923153E+02
             -0.899133616792744E+01
             -0.517649146897610E+02
              0.814908367520409E+02
             -0.187299708293732E+02
             -0.374429939483817E+02
              0.249086249683328E+02
             -0.284797122140714E+01
              0.163544003389353E+02
             -0.487312749734474E+01
              0.108285859684611E+02
              0.287773834933184E+02
             -0.103175718410535E+03
              0.558026357533046E+02
              0.142268002825899E+02
             -0.170562712190758E+01
             -0.361153368862589E+02
              0.123073873678242E+02
             -0.146774989203267E+02
              0.397731558277308E+02
              0.364532637724678E+02
             -0.308079306002637E+02
             -0.274527105615707E+02
             -0.327958052555588E+02
             -0.351796915182992E+02
              0.136074660913781E+02
             -0.490248346584077E+02
              0.115446326371683E+02
              0.622502096790392E+02
              0.634477695423174E+02
              0.355767741959107E+02
              0.153959480988666E+02
              0.270213546922901E+02
              0.890754318383304E+02
              0.212445468736537E+02
             -0.548088565703070E+02
             -0.157115736049119E+02
             -0.235607279442519E+02
              0.629041996741478E+02
             -0.772864840916405E+02
             -0.671311880036915E+02
             -0.259194742216378E+02
             -0.646242698383890E+01
             -0.470305325469947E+02
              0.270473577148215E+02
              0.799573885576058E+01
              0.864838340584720E+01
             -0.397048486375569E+02
             -0.346437191730354E+02
             -0.541250135721435E+02
              0.390077003961360E+02
             -0.295672197020572E+02
              0.265051857529212E+02
             -0.715691281120621E+01
             -0.317749959440823E+02
             -0.575759854947755E+02
             -0.176354467027789E+02
             -0.901024629516144E+01
             -0.124500644712536E+02
              0.412061120003512E+02
              0.682026328352588E+02
             -0.385041252766524E+02
             -0.793806591134151E+02
             -0.219474589035533E+02
              0.111405332609179E+03
             -0.592139472015905E+02
              0.355819981314053E+02
             -0.954643796283005E+01
             -0.662640370779491E+02
              0.254084947757582E+02
              0.397866072855560E+02
             -0.198660384232265E+02
              0.400073864756068E+02
             -0.295710094108576E+02
             -0.477392792782382E+02
              0.864622893274534E+02
              0.453323948007845E+02
              0.336551035829193E+02
              0.146145763585117E+02
              0.205358669647322E+02
              0.855643936991193E+02
             -0.256590394562058E+02
              0.788844965736240E+01
             -0.142257097013415E+03
              0.181030318742754E+02
             -0.715536730492245E+02
              0.150972773013658E+02
              0.204421262627362E+02
             -0.332436186543981E+02
             -0.556793058957949E+02
              0.652532734386546E+01
             -0.303862241005137E+02
              0.307237679901274E+02
             -0.529513217879627E+02
              0.173436777280904E+01
             -0.356459183265140E+02
             -0.422074720501763E+01
             -0.106543519249118E+01
              0.180880687134820E+02
              0.142607689390354E+01
             -0.651130436653455E+01
              0.589720608633945E+02
              0.907381960033957E+02
              0.483609459766068E+02
              0.829926935906457E+02
             -0.115065733933809E+02
              0.142830108322251E+02
              0.540748513768201E+02
             -0.111162949135438E+02
             -0.735274756468497E+02
             -0.383729203786704E+02
             -0.521400695324916E+02
             -0.276483980223712E+02
              0.327043746536721E+02
             -0.116639337699017E+03
             -0.187258186390891E+02
              0.413365238251107E+02
             -0.385741789234764E+02
             -0.365249664537471E+02
              0.543485353069999E+02
              0.400115474781616E+02
             -0.353987663164313E+02
              0.137199512122546E+02
             -0.273156959848697E+02
              0.342763873720291E+02
              0.443095437481645E+01
              0.211024358972982E+02
             -0.884168892092562E+02
             -0.479715754332735E+02
             -0.996914179653754E+01
              0.319789918388359E+01
             -0.366296439071602E+02
              0.105899734041766E+03
             -0.231063588402612E+02
             -0.398691651566682E+02
              0.388346613824463E+02
             -0.493743167721064E+02
             -0.362787247332798E+02
              0.324343147658673E+02
              0.124291377597660E+02
              0.164609953294703E+02
              0.116282661928326E+02
             -0.132722870718771E+02
              0.225291661946449E+02
              0.589524944200043E+02
             -0.311429503585655E+02
              0.161996508834563E+02
              0.933758059329764E+02
              0.340492836233481E+02
             -0.729538695467170E+01
             -0.188290775182246E+02
              0.153183477600831E+03
             -0.163688909642546E+02
              0.362846819262614E+02
              0.194001192241218E+02
              0.361376964390132E+02
              0.890928302490883E+02
              0.542393092698452E+02
             -0.237418132083587E+01
              0.227393153962284E+02
              0.484192650856439E+02
              0.363052399353554E+02
             -0.524973379643243E+02
              0.935052740671168E+02
             -0.825054054416553E+02
             -0.198056700234527E+02
              0.582189721856277E+02
              0.672724427092864E+01
              0.786335566492517E+01
              0.340649528575761E+02
              0.299180343273819E+02
              0.353410863796768E+02
             -0.636849354539092E+02
              0.286219531815652E+01
             -0.297439525050563E+02
             -0.868679190924919E+01
             -0.144293732977451E+01
             -0.721332971017652E+01
             -0.414481985770954E+01
              0.858652473233062E+02
             -0.101038010507815E+02
             -0.276068210108221E+02
             -0.496719371802899E+01
              0.139663123424463E+02
             -0.563102599800851E+02
             -0.406569300841798E+02
             -0.381645407553249E+02
             -0.629563571589593E+02
             -0.169271985425277E+02
             -0.447048031579418E+02
              0.163190140992663E+02
             -0.240376945263125E+01
             -0.104329037826011E+02
             -0.933495887655363E+01
              0.807824708698200E+01
             -0.242734013032583E+02
              0.688783538527906E+02
             -0.806340665799619E+02
             -0.140972554965182E+02
             -0.173912958397658E+02
              0.181888190684926E+02
              0.214141705946220E+02
             -0.462969742372043E+02
             -0.201725475172237E+02
              0.440490412664720E+02
             -0.276108561078734E+02
              0.186931077751137E+02
              0.382638518388552E+02
             -0.322213101021384E+01
              0.113999039296025E+03
             -0.229902681714991E+02
             -0.340584692934107E+02
              0.579169624851443E+01
             -0.227933046740237E+02
              0.526779426668023E+02
             -0.336628566817186E+02
              0.106235893532244E+02
              0.640125457972415E+02
             -0.126313650288864E+02
              0.120124212549124E+03
              0.125748332107230E+03
             -0.649144096846030E+02
              0.590025047935125E+02
              0.166097055640435E+02
             -0.517180724648127E+02
              0.215912875908161E+02
              0.353509415876993E+02
              0.362104772552615E+02
              0.133009936558435E+01
              0.159501067851947E+02
              0.695176992357796E+02
             -0.246687606188714E+02
              0.181453745450761E+02
              0.738444899468161E+02
             -0.372140755435678E+02
             -0.129375516113835E+02
              0.507949982980280E+02
              0.297008143664802E+02
              0.779220611272223E+02
              0.222340965553045E+02
              0.623817597974482E+01
              0.280082793011863E+02
              0.382879971695087E+02
             -0.471382998254252E+02
              0.330543648417046E+01
              0.129521717414307E+02
              0.113545059117500E+02
              0.220310855992399E+02
             -0.574363092768350E+02
              0.365632877235688E+02
             -0.443362592883011E+02
             -0.347215548057513E+02
              0.177933416614679E+02
             -0.181452562197531E+02
              0.554284571160637E+02
             -0.256043624262419E+02
              0.266478473889915E+02
              0.367732937420815E+02
              0.828422104355795E+02
              0.574285026537538E+02
              0.461386376606394E+02
             -0.105591388316831E+02
             -0.388551380751846E+01
             -0.332056342988944E+02
              0.749765012465463E+02
              0.796139937655229E+02
              0.361437894288507E+02
             -0.191644241584968E+02
              0.511238202034348E+02
             -0.162951938435675E+02
              0.214749369956682E+02
              0.613667335508951E+02
              0.213278596824304E+01
             -0.104304588222624E+02
             -0.282757398862115E+02
             -0.511098286205238E+02
              0.944475656638509E+02
              0.439307069502980E+02
             -0.558295238277742E+02
             -0.959663917656582E+01
              0.249615958741673E+02
             -0.996748964236431E+01
              0.591310984959619E+02
              0.151828645094512E+02
              0.798110419082790E+02
              0.279333563090335E+02
             -0.263562751953517E+02
              0.248667636988187E+02
             -0.499999889703662E+01
             -0.323280307153751E+02
              0.132963752527963E+02
              0.205445560327649E+02
              0.932084450707594E+02
              0.796636375721090E+02
              0.550436896688890E+02
              0.729955977386073E+02
              0.802132388853553E+01
             -0.273582078891618E+02
              0.162966286152173E+02
             -0.367592107817969E+02
             -0.475751475355717E+02
             -0.563027991009300E+02
             -0.266161241318684E+02
             -0.109595080589299E+03
             -0.290987313737135E+02
             -0.836503086094828E+02
              0.209912779734685E+02
             -0.476682665921085E+02
              0.396151745456669E+02
             -0.940428849625093E+02
             -0.329838350049937E+02
              0.548167483131303E+02
              0.207338663054011E+02
             -0.829659093431512E+02
              0.630408695733953E+02
             -0.256533710850595E+02
              0.511814588641209E+02
             -0.242141849890068E+02
             -0.750578302945631E+02
              0.111564736507767E+02
             -0.610547744195692E+02
             -0.168291691750348E+02
             -0.149026913411614E+01
              0.417780649974370E+02
              0.126878975965276E+03
             -0.461300316360167E+02
             -0.361993550536668E+02
             -0.967675277450326E+00
             -0.130484427315986E+02
             -0.821679688000824E+02
             -0.596259098405840E+02
              0.516677514354714E+02
             -0.288918638490447E+02
              0.168857079978279E+02
             -0.488772067646607E+02
             -0.131698630989994E+02
             -0.436718175142573E+02
              0.565084215528962E+02
              0.150730108492836E+02
             -0.231384620314601E+02
             -0.126694899704988E+02
              0.665878730233794E+01
             -0.619061370954398E+01
              0.441108896822077E+02
             -0.251707333435332E+02
              0.277729939789367E+01
              0.339206420568711E+02
              0.171094540498988E+02
             -0.159631409935819E+02
              0.156105919323220E+03
              0.537516322808544E+02
              0.113950757238354E+01
              0.161319483542235E+02
             -0.614428546604194E+02
              0.314556650921648E+02
             -0.720831138487486E+02
             -0.251554444877875E+02
             -0.522077392254711E+02
             -0.219908574330341E+02
              0.568639221004598E+02
             -0.536531941389057E+02
              0.160512856434334E+02
             -0.409218480320078E+01
              0.386460023844410E+01
             -0.433586434114245E+02
             -0.477887669867158E+02
             -0.400532734216983E+01
             -0.424717239880802E+02
             -0.216827156477596E+02
             -0.438034048939626E+02
             -0.119287535413632E+02
             -0.358747361590704E+02
             -0.516103259523909E+02
              0.212672986081160E+02
             -0.209144491520743E+02
              0.187567180857427E+02
              0.975790261577926E+01
             -0.737302797096615E+02
             -0.547667539254658E+02
             -0.397668474176334E+02
              0.354010646129602E+02
              0.272449173643520E+01
             -0.626065277212737E+02
              0.585336064963895E+02
             -0.400760744644327E+02
              0.544162300159464E+02
             -0.289435941855482E+02
             -0.445497649408791E+02
              0.297996752430461E+02
             -0.656782348923818E+02
             -0.379915076110182E+02
              0.672384554191703E+02
              0.203912134921037E+02
             -0.359882308742540E+02
              0.489153429570951E+02
             -0.174007555444987E+02
             -0.322706938261058E+02
             -0.301566794812029E+02
             -0.500109533766421E+02
              0.249253655423395E+02
             -0.932429137024869E+02
             -0.839686047930839E+02
             -0.734650459603199E+01
             -0.306505215967882E+02
             -0.575072290692719E+02
              0.720882213448551E+02
              0.131386310387846E+03
             -0.361006470356206E+02
             -0.254307224810623E+01
             -0.636741891941125E+02
              0.649800770546121E+02
              0.170557548271374E+02
             -0.181671717310564E+02
             -0.409744136076264E+02
              0.148489018992005E+02
             -0.585540404440102E+02
             -0.198000499510992E+02
             -0.903864208034685E+02
              0.336724348440073E+02
              0.168929106319205E+02
              0.186687587342976E+01
             -0.704661545484373E+01
             -0.329311002035070E+02
             -0.757750387511692E+01
              0.125404378433609E+03
             -0.198771733170789E+02
             -0.437228532691600E+02
             -0.683211716935389E+02
              0.109234175793620E+02
             -0.341823881371277E+02
              0.590331808380745E+01
              0.261135080619716E+02
              0.102192727989690E+02
              0.277554629785373E+02
              0.119691734769942E+02
              0.629027467158174E+02
              0.316609555586821E+02
             -0.326246611445566E+02
              0.354984289019096E+02
              0.379182356841248E+02
              0.120679294725783E+02
              0.487056726685831E+02
             -0.224370565851827E+02
              0.764981867978960E+02
              0.171905778372590E+02
             -0.271729105879659E+02
             -0.724983355384996E+01
             -0.186406408875005E+02
              0.261832928749643E+02
             -0.234080322949700E+02
             -0.103857195645560E+00
             -0.848932233801736E+01
              0.808813186192916E+02
              0.499517391244453E+02
             -0.686437176731097E+02
             -0.475597805697322E+01
             -0.554996189567206E+02
             -0.159266690572728E+02
             -0.268280006418375E+02
              0.374598378012570E+01
              0.607611117427114E+00
             -0.257415163479875E+02
              0.811568006948963E+01
             -0.600949026346505E+01
             -0.128583308052774E+02
              0.857997026891401E+02
              0.181715675785491E+02
             -0.806310987461104E+02
             -0.458285180830070E+02
              0.944057972255623E+02
              0.277718928076035E+02
             -0.106694540050204E+02
              0.104469722694098E+03
             -0.194488318260720E+02
             -0.123024807239146E+02
             -0.538073187558632E+01
              0.107369219316020E+02
              0.272111472541569E+02
              0.780336212535934E+01
              0.305026732403553E+02
             -0.187811792376322E+02
             -0.303368924567806E+02
             -0.417699083194349E+02
             -0.476515836827930E+02
              0.463798116566994E+02
              0.126618436123089E+02
              0.387363976636256E+02
              0.133418307492450E+02
              0.854816841655339E+02
              0.156078274614593E+02
             -0.845383099748597E+02
             -0.334254203213562E+02
              0.133783755855789E+02
             -0.302494082741996E+02
              0.625937942102530E+02
             -0.884773113831102E+01
              0.148468246824899E+02
              0.496590761737380E+02
             -0.706418118802505E+02
              0.149600240814329E+03
              0.208619351717970E+02
              0.271003758183329E+02
              0.347312843233544E+02
              0.103933217448778E+02
             -0.154853816445853E+01
              0.358094311180255E+02
             -0.357062638778025E+02
              0.772478275714942E+02
              0.684238806274926E+02
             -0.405846043457141E+02
              0.149563810331808E+02
              0.669449459905901E+02
             -0.223640909981173E+02
              0.154059464108114E+02
              0.434966862436952E+02
              0.421838739271017E+02
             -0.784353591685002E+02
             -0.152867178428321E+02
             -0.356011008512860E+02
             -0.148848677214897E+01
             -0.766565357495123E+01
             -0.544244553775991E+01
             -0.180615770691304E+02
             -0.293763127136681E+02
              0.632665021012512E+01
              0.111771772442928E+02
              0.535285275938532E+02
             -0.389869695951748E+02
              0.374043287386513E+02
              0.438083082908825E+02
             -0.186480274770929E+02
              0.871787144275353E+02
             -0.697232654027482E+02
             -0.103096727674790E+03
             -0.657697841313783E+01
             -0.270004296750813E+01
              0.386125433962468E+01
              0.788928483659891E+02
             -0.107124097569040E+02
              0.416330632315966E+02
              0.443008718314016E+02
              0.384866497510070E+02
             -0.994829849071914E+01
              0.626958177382880E+02
             -0.133526506651176E+02
             -0.307000399344183E+02
             -0.479465374750863E+02
              0.585493026048232E+01
              0.369298757175247E+02
             -0.602435187545515E+01
              0.392647815755423E+02
             -0.174711156173930E+01
              0.654789733321609E+02
              0.187152581172403E+02
              0.997657043416672E+01
             -0.121955433602149E+02
              0.331995755871695E+02
              0.362074381664449E+02
              0.232553814438231E+02
             -0.496876843972785E+00
             -0.550042699813827E+02
              0.260465488568524E+02
              0.174962283135474E+02
              0.402339318827588E+02
              0.272001169895977E+02
              0.372004828510944E+02
             -0.600487761512198E+01
              0.250827857723148E+02
             -0.298262606138048E+02
             -0.198298084583587E+01
             -0.568801839582508E+02
             -0.307351335541672E+02
              0.378280077535136E+02
             -0.934971560162488E+02
              0.294309779958375E+02
              0.184020696408757E+02
              0.839533418478725E+02
             -0.300510199091098E+02
              0.329240763833343E+02
             -0.137615490238547E+02
             -0.463530634409507E+02
             -0.760924326355398E+02
             -0.524782632340919E+01
             -0.859339256119516E+02
              0.199733628758094E+02
             -0.247356500106144E+02
              0.305476363417511E+02
              0.236749588001318E+02
             -0.240996290417332E+02
             -0.265319152064421E+02
              0.390453456913487E+02
             -0.587954126156541E+02
             -0.116717023266914E+02
             -0.196062498568151E+02
              0.212469052736566E+02
             -0.892134868623396E+01
              0.361960877845911E+01
             -0.200651786056175E+02
              0.558338487482833E+02
             -0.439085302636319E+02
              0.789972584425902E+01
              0.585062371064842E+02
             -0.323032232060930E+02
              0.360122365430576E+01
             -0.882413018980458E+01
             -0.669001000357273E+02
             -0.482283099685673E+02
             -0.861554332573390E+01
              0.240453016603501E+02
              0.301976535907328E+02
              0.860958172668614E+01
             -0.411510760183580E+01
              0.151859973629229E+02
             -0.439563807917239E+02
              0.333100785145507E+01
             -0.530677595881110E+02
             -0.324544156851959E+02
              0.474280380409759E+02
             -0.294823121718663E+02
              0.621893558632767E+02
             -0.214672679100849E+02
              0.353373794705062E+02
              0.241632115485249E+02
             -0.643645037490707E+02
             -0.280224389499068E+02
              0.930375612159665E+01
             -0.371445791035832E+02
             -0.339164534484212E+02
             -0.829104282396852E+02
             -0.538924801734245E+02
             -0.510166176180605E+02
             -0.415040968279168E+02
             -0.979735082222419E+00
              0.991677299345190E+01
              0.103179043593843E+01
              0.152920516358849E+02
             -0.548855287801067E+02
              0.141931224670437E+02
              0.256633711686084E+02
             -0.666130196850172E+02
             -0.701602031982646E+02
             -0.431065164995830E+02
             -0.171679273326597E+02
              0.178532132397219E+02
              0.456419915115976E+01
             -0.425359465289203E+02
              0.366071744392034E+02
             -0.215839653246982E+02
              0.516971740935444E+02
             -0.886412685568675E+02
              0.597188455792073E+02
             -0.210997175332317E+01
             -0.368197733161146E+02
             -0.215901337100332E+02
              0.471249734369296E+01
              0.373979540083190E+02
[...]
              0.283273870333339E+02
              0.141659561558648E+03
              0.242129533322227E+02
              0.122398388830360E+02
             -0.463785623038131E+02
             -0.637216083286245E+02
             -0.189064596199877E+02
              0.329615350452505E+02
             -0.427606566372401E+01
              0.189965684211361E+02
              0.335862203438170E+02
             -0.585559896550645E+02
              0.222254914774004E+02
              0.581703861974549E+02
              0.552167814217372E+02
             -0.416752223374874E+01
             -0.138132049387207E+01
             -0.993368518499923E+01
             -0.482022999920067E+02
             -0.674023222045454E+02
              0.784779441703313E+02
             -0.520816032571946E+01
             -0.587437593168764E+02
              0.168787748540086E+01
             -0.204871174185820E+02
              0.937712143230523E+02
             -0.216303807473206E+02
             -0.353090104080941E+02
              0.334899403341540E+02
             -0.145649472330688E+02
              0.389066106425948E+02
             -0.236319286284061E+01
              0.100984972273591E+03
              0.488970806029420E+02
             -0.514173518215867E+01
             -0.321479083566462E+02
              0.231988610049970E+02
             -0.527999857868758E+02
             -0.127914074624193E+02
              0.584996462433144E+02
             -0.287537630372234E+02
             -0.437839830765207E+02
             -0.222888343464110E+02
              0.517994202574268E+02
              0.124549335000651E+02
             -0.847932556885310E+02
              0.303614731053984E+02
              0.152290054271801E+02
              0.576638562172482E+01
             -0.512986493981551E+02
             -0.379462994192482E+01
              0.322680693232552E+02
              0.512363498610091E+02
              0.631986044466645E+02
              0.228572274399185E+02
              0.727994885398687E+00
             -0.497392880432100E+02
             -0.509683840362484E+02
             -0.747209640776077E+02
             -0.614802751246373E+01
              0.308711601048216E+02
             -0.380830805419600E+01
              0.546274756294640E+02
             -0.317695481801994E+02
              0.166097780212756E+02
             -0.102399498720531E+02
             -0.289435141767770E+02
              0.585064142873400E+02
              0.791595011760035E+01
              0.603675029574889E+02
              0.508730125076181E+01
              0.264896711443213E+02
             -0.192448394661957E+02
              0.585434129284201E+02
             -0.111420228268825E+02
             -0.110454284626345E+00
             -0.789265421051919E+02
             -0.128313976941524E+02
              0.718305926765196E+02
              0.672436532613837E+02
              0.251588144713754E+02
             -0.130002318942812E+02
              0.343884681810056E+01
             -0.173154808210779E+02
             -0.201390838413036E+01
              0.906781111303063E+02
              0.122481463856843E+01
             -0.190044317509872E+02
             -0.110631077779605E+03
             -0.552219265239576E+02
             -0.374630858658736E+02
             -0.657885852727955E+02
             -0.554990909327536E+02
             -0.681819182285419E+02
             -0.446769199341981E+02
             -0.410677253594574E+02
             -0.451243357403953E+02
              0.483130686729871E+02
             -0.293989985709944E+02
             -0.994416192908947E+02
              0.418564819588337E+02
             -0.259711879914790E+02
             -0.789862821882415E+02
              0.942637302192244E+02
             -0.219483707793305E+02
              0.227862477925712E+02
              0.454723579481392E+02
             -0.136012027956207E+01
              0.254091394642561E+02
              0.469123490289454E+01
              0.402128826091563E+00
             -0.150691753122886E+02
             -0.715118793243248E+02
              0.133139768486993E+02
             -0.129265927824356E+03
              0.623368824224955E+02
             -0.440311555281478E+02
             -0.162486431622240E+02
             -0.157642514433406E+02
              0.711690158298985E+01
             -0.227570471878857E+02
              0.296663455779434E+02
             -0.519709066376668E+02
              0.366894380994203E+02
              0.370603220241019E+02
              0.168297748937067E+02
              0.100671708179518E+02
              0.197544503145743E+02
              0.620681821263452E+01
              0.309933812897127E+02
             -0.800824954529628E+01
             -0.591398913961060E+02
              0.757040656888370E+01
             -0.152150157560505E+02
             -0.194150489823244E+01
              0.505675691637839E+02
             -0.826031110354349E+02
             -0.146939200456103E+01
              0.562264367576688E+00
              0.994335017477948E+01
              0.318100876506065E+02
             -0.123540200931372E+02
              0.834574836409037E+02
              0.487290653257857E+02
             -0.182992337709710E+02
             -0.953775782655777E+01
              0.104979576204323E+01
              0.768515666327564E+02
             -0.585556219854799E+02
             -0.105649661156034E+03
              0.308982341190112E+02
             -0.163214671203096E+02
             -0.139503012216240E+02
              0.130215943022675E+02
              0.767645641914685E+02
              0.463830568774831E+02
             -0.153246552020221E+02
             -0.502349372123707E+02
             -0.546843494880854E+01
              0.306132843266003E+02
             -0.111337287339165E+02
             -0.754772619747387E+02
             -0.270338681936644E+01
             -0.888722769256460E+02
             -0.474791456617478E+02
              0.767508545267735E+02
             -0.482999258108353E+02
             -0.635711843343611E+02
             -0.513855991914984E+02
             -0.349234414623736E+02
              0.340753560728766E+02
              0.820544662358678E+02
             -0.357021244227963E+01
              0.276248709437431E+02
             -0.183502737267339E+02
             -0.693128484507579E+02
              0.464569592951609E+02
             -0.444509965613198E+02
              0.321471402120126E+02
              0.375912613969568E+02
             -0.652720668002814E+01
              0.390016249978761E+02
              0.437925131712616E+02
              0.100515239230261E+03
             -0.155915686050637E+02
             -0.455321263890125E+02
             -0.611880762878642E+02
             -0.123501451050664E+02
             -0.232349883100409E+02
              0.102930220513701E+03
             -0.448746347898947E+02
              0.104888587401115E+02
              0.970949481463549E+01
             -0.264502862207950E+02
             -0.797923334860081E+02
             -0.699326207104667E+01
              0.978659086960587E+02
              0.933661285861660E+01
              0.807319494550831E+01
             -0.526219368419438E+02
             -0.604667278175416E+02
             -0.559297274095491E+01
              0.499860819662830E+02
             -0.221599985857945E+02
              0.107856020134804E+03
             -0.435247190643156E+02
              0.145976718580035E+02
             -0.223959101628394E+02
             -0.717856724366162E+02
              0.166567424256948E+01
             -0.500910750139001E+02
             -0.759629823068833E+02
              0.614660122110769E+01
              0.235067074843647E+01
              0.513573197315126E+02
              0.186811496187606E+02
             -0.323318537510556E+02
              0.229796969754367E+02
             -0.809952253125384E+02
             -0.521134685665077E+02
              0.900636640456865E+02
              0.142221368425017E+02
             -0.188023755889632E+02
             -0.352126499099279E+02
             -0.271150413410101E+01
             -0.584050643149817E+01
              0.829377877611133E+02
              0.417437573877046E+02
             -0.165881246865466E+02
             -0.121892915911864E+02
             -0.427123949458747E+02
             -0.200524665002580E+02
             -0.669182667560151E+02
              0.459236845118876E+02
              0.546803519919735E+01
              0.144864816222005E+02
              0.155814218124147E+02
             -0.538733851666844E+00
             -0.168109093702759E+02
             -0.310034693604008E+01
             -0.100286061518487E+03
             -0.230065664672367E+02
             -0.765039657152704E+01
             -0.947945505737613E+01
              0.545699851325155E+02
              0.623177739774275E+02
              0.164479389966414E+02
             -0.969472473938905E+02
              0.646625481176491E+02
             -0.214580396061992E+02
             -0.376552940787059E+02
             -0.863125003747630E+02
             -0.386679318279074E+02
              0.563800610653579E+02
              0.244079362587836E+02
              0.512484387448029E+01
              0.291786482887161E+02
             -0.564227489474933E+02
             -0.421609184123856E+02
              0.514567570199230E+02
              0.386540457731946E+02
              0.518322285952138E+02
             -0.122161731294554E+01
              0.685333502055619E+01
              0.568785650950445E+02
              0.961558237466718E+02
             -0.300021132211586E+02
              0.322529294066665E+02
             -0.118212739139543E+02
             -0.411630283047379E+02
             -0.314090278715589E+02
             -0.299844055961497E+02
             -0.131150241421874E+02
             -0.522701865924648E+02
             -0.216992178900816E+02
             -0.141030845891573E+03
              0.368764709921045E+02
              0.206169524457921E+02
             -0.393545883787385E+01
             -0.379652425520920E+02
             -0.203962899259998E+02
             -0.526113674345381E+02
              0.151407643113377E+02
              0.819122448447594E+02
             -0.251834531801678E+02
             -0.162806022710334E+02
              0.237876196265501E+02
             -0.488926730196474E+02
              0.879474747982793E+02
              0.154243314654164E+02
              0.226263482188226E+02
              0.489463099462126E+02
              0.320158946691362E+01
              0.541201514412892E+02
              0.142719142671119E+02
             -0.106629710903350E+02
              0.727971419882076E+01
              0.775652561702714E+00
              0.726300133934159E+02
              0.101273626542388E+02
              0.120266002177551E+02
             -0.130070563790664E+02
              0.132307071475274E+02
             -0.909939755917912E+02
             -0.325505153898939E+02
             -0.456620011426752E+02
              0.484549294844053E+02
             -0.290556018443856E+02
             -0.657878477641858E+02
              0.537749399400008E+02
             -0.121751499510676E+02
              0.439633533418997E+02
             -0.897610449993291E+02
              0.232040291810396E+02
              0.856017055426850E+01
              0.581767294103213E+01
             -0.829370622836512E+01
             -0.903345802365141E+01
              0.478840642421841E+02
              0.198164436310304E+01
             -0.474332619773022E+02
             -0.175887902581694E+02
              0.276417280320359E+02
             -0.117808153740902E+03
             -0.928798358925198E+02
              0.395820127921655E+01
              0.117354380234046E+02
             -0.412631913120520E+02
             -0.390672204313893E+01
              0.111982109257672E+03
              0.306070213904934E+02
             -0.570956141366614E+02
              0.923731555817739E+01
             -0.961295361358543E+01
              0.105657759560508E+02
             -0.337324801971999E+02
              0.195128341048837E+02
              0.284389548765627E+02
             -0.296082975031294E+01
              0.108030214346117E+03
             -0.140392668484632E+02
             -0.315578346499478E+02
              0.142330163716438E+02
              0.465991941110065E+02
             -0.355596538395287E+02
             -0.317297402829549E+01
              0.963664350306459E+02
             -0.463403212678406E+01
              0.621051361198175E+02
              0.135269678100444E+02
             -0.900243990419041E+01
             -0.305229049419074E+02
              0.566005977868725E+02
             -0.513327960888554E+02
             -0.221001540099979E+01
             -0.169645934000199E+02
             -0.404807239864135E+02
              0.184990031261917E+02
              0.239101889822279E+02
              0.116339821100264E+02
              0.713804801369065E+00
             -0.383865471772607E+02
              0.214999395543897E+02
             -0.674012248514651E+01
             -0.246101032876837E+02
             -0.210344512702298E+02
              0.202978235149137E+02
             -0.600782788521485E+01
             -0.348673725876877E+02
             -0.106510232360493E+03
              0.102872051950528E+02
              0.248799843242828E+02
             -0.386660232942757E+02
             -0.210610394297088E+02
              0.806145190125378E+02
              0.649361572198760E+01
              0.310152149251400E+02
              0.388520347304851E+01
              0.321233654665201E+02
              0.647785480944469E+01
             -0.372454655319404E+02
             -0.231145438865548E+01
              0.876300706861764E+01
              0.273382795093297E+02
              0.780943525038808E+02
              0.506689124883574E+02
              0.179400458997350E+00
              0.169393014192991E+02
              0.612507870898773E+02
              0.235477208552725E+02
             -0.751984101224273E+02
             -0.273347998004255E+02
              0.151084957727298E+02
              0.559890228677688E+01
              0.254674701722631E+02
             -0.547116115946840E+02
              0.898404203295721E+01
              0.385571958760136E+02
              0.497328185679009E+02
             -0.434338837094377E+02
             -0.692007225608171E+01
             -0.208044887823638E+01
             -0.133298181564657E+02
             -0.365159697767862E+02
             -0.215271911659173E+02
             -0.200256023853035E+01
              0.791232095346976E+01
              0.420851929324094E+02
             -0.307637192055827E+02
              0.825166014255709E+02
              0.327058558082727E+02
              0.219601411146714E+02
              0.332731892004016E+02
              0.322920689377717E+02
              0.345865307308063E+02
              0.536399363551228E+02
             -0.433263366104804E+02
              0.618877509270535E+02
             -0.112136779120051E+03
              0.306916461119827E+02
             -0.106398887556257E+03
              0.853569589548009E+02
              0.689651870523702E+02
             -0.109796729438183E+02
             -0.492641605735737E+02
             -0.429072735506639E+02
             -0.622902435149991E+02
             -0.627892302912330E+02
              0.551290148357835E+02
              0.404938987475493E+02
              0.236397911739345E+02
              0.373523174918547E+02
              0.402477147027715E+02
             -0.381524214458099E+02
             -0.197715668548013E+02
              0.586145619119088E+02
             -0.116095128993576E+02
              0.551356383196364E+02
              0.698392546365853E+02
             -0.555189264242681E+01
             -0.705322307596929E+02
             -0.880230285688299E+00
             -0.247495490407564E+01
             -0.880781724483882E+01
             -0.182832809133822E+01
             -0.652201714633003E+02
             -0.210623756192203E+02
              0.537464269569245E+01
              0.898088921489219E+01
              0.468295156181277E+02
             -0.397131687722080E+02
              0.656896731990981E+02
             -0.424890226013511E+02
              0.210104654592094E+02
              0.349683492230876E+02
 
 BEEF-vdW xc energy contributions
           1 :   -781.994423067589     
           2 :    718.337683703933     
           3 :   -608.223690721444     
           4 :    478.724275252471     
           5 :   -357.221940126326     
           6 :    263.376479042175     
           7 :   -204.741900530253     
           8 :    176.797482278883     
           9 :   -166.941274444016     
          10 :    160.592532540186     
          11 :   -146.942376089374     
          12 :    122.187090421717     
          13 :   -89.3821155284230     
          14 :    55.5441050813257     
          15 :   -27.6796525628591     
          16 :    9.53554970548180     
          17 :  -0.322951934554226     
          18 :   -4.33537667227006     
          19 :    9.93208672721039     
          20 :   -20.3732918389034     
          21 :    36.2909132226570     
          22 :   -55.0381181071242     
          23 :    72.1971663782379     
          24 :   -83.7813703411963     
          25 :    88.0539061112243     
          26 :   -86.1594194832870     
          27 :    81.3700204680322     
          28 :   -77.4050457192282     
          29 :    76.6692716858691     
          30 :   -79.2396407866479     
          31 :   -85.6923512206851     
          32 :   -65.6488948882260     

     Writing output data file ./pwscf.save/
 
     init_run     :    348.60s CPU    353.30s WALL (       1 calls)
     electrons    :  15383.75s CPU  15529.61s WALL (       1 calls)
     forces       :    103.96s CPU    105.37s WALL (       1 calls)

     Called by init_run:
     wfcinit      :    300.69s CPU    304.27s WALL (       1 calls)
     potinit      :     44.41s CPU     44.78s WALL (       1 calls)
     hinit0       :      1.51s CPU      1.55s WALL (       1 calls)

     Called by electrons:
     c_bands      :  12767.03s CPU  12878.16s WALL (      22 calls)
     sum_band     :   1814.60s CPU   1830.08s WALL (      22 calls)
     v_of_rho     :    118.09s CPU    122.85s WALL (      22 calls)
     newd         :     36.58s CPU     51.15s WALL (      22 calls)
     PAW_pot      :    146.43s CPU    146.44s WALL (      22 calls)
     mix_rho      :    546.12s CPU    547.01s WALL (      22 calls)
     vdW_kernel   :     33.46s CPU     33.47s WALL (       1 calls)

     Called by c_bands:
     init_us_2    :     88.74s CPU     88.97s WALL (     598 calls)
     cegterg      :  11851.88s CPU  11962.74s WALL (     286 calls)

     Called by *egterg:
     cdiaghg      :    111.40s CPU    111.42s WALL (    2031 calls)
     h_psi        :   7634.64s CPU   7672.98s WALL (    2057 calls)
     s_psi        :   1256.52s CPU   1256.54s WALL (    2057 calls)
     g_psi        :     18.54s CPU     18.59s WALL (    1758 calls)

     Called by h_psi:
     h_psi:calbec :   1167.09s CPU   1167.18s WALL (    2057 calls)
     vloc_psi     :   5182.34s CPU   5183.94s WALL (    2057 calls)
     add_vuspsi   :   1256.13s CPU   1256.16s WALL (    2057 calls)

     General routines
     calbec       :   1693.88s CPU   1694.05s WALL (    2395 calls)
     fft          :     53.83s CPU     53.88s WALL (    3342 calls)
     ffts         :    174.58s CPU    174.62s WALL (   11434 calls)
     fftw         :   5277.74s CPU   5278.78s WALL (  363072 calls)
 
     Parallel routines
 
     PWSCF        :      4h25m CPU      4h28m WALL

 
   This run was terminated on:  18:37:36  26Sep2022            

=------------------------------------------------------------------------------=
   JOB DONE.
=------------------------------------------------------------------------------=
