
     Program PWSCF v.6.7MaX starts on 27Sep2022 at 20:42:33 

     This program is part of the open-source Quantum ESPRESSO suite
     for quantum simulation of materials; please cite
         "P. Giannozzi et al., J. Phys.:Condens. Matter 21 395502 (2009);
         "P. Giannozzi et al., J. Phys.:Condens. Matter 29 465901 (2017);
          URL http://www.quantum-espresso.org", 
     in publications or presentations arising from this work. More details at
     http://www.quantum-espresso.org/quote

     Parallel version (MPI), running on     1 processors

     MPI processes distributed on     1 nodes
     Reading input from ch3och2oh-ensemble.in
Warning: card &CELL ignored
Warning: card / ignored

     Current dimensions of program PWSCF are:
     Max number of different atomic species (ntypx) = 10
     Max number of k-points (npk) =  40000
     Max angular momentum in pseudopotentials (lmaxx) =  3
     file Pt.pbe-n-kjpaw_psl.1.0.0.UPF: wavefunction(s)  6S 5D renormalized
     file C.pbe-n-kjpaw_psl.1.0.0.UPF: wavefunction(s)  2S 2P renormalized
     file O.pbe-nl-kjpaw_psl.1.0.0.UPF: wavefunction(s)  2S 2P renormalized
     file H.pbe-kjpaw_psl.1.0.0.UPF: wavefunction(s)  1S renormalized

     **************************************************************************
     Initializing libbeef V0.1.2 with the BEEF-vdW functional.
     Citation: Wellendorff et al., PRB 85, 235149 (2012).
     **************************************************************************


     IMPORTANT: XC functional enforced from input :
     Exchange-correlation= BEEF-VDW
                           (   1   4  43  14   2   0   0)
     Any further DFT definition will be discarded
     Please, verify this is what you really want


     Subspace diagonalization in iterative solution of the eigenvalue problem:
     a serial algorithm will be used

 
     G-vector sticks info
     --------------------
     sticks:   dense  smooth     PW     G-vecs:    dense   smooth      PW
     Sum        4267    4267   1159               740787   740787  104409
 


     bravais-lattice index     =            0
     lattice parameter (alat)  =      16.0349  a.u.
     unit-cell volume          =   11792.6868 (a.u.)^3
     number of atoms/cell      =           46
     number of atomic types    =            4
     number of electrons       =       386.00
     number of Kohn-Sham states=          232
     kinetic-energy cutoff     =      60.0000  Ry
     charge density cutoff     =     240.0000  Ry
     scf convergence threshold =      1.0E-06
     mixing beta               =       0.7000
     number of iterations used =            8  local-TF  mixing
     Exchange-correlation= BEEF-VDW
                           (   1   4  43  14   2   0   0)

     celldm(1)=  16.034858  celldm(2)=   0.000000  celldm(3)=   0.000000
     celldm(4)=   0.000000  celldm(5)=   0.000000  celldm(6)=   0.000000

     crystal axes: (cart. coord. in units of alat)
               a(1) = (   1.000000   0.000000   0.000000 )  
               a(2) = (   0.500000   0.866025   0.000000 )  
               a(3) = (   0.000000   0.000000   3.302834 )  

     reciprocal axes: (cart. coord. in units 2 pi/alat)
               b(1) = (  1.000000 -0.577350  0.000000 )  
               b(2) = (  0.000000  1.154701  0.000000 )  
               b(3) = (  0.000000  0.000000  0.302770 )  


     PseudoPot. # 1 for Pt read from file:
     /users/bkreitz1/quantum-espresso/potentials/Pt.pbe-n-kjpaw_psl.1.0.0.UPF
     MD5 check sum: 04dc8a03c51ece93fc7b5889c2958091
     Pseudo is Projector augmented-wave + core cor, Zval = 10.0
     Generated using 'atomic' code by A. Dal Corso  v.6.7MaX
     Shape of augmentation charge: PSQ
     Using radial grid of 1277 points,  6 beta functions with: 
                l(1) =   0
                l(2) =   0
                l(3) =   1
                l(4) =   1
                l(5) =   2
                l(6) =   2
     Q(r) pseudized with 0 coefficients 


     PseudoPot. # 2 for C  read from file:
     /users/bkreitz1/quantum-espresso/potentials/C.pbe-n-kjpaw_psl.1.0.0.UPF
     MD5 check sum: a169b0ebad56f5ec0d79c4633f80bf22
     Pseudo is Projector augmented-wave + core cor, Zval =  4.0
     Generated using 'atomic' code by A. Dal Corso  v.6.7MaX
     Shape of augmentation charge: PSQ
     Using radial grid of 1073 points,  4 beta functions with: 
                l(1) =   0
                l(2) =   0
                l(3) =   1
                l(4) =   1
     Q(r) pseudized with 0 coefficients 


     PseudoPot. # 3 for O  read from file:
     /users/bkreitz1/quantum-espresso/potentials/O.pbe-nl-kjpaw_psl.1.0.0.UPF
     MD5 check sum: eef08af8b58d9ec80f8fdb78829eb7cf
     Pseudo is Projector augmented-wave + core cor, Zval =  6.0
     Generated using 'atomic' code by A. Dal Corso  v.6.7MaX
     Shape of augmentation charge: PSQ
     Using radial grid of 1095 points,  4 beta functions with: 
                l(1) =   0
                l(2) =   0
                l(3) =   1
                l(4) =   1
     Q(r) pseudized with 0 coefficients 


     PseudoPot. # 4 for H  read from file:
     /users/bkreitz1/quantum-espresso/potentials/H.pbe-kjpaw_psl.1.0.0.UPF
     MD5 check sum: ae98473e6dc62675f0d0baffdab24f65
     Pseudo is Projector augmented-wave, Zval =  1.0
     Generated using 'atomic' code by A. Dal Corso  v.6.7MaX
     Shape of augmentation charge: PSQ
     Using radial grid of  929 points,  2 beta functions with: 
                l(1) =   0
                l(2) =   0
     Q(r) pseudized with 0 coefficients 


     atomic species   valence    mass     pseudopotential
        Pt            10.00   195.08400     Pt( 1.00)
        C              4.00    12.01100     C ( 1.00)
        O              6.00    15.99900     O ( 1.00)
        H              1.00     1.00800     H ( 1.00)

     No symmetry found



   Cartesian axes

     site n.     atom                  positions (alat units)
         1           Pt  tau(   1) = (   0.0000000   0.0000000   1.0017346  )
         2           Pt  tau(   2) = (   0.3333333   0.0000000   1.0017346  )
         3           Pt  tau(   3) = (   0.6666667   0.0000000   1.0017346  )
         4           Pt  tau(   4) = (   0.1666667   0.2886751   1.0017346  )
         5           Pt  tau(   5) = (   0.5000000   0.2886751   1.0017346  )
         6           Pt  tau(   6) = (   0.8333333   0.2886751   1.0017346  )
         7           Pt  tau(   7) = (   0.3333333   0.5773503   1.0017346  )
         8           Pt  tau(   8) = (   0.6666667   0.5773503   1.0017346  )
         9           Pt  tau(   9) = (   1.0000000   0.5773503   1.0017346  )
        10           Pt  tau(  10) = (   0.1666667   0.0962250   1.2739001  )
        11           Pt  tau(  11) = (   0.5000000   0.0962250   1.2739001  )
        12           Pt  tau(  12) = (   0.8333333   0.0962250   1.2739001  )
        13           Pt  tau(  13) = (   0.3333333   0.3849002   1.2739001  )
        14           Pt  tau(  14) = (   0.6666667   0.3849002   1.2739001  )
        15           Pt  tau(  15) = (   1.0000000   0.3849002   1.2739001  )
        16           Pt  tau(  16) = (   0.5000000   0.6735753   1.2739001  )
        17           Pt  tau(  17) = (   0.8333333   0.6735753   1.2739001  )
        18           Pt  tau(  18) = (   1.1666667   0.6735753   1.2739001  )
        19           Pt  tau(  19) = (   0.0000322   0.1920309   1.5414918  )
        20           Pt  tau(  20) = (   0.3340705   0.1927823   1.5436613  )
        21           Pt  tau(  21) = (   0.6660136   0.1927105   1.5435772  )
        22           Pt  tau(  22) = (   0.1666660   0.4813506   1.5425550  )
        23           Pt  tau(  23) = (   0.4999941   0.4801094   1.5440602  )
        24           Pt  tau(  24) = (   0.8334769   0.4813440   1.5424384  )
        25           Pt  tau(  25) = (   0.3335949   0.7698046   1.5419794  )
        26           Pt  tau(  26) = (   0.6663756   0.7698384   1.5418320  )
        27           Pt  tau(  27) = (   1.0000553   0.7696663   1.5424275  )
        28           Pt  tau(  28) = (  -0.0000052  -0.0001208   1.8170323  )
        29           Pt  tau(  29) = (   0.3329905  -0.0010198   1.8154959  )
        30           Pt  tau(  30) = (   0.6671055  -0.0010201   1.8157832  )
        31           Pt  tau(  31) = (   0.1656659   0.2887405   1.8151329  )
        32           Pt  tau(  32) = (   0.5002385   0.2887513   1.8215436  )
        33           Pt  tau(  33) = (   0.8345139   0.2887120   1.8149565  )
        34           Pt  tau(  34) = (   0.3329495   0.5779254   1.8165164  )
        35           Pt  tau(  35) = (   0.6670572   0.5781011   1.8160023  )
        36           Pt  tau(  36) = (   1.0000794   0.5773870   1.8176358  )
        37           C   tau(  37) = (   0.6382604   0.3280524   2.2245995  )
        38           C   tau(  38) = (   0.3599529   0.2731173   2.2215058  )
        39           O   tau(  39) = (   0.3053698   0.4294399   2.2287816  )
        40           H   tau(  40) = (   0.6430651   0.2835730   2.3456146  )
        41           H   tau(  41) = (   0.7448427   0.2940049   2.1617954  )
        42           H   tau(  42) = (   0.6271395   0.4562861   2.2258139  )
        43           H   tau(  43) = (   0.3729550   0.2342104   2.3437341  )
        44           H   tau(  44) = (   0.2797947   0.1960828   2.1564369  )
        45           H   tau(  45) = (   0.2706830   0.4608081   2.1241376  )
        46           O   tau(  46) = (   0.5082862   0.2559654   2.1432939  )

     number of k points=    13  Marzari-Vanderbilt smearing, width (Ry)=  0.0200
                       cart. coord. in units 2pi/alat
        k(    1) = (   0.0000000   0.0000000   0.0000000), wk =   0.0800000
        k(    2) = (   0.0000000   0.2309401   0.0000000), wk =   0.1600000
        k(    3) = (   0.0000000   0.4618802   0.0000000), wk =   0.1600000
        k(    4) = (   0.2000000  -0.1154701   0.0000000), wk =   0.1600000
        k(    5) = (   0.2000000   0.1154701   0.0000000), wk =   0.1600000
        k(    6) = (   0.2000000   0.3464102   0.0000000), wk =   0.1600000
        k(    7) = (   0.2000000  -0.5773503   0.0000000), wk =   0.1600000
        k(    8) = (   0.2000000  -0.3464102   0.0000000), wk =   0.1600000
        k(    9) = (   0.4000000  -0.2309401   0.0000000), wk =   0.1600000
        k(   10) = (   0.4000000  -0.0000000   0.0000000), wk =   0.1600000
        k(   11) = (   0.4000000   0.2309401   0.0000000), wk =   0.1600000
        k(   12) = (   0.4000000  -0.6928203   0.0000000), wk =   0.1600000
        k(   13) = (   0.4000000  -0.4618802   0.0000000), wk =   0.1600000

     Dense  grid:   740787 G-vectors     FFT dimensions: (  80,  80, 270)

     Estimated max dynamical RAM per process >       9.15 GB

     Check: negative core charge=   -0.000002

     Initial potential from superposition of free atoms

     starting charge  385.99375, renormalised to  386.00000

     negative rho (up, down):  1.142E-02 0.000E+00


     %%%%%%%%%%%%%%%%%%%%%%%%%%%%%%%%%%%%%%%%%%%%%%%%%%%%%%%%%%%%%%%%%%%%%%%%
     %                                                                      %
     % You are using vdW-DF, which was implemented by the Thonhauser group. %
     % Please cite the following two papers that made this development      %
     % possible and the two reviews that describe the various versions:     %
     %                                                                      %
     %   T. Thonhauser et al., PRL 115, 136402 (2015).                      %
     %   T. Thonhauser et al., PRB 76, 125112 (2007).                       %
     %   K. Berland et al., Rep. Prog. Phys. 78, 066501 (2015).             %
     %   D.C. Langreth et al., J. Phys.: Condens. Matter 21, 084203 (2009). %
     %                                                                      %
     %                                                                      %
     % If you are calculating the stress with vdW-DF, please also cite:     %
     %                                                                      %
     %   R. Sabatini et al., J. Phys.: Condens. Matter 24, 424209 (2012).   %
     %                                                                      %
     %%%%%%%%%%%%%%%%%%%%%%%%%%%%%%%%%%%%%%%%%%%%%%%%%%%%%%%%%%%%%%%%%%%%%%%%


     Starting wfcs are  346 randomized atomic wfcs
     Checking if some PAW data can be deallocated... 

     total cpu time spent up to now is      365.7 secs

     Self-consistent Calculation

     iteration #  1     ecut=    60.00 Ry     beta= 0.70
     Davidson diagonalization with overlap
     ethr =  1.00E-02,  avg # of iterations =  2.5

     Threshold (ethr) on eigenvalues was too large:
     Diagonalizing with lowered threshold

     Davidson diagonalization with overlap
     ethr =  6.41E-04,  avg # of iterations =  4.5

     negative rho (up, down):  1.068E-02 0.000E+00

     total cpu time spent up to now is     1842.7 secs

     total energy              =  -27884.39192175 Ry
     estimated scf accuracy    <       2.66909334 Ry

     iteration #  2     ecut=    60.00 Ry     beta= 0.70
     Davidson diagonalization with overlap
     ethr =  6.91E-04,  avg # of iterations =  5.1

     negative rho (up, down):  8.938E-03 0.000E+00

     total cpu time spent up to now is     2557.6 secs

     total energy              =  -27884.49760357 Ry
     estimated scf accuracy    <       1.06757749 Ry

     iteration #  3     ecut=    60.00 Ry     beta= 0.70
     Davidson diagonalization with overlap
     c_bands:  2 eigenvalues not converged
     ethr =  2.77E-04,  avg # of iterations =  9.2

     negative rho (up, down):  5.316E-03 0.000E+00

     total cpu time spent up to now is     3295.4 secs

     total energy              =  -27884.52743568 Ry
     estimated scf accuracy    <       0.35151212 Ry

     iteration #  4     ecut=    60.00 Ry     beta= 0.70
     Davidson diagonalization with overlap
     c_bands:  1 eigenvalues not converged
     ethr =  9.11E-05,  avg # of iterations = 14.5

     negative rho (up, down):  3.642E-03 0.000E+00

     total cpu time spent up to now is     4208.5 secs

     total energy              =  -27884.57529961 Ry
     estimated scf accuracy    <       0.10430782 Ry

     iteration #  5     ecut=    60.00 Ry     beta= 0.70
     Davidson diagonalization with overlap
     ethr =  2.70E-05,  avg # of iterations =  6.7

     negative rho (up, down):  2.421E-03 0.000E+00

     total cpu time spent up to now is     5021.4 secs

     total energy              =  -27884.58205115 Ry
     estimated scf accuracy    <       0.04036984 Ry

     iteration #  6     ecut=    60.00 Ry     beta= 0.70
     Davidson diagonalization with overlap
     c_bands:  1 eigenvalues not converged
     c_bands:  1 eigenvalues not converged
     ethr =  1.05E-05,  avg # of iterations = 11.5

     negative rho (up, down):  2.144E-03 0.000E+00

     total cpu time spent up to now is     5814.3 secs

     total energy              =  -27884.58391169 Ry
     estimated scf accuracy    <       0.08037497 Ry

     iteration #  7     ecut=    60.00 Ry     beta= 0.70
     Davidson diagonalization with overlap
     ethr =  1.05E-05,  avg # of iterations = 12.2

     negative rho (up, down):  5.190E-03 0.000E+00

     total cpu time spent up to now is     6570.9 secs

     total energy              =  -27884.58238230 Ry
     estimated scf accuracy    <       0.04263263 Ry

     iteration #  8     ecut=    60.00 Ry     beta= 0.70
     Davidson diagonalization with overlap
     ethr =  1.05E-05,  avg # of iterations = 13.2

     negative rho (up, down):  1.611E-02 0.000E+00

     total cpu time spent up to now is     7330.3 secs

     total energy              =  -27884.58255373 Ry
     estimated scf accuracy    <       0.03325668 Ry

     iteration #  9     ecut=    60.00 Ry     beta= 0.70
     Davidson diagonalization with overlap
     c_bands:  1 eigenvalues not converged
     c_bands:  1 eigenvalues not converged
     c_bands:  1 eigenvalues not converged
     ethr =  8.62E-06,  avg # of iterations =  8.6

     negative rho (up, down):  2.497E-02 0.000E+00

     total cpu time spent up to now is     8027.6 secs

     total energy              =  -27884.58280855 Ry
     estimated scf accuracy    <       0.00961112 Ry

     iteration # 10     ecut=    60.00 Ry     beta= 0.70
     Davidson diagonalization with overlap
     c_bands:  1 eigenvalues not converged
     c_bands:  1 eigenvalues not converged
     c_bands:  1 eigenvalues not converged
     ethr =  2.49E-06,  avg # of iterations = 13.8

     negative rho (up, down):  2.705E-02 0.000E+00

     total cpu time spent up to now is     8825.5 secs

     total energy              =  -27884.58317357 Ry
     estimated scf accuracy    <       0.00218800 Ry

     iteration # 11     ecut=    60.00 Ry     beta= 0.70
     Davidson diagonalization with overlap
     c_bands:  1 eigenvalues not converged
     ethr =  5.67E-07,  avg # of iterations =  7.6

     negative rho (up, down):  2.383E-02 0.000E+00

     total cpu time spent up to now is     9565.2 secs

     total energy              =  -27884.58320915 Ry
     estimated scf accuracy    <       0.00094462 Ry

     iteration # 12     ecut=    60.00 Ry     beta= 0.70
     Davidson diagonalization with overlap
     c_bands:  2 eigenvalues not converged
     c_bands:  1 eigenvalues not converged
     c_bands:  1 eigenvalues not converged
     ethr =  2.45E-07,  avg # of iterations = 10.2

     negative rho (up, down):  2.088E-02 0.000E+00

     total cpu time spent up to now is    10311.0 secs

     total energy              =  -27884.58311847 Ry
     estimated scf accuracy    <       0.00052778 Ry

     iteration # 13     ecut=    60.00 Ry     beta= 0.70
     Davidson diagonalization with overlap
     c_bands:  1 eigenvalues not converged
     ethr =  1.37E-07,  avg # of iterations =  9.9

     negative rho (up, down):  1.946E-02 0.000E+00

     total cpu time spent up to now is    11060.6 secs

     total energy              =  -27884.58308971 Ry
     estimated scf accuracy    <       0.00025168 Ry

     iteration # 14     ecut=    60.00 Ry     beta= 0.70
     Davidson diagonalization with overlap
     ethr =  6.52E-08,  avg # of iterations =  2.6

     negative rho (up, down):  1.927E-02 0.000E+00

     total cpu time spent up to now is    11728.0 secs

     total energy              =  -27884.58308856 Ry
     estimated scf accuracy    <       0.00010408 Ry

     iteration # 15     ecut=    60.00 Ry     beta= 0.70
     Davidson diagonalization with overlap
     ethr =  2.70E-08,  avg # of iterations =  3.7

     negative rho (up, down):  1.673E-02 0.000E+00

     total cpu time spent up to now is    12453.4 secs

     total energy              =  -27884.58307064 Ry
     estimated scf accuracy    <       0.00006444 Ry

     iteration # 16     ecut=    60.00 Ry     beta= 0.70
     Davidson diagonalization with overlap
     ethr =  1.67E-08,  avg # of iterations =  9.1

     negative rho (up, down):  1.592E-02 0.000E+00

     total cpu time spent up to now is    13174.6 secs

     total energy              =  -27884.58306764 Ry
     estimated scf accuracy    <       0.00003471 Ry

     iteration # 17     ecut=    60.00 Ry     beta= 0.70
     Davidson diagonalization with overlap
     ethr =  8.99E-09,  avg # of iterations =  2.0

     negative rho (up, down):  1.466E-02 0.000E+00

     total cpu time spent up to now is    13840.1 secs

     total energy              =  -27884.58306475 Ry
     estimated scf accuracy    <       0.00002473 Ry

     iteration # 18     ecut=    60.00 Ry     beta= 0.70
     Davidson diagonalization with overlap
     ethr =  6.41E-09,  avg # of iterations =  2.0

     negative rho (up, down):  1.372E-02 0.000E+00

     total cpu time spent up to now is    14483.4 secs

     total energy              =  -27884.58306349 Ry
     estimated scf accuracy    <       0.00001899 Ry

     iteration # 19     ecut=    60.00 Ry     beta= 0.70
     Davidson diagonalization with overlap
     ethr =  4.92E-09,  avg # of iterations =  1.5

     negative rho (up, down):  1.338E-02 0.000E+00

     total cpu time spent up to now is    15105.4 secs

     total energy              =  -27884.58306323 Ry
     estimated scf accuracy    <       0.00000705 Ry

     iteration # 20     ecut=    60.00 Ry     beta= 0.70
     Davidson diagonalization with overlap
     ethr =  1.83E-09,  avg # of iterations =  2.2

     negative rho (up, down):  1.298E-02 0.000E+00

     total cpu time spent up to now is    15821.0 secs

     total energy              =  -27884.58306423 Ry
     estimated scf accuracy    <       0.00000615 Ry

     iteration # 21     ecut=    60.00 Ry     beta= 0.70
     Davidson diagonalization with overlap
     ethr =  1.59E-09,  avg # of iterations =  1.8

     negative rho (up, down):  1.268E-02 0.000E+00

     total cpu time spent up to now is    16451.7 secs

     total energy              =  -27884.58306505 Ry
     estimated scf accuracy    <       0.00000405 Ry

     iteration # 22     ecut=    60.00 Ry     beta= 0.70
     Davidson diagonalization with overlap
     ethr =  1.05E-09,  avg # of iterations =  2.0

     negative rho (up, down):  1.267E-02 0.000E+00

     total cpu time spent up to now is    17072.7 secs

     End of self-consistent calculation

          k = 0.0000 0.0000 0.0000 ( 92627 PWs)   bands (ev):

   -20.0892 -18.5739 -11.2427  -9.2459  -7.1432  -6.5048  -5.8414  -5.4320
    -5.1741  -4.7509  -4.7259  -4.7228  -4.7222  -4.7173  -4.7109  -4.7102
    -4.7008  -4.1669  -4.1627  -4.1613  -4.1598  -4.1581  -4.1573  -3.7925
    -3.6941  -3.6927  -3.6891  -3.6846  -3.6826  -3.6797  -3.5063  -3.4738
    -3.4725  -3.4711  -3.4697  -3.4684  -3.3938  -3.2437  -3.2433  -3.2380
    -3.2353  -3.2328  -3.2284  -3.2273  -3.2233  -3.2191  -3.2174  -3.2099
    -3.1974  -2.6264  -2.6258  -2.6011  -2.5967  -2.5695  -2.5448  -2.5396
    -2.5389  -2.5379  -2.5343  -2.4613  -2.4002  -2.3899  -2.3039  -2.2824
    -1.8032  -1.8002  -1.7922  -1.7900  -1.7852  -1.7827  -1.7245  -1.6343
    -1.6342  -1.6070  -1.6060  -1.5988  -1.5946  -1.5925  -1.5765  -1.5734
    -1.5705  -1.5685  -1.5648  -1.5635  -1.5320  -1.5316  -1.4207  -1.3832
    -1.3787  -1.3769  -1.3737  -1.3706  -1.2330  -1.2226  -1.2214  -1.2142
    -1.2125  -1.2111  -1.1757  -1.1253  -1.1249  -1.0301  -1.0293  -0.9796
    -0.9682  -0.9586  -0.9572  -0.9184  -0.9167  -0.9039  -0.8984  -0.7740
    -0.7638  -0.7545  -0.7534  -0.7493  -0.7464  -0.6669  -0.4425  -0.2641
    -0.2600  -0.2586  -0.2556  -0.2551  -0.2544  -0.2031  -0.1926  -0.1812
    -0.1806  -0.1800  -0.1702  -0.1149  -0.1011  -0.0112   0.0447   0.0566
     0.0611   0.0725   0.0863   0.1210   0.1973   0.2075   0.2137   0.2155
     0.2228   0.2233   0.4706   0.4714   0.4738   0.4771   0.4785   0.4837
     0.5544   0.5548   0.7324   0.7327   0.7353   0.7411   0.7449   0.7640
     0.9030   0.9051   0.9100   0.9112   0.9118   0.9241   0.9441   0.9473
     0.9502   0.9548   0.9593   1.0144   1.0805   1.0975   1.0996   1.1035
     1.1042   1.1074   1.1102   1.1130   1.1957   1.1983   1.2105   1.2129
     1.2143   1.2149   1.2229   1.2245   1.3073   1.3084   1.3173   1.3195
     1.3210   1.3252   1.4089   1.4182   1.4218   1.4222   1.4354   1.4361
     1.5763   1.6422   1.6431   1.7428   1.7431   1.7542   1.7550   1.7575
     1.7639   2.5588   2.6196   2.6271   2.6338   2.6483   2.6514   2.8212
     4.9145   4.9381   4.9654   4.9705   4.9760   5.0848   5.9209   6.5048
     6.5088   6.5310   6.5565   6.5608   6.5712   6.5721   6.9001   7.1755

          k = 0.0000 0.2309 0.0000 ( 92526 PWs)   bands (ev):

   -20.0892 -18.5739 -11.2427  -9.2458  -6.9965  -6.5034  -5.7032  -5.4285
    -5.2358  -5.1681  -4.8353  -4.8326  -4.6046  -4.5698  -4.5273  -4.4840
    -4.4829  -4.2764  -4.2553  -4.1025  -4.0971  -4.0832  -4.0793  -3.8088
    -3.7803  -3.6677  -3.6670  -3.6385  -3.6311  -3.5748  -3.5704  -3.5121
    -3.5033  -3.5016  -3.4930  -3.4284  -3.4145  -3.3930  -3.3859  -3.2728
    -3.2713  -3.2574  -3.2136  -3.2084  -3.0559  -3.0436  -3.0223  -3.0154
    -2.9894  -2.7540  -2.7510  -2.7167  -2.6675  -2.6641  -2.6226  -2.6206
    -2.4787  -2.4455  -2.4364  -2.3740  -2.3709  -2.3263  -2.2992  -2.2885
    -2.0905  -1.9959  -1.9934  -1.9140  -1.9095  -1.8716  -1.8316  -1.8000
    -1.7893  -1.7732  -1.7562  -1.7488  -1.7035  -1.6328  -1.6189  -1.6010
    -1.5990  -1.5290  -1.5137  -1.5064  -1.4523  -1.4512  -1.4403  -1.3819
    -1.3368  -1.3331  -1.3189  -1.3161  -1.2600  -1.2248  -1.2212  -1.2157
    -1.2023  -1.1778  -1.1305  -1.1217  -1.0956  -1.0887  -1.0343  -1.0307
    -1.0278  -0.9823  -0.9779  -0.9383  -0.9373  -0.9255  -0.8286  -0.7741
    -0.7631  -0.7510  -0.7476  -0.7336  -0.7212  -0.7133  -0.6935  -0.6631
    -0.6510  -0.6326  -0.6197  -0.4538  -0.4125  -0.3426  -0.2866  -0.2421
    -0.2349  -0.2247  -0.2182  -0.2014  -0.1939  -0.0492  -0.0393  -0.0226
     0.0140   0.0950   0.1192   0.1335   0.1440   0.1458   0.2362   0.2474
     0.2536   0.2610   0.3375   0.3503   0.3530   0.3795   0.3825   0.5687
     0.5829   0.6005   0.6021   0.6122   0.6337   0.6451   0.7209   0.7487
     0.7529   0.7805   0.8050   0.8449   0.8519   0.8547   0.8610   0.9652
     0.9712   0.9955   1.0122   1.0922   1.1392   1.1426   1.1460   1.1561
     1.1693   1.2110   1.2320   1.2794   1.2857   1.3402   1.3492   1.3507
     1.3945   1.3998   1.4014   1.4060   1.4070   1.4225   1.4787   1.4864
     1.6372   1.6385   1.6502   1.6676   1.6790   1.6816   1.7150   1.7558
     1.7573   1.7716   1.8705   1.8718   1.8952   2.0543   2.0572   2.0594
     2.0863   2.1598   2.5064   2.5510   3.2118   3.2288   3.3023   3.4021
     4.2442   4.6762   4.7426   5.3769   5.3775   5.5054   5.5486   5.7940
     6.0142   6.3377   6.3563   6.5177   6.6424   6.7378   6.7496   6.9467

          k = 0.0000 0.4619 0.0000 ( 92574 PWs)   bands (ev):

   -20.0892 -18.5739 -11.2427  -9.2458  -6.5800  -6.4959  -5.9372  -5.4607
    -5.2716  -5.1636  -4.8692  -4.8663  -4.7196  -4.5011  -4.3469  -4.2176
    -4.1809  -4.1429  -4.1424  -3.9692  -3.9590  -3.9293  -3.9217  -3.9151
    -3.8075  -3.7738  -3.7590  -3.7575  -3.7089  -3.7064  -3.6474  -3.6193
    -3.5709  -3.5698  -3.5396  -3.4365  -3.2986  -3.2968  -3.2849  -3.2809
    -3.2771  -3.2729  -3.0549  -3.0491  -2.9988  -2.9954  -2.9869  -2.9806
    -2.8084  -2.7058  -2.7006  -2.6904  -2.6846  -2.6246  -2.6230  -2.5752
    -2.5641  -2.5534  -2.4815  -2.4775  -2.4513  -2.3502  -2.3441  -2.3011
    -2.2924  -2.1990  -2.1624  -2.1210  -2.1195  -2.1120  -1.9757  -1.9001
    -1.8905  -1.8806  -1.8721  -1.7959  -1.7816  -1.7644  -1.6556  -1.6507
    -1.6402  -1.6257  -1.5213  -1.5108  -1.5062  -1.5025  -1.5018  -1.4294
    -1.4145  -1.4107  -1.4038  -1.3874  -1.3807  -1.3752  -1.3649  -1.3266
    -1.2804  -1.2513  -1.2378  -1.2236  -1.2043  -1.1856  -1.1713  -1.0985
    -1.0772  -1.0147  -0.9806  -0.9731  -0.9415  -0.9306  -0.9089  -0.8970
    -0.8716  -0.7669  -0.7628  -0.7479  -0.6949  -0.6861  -0.6386  -0.5351
    -0.5040  -0.4834  -0.4575  -0.4164  -0.3415  -0.3279  -0.3184  -0.2973
    -0.2941  -0.2861  -0.2704  -0.2248  -0.2017  -0.1755  -0.1608  -0.1533
    -0.1363  -0.1251  -0.1065  -0.0857  -0.0491   0.0390   0.0433   0.0767
     0.0951   0.1466   0.2258   0.2387   0.2458   0.3752   0.3795   0.4468
     0.4942   0.5445   0.5530   0.5725   0.5927   0.6328   0.6351   0.6865
     0.7050   0.7422   0.7478   0.8002   0.8496   0.8593   0.9023   0.9045
     0.9196   0.9206   1.0002   1.0976   1.1172   1.1773   1.1919   1.2001
     1.2039   1.2902   1.3057   1.3110   1.3995   1.4045   1.4079   1.4397
     1.4856   1.5049   1.5053   1.5168   1.6330   1.6417   1.6561   1.6660
     1.6712   1.6753   1.6933   1.7099   1.8645   1.9048   1.9100   1.9126
     1.9218   2.1028   2.1366   2.5153   2.5439   2.5827   2.8415   2.9526
     2.9551   3.3501   3.3550   3.5513   3.6895   4.1644   4.1671   4.1847
     4.3218   4.4298   4.4513   4.5750   4.6547   4.8288   4.8384   5.4542
     5.4716   5.9793   6.0038   6.2600   6.4539   6.5259   6.7025   6.9097

          k = 0.2000-0.1155 0.0000 ( 92526 PWs)   bands (ev):

   -20.0892 -18.5739 -11.2427  -9.2459  -6.9965  -6.5026  -5.7026  -5.4269
    -5.2372  -5.1685  -4.8350  -4.8324  -4.6048  -4.5700  -4.5276  -4.4841
    -4.4826  -4.2787  -4.2556  -4.1023  -4.0971  -4.0820  -4.0781  -3.8029
    -3.7890  -3.6674  -3.6667  -3.6410  -3.6337  -3.5734  -3.5691  -3.5095
    -3.5025  -3.5005  -3.4928  -3.4415  -3.4024  -3.3926  -3.3867  -3.2723
    -3.2695  -3.2576  -3.2129  -3.2103  -3.0557  -3.0441  -3.0223  -3.0163
    -2.9892  -2.7540  -2.7503  -2.7122  -2.6671  -2.6647  -2.6281  -2.6211
    -2.4926  -2.4467  -2.4245  -2.3745  -2.3691  -2.3298  -2.2998  -2.2844
    -2.0903  -1.9970  -1.9922  -1.9142  -1.9092  -1.8730  -1.8322  -1.8014
    -1.7872  -1.7731  -1.7551  -1.7517  -1.7036  -1.6334  -1.6198  -1.6010
    -1.5996  -1.5289  -1.5133  -1.5052  -1.4526  -1.4494  -1.4393  -1.3819
    -1.3365  -1.3327  -1.3196  -1.3159  -1.2606  -1.2245  -1.2174  -1.2151
    -1.2021  -1.1764  -1.1342  -1.1264  -1.0954  -1.0853  -1.0339  -1.0308
    -1.0261  -0.9860  -0.9790  -0.9428  -0.9362  -0.9257  -0.8306  -0.7765
    -0.7569  -0.7515  -0.7460  -0.7343  -0.7217  -0.7147  -0.7006  -0.6579
    -0.6519  -0.6348  -0.6184  -0.4447  -0.4001  -0.3428  -0.2864  -0.2435
    -0.2360  -0.2290  -0.2175  -0.2014  -0.1911  -0.0458  -0.0392  -0.0315
     0.0203   0.0840   0.1224   0.1325   0.1449   0.1492   0.2390   0.2446
     0.2512   0.2611   0.3382   0.3511   0.3522   0.3760   0.3839   0.5689
     0.5830   0.5998   0.6019   0.6134   0.6366   0.6453   0.7241   0.7456
     0.7532   0.7809   0.8010   0.8444   0.8515   0.8551   0.8619   0.9664
     0.9699   0.9954   1.0137   1.0883   1.1396   1.1435   1.1470   1.1567
     1.1705   1.2107   1.2355   1.2797   1.2853   1.3405   1.3472   1.3509
     1.3944   1.3998   1.4019   1.4060   1.4089   1.4195   1.4793   1.4856
     1.6360   1.6392   1.6500   1.6678   1.6783   1.6817   1.7146   1.7556
     1.7578   1.7715   1.8705   1.8719   1.8952   2.0520   2.0576   2.0604
     2.0817   2.1695   2.5092   2.5449   3.2189   3.2284   3.2888   3.4090
     4.2516   4.6826   4.7297   5.3754   5.3789   5.5145   5.5425   5.7861
     6.0294   6.3427   6.3521   6.5339   6.6481   6.7400   6.7487   6.9828

          k = 0.2000 0.1155 0.0000 ( 92526 PWs)   bands (ev):

   -20.0892 -18.5739 -11.2428  -9.2458  -6.9965  -6.5026  -5.7021  -5.4269
    -5.2354  -5.1717  -4.8338  -4.8328  -4.6049  -4.5700  -4.5279  -4.4836
    -4.4829  -4.2786  -4.2554  -4.1021  -4.0973  -4.0835  -4.0776  -3.8021
    -3.7885  -3.6677  -3.6666  -3.6421  -3.6334  -3.5717  -3.5695  -3.5097
    -3.5028  -3.5008  -3.4932  -3.4343  -3.4132  -3.3925  -3.3852  -3.2729
    -3.2689  -3.2577  -3.2119  -3.2101  -3.0551  -3.0440  -3.0208  -3.0168
    -2.9887  -2.7529  -2.7502  -2.7109  -2.6691  -2.6641  -2.6315  -2.6211
    -2.4895  -2.4442  -2.4309  -2.3737  -2.3679  -2.3300  -2.2996  -2.2842
    -2.0915  -1.9952  -1.9926  -1.9121  -1.9094  -1.8741  -1.8317  -1.7986
    -1.7884  -1.7731  -1.7539  -1.7500  -1.7036  -1.6333  -1.6208  -1.6013
    -1.5990  -1.5288  -1.5134  -1.5060  -1.4526  -1.4472  -1.4395  -1.3831
    -1.3370  -1.3313  -1.3195  -1.3143  -1.2572  -1.2252  -1.2211  -1.2161
    -1.2022  -1.1887  -1.1354  -1.1259  -1.0962  -1.0928  -1.0332  -1.0307
    -1.0188  -0.9861  -0.9689  -0.9403  -0.9370  -0.9254  -0.8286  -0.7734
    -0.7607  -0.7551  -0.7496  -0.7365  -0.7246  -0.7148  -0.6884  -0.6639
    -0.6559  -0.6329  -0.6176  -0.4562  -0.3881  -0.3426  -0.2867  -0.2435
    -0.2346  -0.2277  -0.2180  -0.2024  -0.1934  -0.0480  -0.0392  -0.0301
     0.0290   0.0852   0.1214   0.1328   0.1440   0.1467   0.2389   0.2444
     0.2554   0.2636   0.3383   0.3505   0.3519   0.3767   0.3837   0.5690
     0.5803   0.6010   0.6018   0.6121   0.6330   0.6486   0.7205   0.7452
     0.7533   0.7810   0.8019   0.8454   0.8511   0.8543   0.8603   0.9666
     0.9704   0.9952   1.0108   1.0926   1.1407   1.1423   1.1459   1.1556
     1.1710   1.2112   1.2342   1.2799   1.2845   1.3399   1.3473   1.3509
     1.3941   1.3994   1.4020   1.4059   1.4077   1.4232   1.4789   1.4852
     1.6356   1.6386   1.6501   1.6679   1.6785   1.6823   1.7147   1.7555
     1.7573   1.7714   1.8700   1.8724   1.8952   2.0528   2.0566   2.0605
     2.0880   2.1666   2.5025   2.5466   3.2103   3.2284   3.3020   3.4077
     4.2499   4.6681   4.7428   5.3767   5.3779   5.5028   5.5491   5.7939
     6.0286   6.3421   6.3551   6.5255   6.6425   6.7387   6.7476   6.9821

          k = 0.2000 0.3464 0.0000 ( 92554 PWs)   bands (ev):

   -20.0892 -18.5739 -11.2428  -9.2457  -6.7124  -6.4999  -5.5093  -5.4848
    -5.4606  -5.3643  -5.1680  -4.4075  -4.4032  -4.3796  -4.3710  -4.3351
    -4.3269  -4.3261  -4.3103  -4.2165  -4.2128  -3.8353  -3.8292  -3.8217
    -3.8205  -3.7805  -3.7572  -3.7352  -3.5930  -3.5726  -3.5647  -3.5415
    -3.5402  -3.4747  -3.4420  -3.4156  -3.4129  -3.3791  -3.3780  -3.3341
    -3.2911  -3.2797  -3.2469  -3.2361  -3.1676  -2.8984  -2.8013  -2.7955
    -2.7850  -2.7599  -2.7574  -2.7479  -2.7430  -2.6865  -2.6713  -2.5167
    -2.5107  -2.5005  -2.4628  -2.4220  -2.3914  -2.3448  -2.3400  -2.3181
    -2.2409  -2.2388  -2.0682  -2.0666  -2.0484  -1.9684  -1.9647  -1.9344
    -1.9285  -1.9245  -1.8574  -1.8509  -1.7010  -1.6816  -1.6773  -1.6717
    -1.6121  -1.6082  -1.5498  -1.5430  -1.5373  -1.5339  -1.4134  -1.3797
    -1.3754  -1.3696  -1.3591  -1.3534  -1.3426  -1.3085  -1.3011  -1.2698
    -1.2196  -1.2141  -1.1923  -1.1444  -1.1237  -1.1187  -1.0638  -1.0299
    -1.0025  -0.9974  -0.9863  -0.9480  -0.9405  -0.9360  -0.9222  -0.9093
    -0.8976  -0.8931  -0.8651  -0.8244  -0.8159  -0.7214  -0.6926  -0.6761
    -0.6083  -0.6067  -0.6002  -0.5857  -0.4669  -0.4135  -0.3997  -0.2726
    -0.2528  -0.2190  -0.2154  -0.1990  -0.1851  -0.1776  -0.1456  -0.1314
    -0.1080  -0.0839  -0.0511  -0.0138   0.0453   0.1009   0.1751   0.1858
     0.2254   0.2326   0.2547   0.2832   0.3007   0.4203   0.4294   0.4369
     0.4813   0.4874   0.5618   0.6132   0.6354   0.6465   0.6514   0.7188
     0.7243   0.7309   0.7410   0.7465   0.7643   0.7699   0.7821   0.8000
     0.9147   0.9767   0.9928   1.1162   1.1231   1.1511   1.2867   1.2895
     1.2936   1.3062   1.4025   1.4210   1.4382   1.4427   1.4536   1.4817
     1.4878   1.5056   1.5109   1.5251   1.5704   1.5751   1.5979   1.6639
     1.6870   1.6928   1.7231   1.7266   1.7698   1.9048   1.9553   1.9576
     2.0297   2.0377   2.0433   2.0811   2.1874   2.1949   2.6485   2.7160
     2.7240   3.2531   3.2569   3.2856   3.3095   3.9547   3.9842   4.1019
     4.1773   4.2152   4.2569   4.8836   5.3663   5.4141   5.4442   5.6074
     6.0485   6.0730   6.1352   6.1910   6.1944   6.2102   6.3491   6.6089

          k = 0.2000-0.5774 0.0000 ( 92546 PWs)   bands (ev):

   -20.0892 -18.5739 -11.2428  -9.2458  -6.5048  -6.1765  -6.1697  -5.5679
    -5.4440  -5.1799  -4.9176  -4.8937  -4.4041  -4.3973  -4.2663  -4.2320
    -4.1246  -4.1212  -4.0166  -4.0125  -3.8997  -3.8901  -3.8864  -3.8522
    -3.8468  -3.8384  -3.8169  -3.7649  -3.6959  -3.6808  -3.6794  -3.6392
    -3.6357  -3.5391  -3.4551  -3.4449  -3.4203  -3.3474  -3.2682  -3.2654
    -3.2511  -3.2497  -3.2308  -3.1254  -3.1216  -3.0260  -3.0240  -2.8516
    -2.8411  -2.7910  -2.6863  -2.6847  -2.6373  -2.6305  -2.5264  -2.4813
    -2.4618  -2.4267  -2.4225  -2.4006  -2.3565  -2.3536  -2.3267  -2.2240
    -2.2204  -2.1928  -2.1902  -2.1841  -2.1818  -2.1757  -2.1091  -2.1036
    -1.9786  -1.9550  -1.9060  -1.9038  -1.7890  -1.7521  -1.7475  -1.7432
    -1.7001  -1.6593  -1.6580  -1.5783  -1.5522  -1.5456  -1.5349  -1.5116
    -1.4825  -1.4302  -1.4236  -1.3807  -1.3454  -1.3256  -1.3193  -1.3056
    -1.2070  -1.1947  -1.1439  -1.1416  -1.1031  -1.0971  -1.0607  -1.0549
    -1.0451  -1.0266  -1.0097  -1.0051  -0.9634  -0.9600  -0.9242  -0.9119
    -0.9069  -0.9036  -0.8914  -0.8746  -0.8595  -0.7971  -0.7933  -0.7815
    -0.5899  -0.5834  -0.4916  -0.4757  -0.4735  -0.3706  -0.3611  -0.3564
    -0.3237  -0.2771  -0.2673  -0.2620  -0.2515  -0.2259  -0.1502  -0.1254
    -0.1247  -0.0984  -0.0498  -0.0158   0.0147   0.0395   0.0636   0.1142
     0.2222   0.2800   0.2868   0.3059   0.3110   0.3967   0.4035   0.4103
     0.4294   0.4434   0.4658   0.4851   0.4939   0.6049   0.6082   0.6247
     0.6704   0.6744   0.6940   0.7070   0.7191   0.7408   0.8798   0.9300
     0.9652   1.0355   1.0474   1.1227   1.1250   1.2079   1.2511   1.2576
     1.2694   1.3611   1.3782   1.4351   1.4670   1.4776   1.4857   1.4973
     1.5283   1.5435   1.5760   1.6445   1.6462   1.6706   1.6920   1.6970
     1.7021   1.7397   1.7681   1.9015   1.9073   1.9102   1.9155   1.9215
     1.9873   2.0695   2.1021   2.2388   3.0604   3.0619   3.2686   3.3059
     3.3751   3.4570   3.4628   3.4761   3.9261   4.0703   4.0739   4.5262
     4.5461   4.5664   4.6723   4.6751   4.8913   4.9725   5.0199   5.1221
     5.4196   5.5043   5.5131   6.0236   6.1508   6.1537   6.4739   6.4893

          k = 0.2000-0.3464 0.0000 ( 92554 PWs)   bands (ev):

   -20.0892 -18.5739 -11.2427  -9.2458  -6.7125  -6.4999  -5.5101  -5.4856
    -5.4610  -5.3635  -5.1661  -4.4075  -4.4032  -4.3791  -4.3721  -4.3359
    -4.3267  -4.3255  -4.3102  -4.2165  -4.2128  -3.8320  -3.8279  -3.8247
    -3.8206  -3.7801  -3.7570  -3.7350  -3.5932  -3.5730  -3.5654  -3.5430
    -3.5402  -3.4743  -3.4437  -3.4211  -3.4103  -3.3786  -3.3725  -3.3343
    -3.2893  -3.2792  -3.2446  -3.2405  -3.1677  -2.8981  -2.8038  -2.7951
    -2.7834  -2.7620  -2.7574  -2.7482  -2.7423  -2.6864  -2.6712  -2.5146
    -2.5104  -2.5000  -2.4668  -2.4200  -2.3933  -2.3450  -2.3389  -2.3169
    -2.2402  -2.2387  -2.0713  -2.0650  -2.0489  -1.9696  -1.9632  -1.9371
    -1.9294  -1.9243  -1.8566  -1.8511  -1.7083  -1.6803  -1.6779  -1.6704
    -1.6115  -1.6081  -1.5522  -1.5453  -1.5387  -1.5351  -1.4134  -1.3798
    -1.3762  -1.3605  -1.3588  -1.3544  -1.3429  -1.3081  -1.2978  -1.2587
    -1.2213  -1.2100  -1.1940  -1.1434  -1.1228  -1.1175  -1.0618  -1.0321
    -1.0034  -0.9957  -0.9869  -0.9511  -0.9443  -0.9388  -0.9234  -0.9125
    -0.8984  -0.8848  -0.8660  -0.8240  -0.8178  -0.7209  -0.6818  -0.6782
    -0.6202  -0.6048  -0.6015  -0.5813  -0.4694  -0.4135  -0.4028  -0.2721
    -0.2527  -0.2201  -0.2150  -0.2026  -0.1853  -0.1713  -0.1461  -0.1327
    -0.1090  -0.0893  -0.0527  -0.0127   0.0368   0.1025   0.1773   0.1889
     0.2260   0.2325   0.2565   0.2815   0.3009   0.4219   0.4290   0.4376
     0.4850   0.4878   0.5622   0.6179   0.6326   0.6455   0.6517   0.7184
     0.7242   0.7286   0.7405   0.7508   0.7635   0.7709   0.7825   0.7987
     0.9155   0.9789   0.9879   1.1170   1.1209   1.1535   1.2870   1.2886
     1.2933   1.3131   1.3992   1.4213   1.4383   1.4423   1.4533   1.4821
     1.4867   1.5075   1.5107   1.5229   1.5690   1.5767   1.5973   1.6631
     1.6878   1.6935   1.7227   1.7268   1.7700   1.9042   1.9542   1.9570
     2.0322   2.0400   2.0428   2.0774   2.1868   2.1949   2.6490   2.7176
     2.7224   3.2547   3.2582   3.2846   3.3136   3.9607   3.9744   4.1007
     4.1775   4.2225   4.2538   4.8831   5.3656   5.4206   5.4434   5.6060
     6.0458   6.0785   6.1381   6.1813   6.1957   6.2063   6.3495   6.6130

          k = 0.4000-0.2309 0.0000 ( 92574 PWs)   bands (ev):

   -20.0892 -18.5739 -11.2427  -9.2458  -6.5797  -6.4941  -5.9367  -5.4554
    -5.2758  -5.1636  -4.8687  -4.8662  -4.7220  -4.5015  -4.3468  -4.2183
    -4.1822  -4.1428  -4.1421  -3.9668  -3.9571  -3.9281  -3.9217  -3.9151
    -3.8145  -3.7757  -3.7610  -3.7558  -3.7083  -3.7061  -3.6495  -3.6219
    -3.5707  -3.5700  -3.5447  -3.4205  -3.2984  -3.2974  -3.2834  -3.2811
    -3.2789  -3.2747  -3.0536  -3.0530  -2.9976  -2.9955  -2.9859  -2.9817
    -2.8045  -2.7026  -2.6998  -2.6895  -2.6859  -2.6304  -2.6236  -2.5728
    -2.5628  -2.5594  -2.4989  -2.4802  -2.4456  -2.3480  -2.3433  -2.3007
    -2.2900  -2.1987  -2.1632  -2.1209  -2.1188  -2.1140  -1.9755  -1.8998
    -1.8937  -1.8814  -1.8716  -1.7946  -1.7825  -1.7658  -1.6548  -1.6493
    -1.6420  -1.6239  -1.5242  -1.5101  -1.5064  -1.5022  -1.5004  -1.4290
    -1.4131  -1.4096  -1.4036  -1.3932  -1.3791  -1.3714  -1.3653  -1.3269
    -1.2587  -1.2509  -1.2386  -1.2235  -1.2024  -1.1900  -1.1831  -1.1090
    -1.0767  -1.0151  -0.9807  -0.9742  -0.9398  -0.9303  -0.9095  -0.8983
    -0.8682  -0.7672  -0.7625  -0.7512  -0.6926  -0.6771  -0.6387  -0.5308
    -0.5037  -0.4966  -0.4411  -0.4162  -0.3415  -0.3292  -0.3184  -0.3020
    -0.2970  -0.2922  -0.2821  -0.2016  -0.1939  -0.1755  -0.1619  -0.1570
    -0.1405  -0.1274  -0.1098  -0.0769  -0.0387   0.0357   0.0449   0.0711
     0.0946   0.1468   0.2231   0.2419   0.2429   0.3757   0.3794   0.4436
     0.5006   0.5438   0.5523   0.5729   0.5932   0.6306   0.6361   0.6907
     0.6987   0.7422   0.7472   0.8006   0.8496   0.8570   0.9022   0.9056
     0.9197   0.9213   1.0002   1.1012   1.1170   1.1790   1.1915   1.1994
     1.2037   1.2916   1.3055   1.3104   1.3996   1.4047   1.4088   1.4361
     1.4848   1.5047   1.5066   1.5169   1.6334   1.6427   1.6555   1.6671
     1.6704   1.6750   1.6922   1.7108   1.8646   1.9039   1.9091   1.9127
     1.9226   2.1028   2.1366   2.5189   2.5417   2.5819   2.8418   2.9529
     2.9554   3.3504   3.3539   3.5565   3.6895   4.1639   4.1678   4.1828
     4.3369   4.4315   4.4452   4.5801   4.6394   4.8308   4.8368   5.4636
     5.4799   5.9834   5.9981   6.2943   6.4640   6.5058   6.8113   6.9188

          k = 0.4000-0.0000 0.0000 ( 92554 PWs)   bands (ev):

   -20.0892 -18.5739 -11.2428  -9.2458  -6.7123  -6.4987  -5.5052  -5.4846
    -5.4601  -5.3681  -5.1681  -4.4073  -4.4036  -4.3780  -4.3748  -4.3340
    -4.3284  -4.3255  -4.3105  -4.2163  -4.2130  -3.8339  -3.8266  -3.8213
    -3.8206  -3.7893  -3.7528  -3.7352  -3.5933  -3.5719  -3.5667  -3.5433
    -3.5410  -3.4744  -3.4430  -3.4175  -3.4134  -3.3793  -3.3727  -3.3340
    -3.2908  -3.2770  -3.2448  -3.2395  -3.1673  -2.8986  -2.8000  -2.7961
    -2.7804  -2.7604  -2.7565  -2.7444  -2.7428  -2.6866  -2.6737  -2.5434
    -2.5101  -2.5079  -2.4439  -2.4211  -2.3935  -2.3438  -2.3390  -2.3159
    -2.2412  -2.2399  -2.0686  -2.0627  -2.0489  -1.9695  -1.9656  -1.9340
    -1.9320  -1.9248  -1.8578  -1.8510  -1.7032  -1.6807  -1.6785  -1.6716
    -1.6116  -1.6077  -1.5499  -1.5438  -1.5384  -1.5326  -1.4128  -1.3823
    -1.3752  -1.3633  -1.3592  -1.3537  -1.3431  -1.3094  -1.2989  -1.2650
    -1.2191  -1.2151  -1.1937  -1.1474  -1.1230  -1.1188  -1.0584  -1.0382
    -1.0023  -0.9969  -0.9872  -0.9479  -0.9455  -0.9370  -0.9228  -0.9078
    -0.8992  -0.8865  -0.8645  -0.8278  -0.8190  -0.7206  -0.6834  -0.6776
    -0.6172  -0.6038  -0.5988  -0.5723  -0.4672  -0.4129  -0.4002  -0.2718
    -0.2516  -0.2237  -0.2143  -0.1987  -0.1883  -0.1718  -0.1372  -0.1292
    -0.1101  -0.0876  -0.0481  -0.0112   0.0189   0.1014   0.1799   0.1944
     0.2243   0.2337   0.2527   0.2857   0.3013   0.4242   0.4285   0.4341
     0.4843   0.4866   0.5608   0.6152   0.6328   0.6449   0.6515   0.7196
     0.7228   0.7276   0.7387   0.7511   0.7634   0.7705   0.7814   0.7989
     0.9187   0.9810   0.9880   1.1190   1.1213   1.1516   1.2851   1.2889
     1.2937   1.3116   1.4019   1.4214   1.4387   1.4426   1.4512   1.4806
     1.4881   1.5064   1.5113   1.5232   1.5689   1.5746   1.5986   1.6640
     1.6875   1.6924   1.7228   1.7267   1.7698   1.9043   1.9550   1.9570
     2.0295   2.0395   2.0425   2.0823   2.1860   2.1958   2.6525   2.7165
     2.7235   3.2520   3.2593   3.2837   3.3090   3.9566   3.9807   4.1000
     4.1772   4.2223   4.2582   4.8833   5.3660   5.4161   5.4428   5.6074
     6.0464   6.0778   6.1573   6.1795   6.1920   6.2134   6.3546   6.6107

          k = 0.4000 0.2309 0.0000 ( 92574 PWs)   bands (ev):

   -20.0892 -18.5739 -11.2429  -9.2457  -6.5795  -6.4941  -5.9362  -5.4542
    -5.2743  -5.1678  -4.8672  -4.8665  -4.7231  -4.5017  -4.3469  -4.2180
    -4.1816  -4.1430  -4.1418  -3.9729  -3.9560  -3.9279  -3.9220  -3.9150
    -3.7997  -3.7829  -3.7611  -3.7580  -3.7083  -3.7059  -3.6484  -3.6255
    -3.5705  -3.5699  -3.5404  -3.4305  -3.2984  -3.2974  -3.2829  -3.2821
    -3.2777  -3.2729  -3.0529  -3.0494  -2.9973  -2.9963  -2.9853  -2.9805
    -2.8036  -2.7045  -2.6998  -2.6891  -2.6863  -2.6333  -2.6243  -2.5720
    -2.5625  -2.5539  -2.5060  -2.4799  -2.4393  -2.3488  -2.3420  -2.3001
    -2.2921  -2.1996  -2.1631  -2.1201  -2.1167  -2.1154  -1.9758  -1.8997
    -1.8946  -1.8781  -1.8729  -1.7928  -1.7811  -1.7652  -1.6538  -1.6487
    -1.6401  -1.6247  -1.5165  -1.5098  -1.5068  -1.5031  -1.5012  -1.4303
    -1.4143  -1.4119  -1.4039  -1.3834  -1.3781  -1.3731  -1.3675  -1.3312
    -1.2744  -1.2514  -1.2405  -1.2236  -1.2129  -1.1909  -1.1721  -1.1059
    -1.0768  -1.0153  -0.9823  -0.9645  -0.9418  -0.9353  -0.9088  -0.8994
    -0.8724  -0.7672  -0.7625  -0.7438  -0.6943  -0.6829  -0.6388  -0.5287
    -0.5022  -0.4898  -0.4556  -0.4162  -0.3370  -0.3287  -0.3187  -0.2998
    -0.2952  -0.2920  -0.2816  -0.2016  -0.1901  -0.1741  -0.1632  -0.1506
    -0.1413  -0.1297  -0.1084  -0.0748  -0.0379   0.0279   0.0443   0.0740
     0.1007   0.1473   0.2209   0.2413   0.2427   0.3755   0.3779   0.4449
     0.5001   0.5441   0.5504   0.5733   0.5934   0.6315   0.6357   0.6881
     0.6977   0.7420   0.7474   0.8011   0.8500   0.8591   0.9033   0.9052
     0.9194   0.9201   1.0034   1.0964   1.1125   1.1797   1.1932   1.1994
     1.2033   1.2933   1.3064   1.3096   1.3990   1.4041   1.4077   1.4354
     1.4877   1.5046   1.5061   1.5169   1.6331   1.6419   1.6558   1.6665
     1.6703   1.6751   1.6930   1.7144   1.8647   1.9046   1.9094   1.9125
     1.9227   2.1027   2.1365   2.5104   2.5411   2.5802   2.8453   2.9531
     2.9549   3.3500   3.3557   3.5573   3.6882   4.1643   4.1670   4.1830
     4.3252   4.4320   4.4542   4.5643   4.6529   4.8300   4.8379   5.4567
     5.4745   5.9835   6.0039   6.2971   6.4551   6.5104   6.7569   6.9341

          k = 0.4000-0.6928 0.0000 ( 92546 PWs)   bands (ev):

   -20.0892 -18.5739 -11.2428  -9.2457  -6.5036  -6.1767  -6.1686  -5.5711
    -5.4378  -5.1794  -4.9188  -4.8989  -4.4027  -4.3970  -4.2662  -4.2320
    -4.1246  -4.1206  -4.0173  -4.0124  -3.8972  -3.8912  -3.8841  -3.8534
    -3.8451  -3.8315  -3.8210  -3.7839  -3.6927  -3.6815  -3.6784  -3.6387
    -3.6360  -3.5398  -3.4495  -3.4410  -3.4210  -3.3517  -3.2669  -3.2664
    -3.2521  -3.2487  -3.2301  -3.1247  -3.1210  -3.0281  -3.0223  -2.8500
    -2.8409  -2.7856  -2.6950  -2.6847  -2.6353  -2.6332  -2.5249  -2.4866
    -2.4686  -2.4262  -2.4143  -2.3986  -2.3599  -2.3541  -2.3260  -2.2246
    -2.2190  -2.1936  -2.1909  -2.1842  -2.1811  -2.1738  -2.1121  -2.1013
    -1.9813  -1.9542  -1.9088  -1.9007  -1.7891  -1.7512  -1.7481  -1.7450
    -1.6992  -1.6584  -1.6569  -1.5770  -1.5498  -1.5470  -1.5358  -1.5063
    -1.4809  -1.4309  -1.4226  -1.3822  -1.3502  -1.3274  -1.3189  -1.3062
    -1.2104  -1.1915  -1.1434  -1.1415  -1.1037  -1.0999  -1.0587  -1.0524
    -1.0462  -1.0334  -1.0090  -1.0062  -0.9626  -0.9517  -0.9259  -0.9145
    -0.9067  -0.9043  -0.8906  -0.8870  -0.8594  -0.7976  -0.7956  -0.7729
    -0.5844  -0.5726  -0.4917  -0.4761  -0.4718  -0.3707  -0.3617  -0.3546
    -0.3303  -0.2775  -0.2685  -0.2651  -0.2465  -0.2286  -0.1574  -0.1298
    -0.1244  -0.0589  -0.0430  -0.0159  -0.0007   0.0332   0.0503   0.1139
     0.2230   0.2807   0.2890   0.3085   0.3145   0.3975   0.4030   0.4106
     0.4293   0.4410   0.4659   0.4855   0.4969   0.6051   0.6082   0.6245
     0.6698   0.6746   0.6914   0.7075   0.7174   0.7427   0.8784   0.9316
     0.9631   1.0365   1.0507   1.1219   1.1255   1.2059   1.2501   1.2566
     1.2677   1.3612   1.3789   1.4358   1.4667   1.4775   1.4852   1.4946
     1.5272   1.5433   1.5799   1.6448   1.6455   1.6703   1.6942   1.6971
     1.7017   1.7392   1.7711   1.9018   1.9070   1.9097   1.9148   1.9228
     1.9879   2.0650   2.1021   2.2392   3.0605   3.0618   3.2759   3.3037
     3.3741   3.4583   3.4638   3.4743   3.9194   4.0705   4.0741   4.5220
     4.5499   4.5658   4.6727   4.6759   4.8899   4.9710   5.0390   5.1146
     5.4155   5.5044   5.5137   6.0215   6.1521   6.1542   6.4765   6.5124

          k = 0.4000-0.4619 0.0000 ( 92546 PWs)   bands (ev):

   -20.0892 -18.5739 -11.2428  -9.2458  -6.5037  -6.1763  -6.1694  -5.5697
    -5.4390  -5.1811  -4.9197  -4.8946  -4.4029  -4.3969  -4.2662  -4.2320
    -4.1246  -4.1206  -4.0172  -4.0125  -3.9028  -3.8907  -3.8848  -3.8529
    -3.8484  -3.8429  -3.8158  -3.7629  -3.6953  -3.6816  -3.6783  -3.6387
    -3.6360  -3.5406  -3.4658  -3.4277  -3.4143  -3.3561  -3.2673  -3.2659
    -3.2517  -3.2493  -3.2312  -3.1243  -3.1221  -3.0278  -3.0228  -2.8515
    -2.8410  -2.7865  -2.6923  -2.6850  -2.6362  -2.6300  -2.5308  -2.4836
    -2.4676  -2.4259  -2.4162  -2.3972  -2.3601  -2.3540  -2.3253  -2.2246
    -2.2207  -2.1927  -2.1908  -2.1839  -2.1798  -2.1770  -2.1109  -2.1024
    -1.9807  -1.9552  -1.9080  -1.9003  -1.7888  -1.7527  -1.7494  -1.7447
    -1.7004  -1.6596  -1.6567  -1.5811  -1.5503  -1.5467  -1.5356  -1.5118
    -1.4823  -1.4302  -1.4245  -1.3811  -1.3322  -1.3276  -1.3196  -1.3069
    -1.2028  -1.1928  -1.1437  -1.1392  -1.1043  -1.0985  -1.0590  -1.0553
    -1.0443  -1.0370  -1.0089  -1.0044  -0.9615  -0.9593  -0.9257  -0.9137
    -0.9059  -0.9041  -0.8948  -0.8742  -0.8560  -0.7963  -0.7934  -0.7899
    -0.5848  -0.5664  -0.4986  -0.4775  -0.4736  -0.3707  -0.3628  -0.3535
    -0.3313  -0.2764  -0.2683  -0.2620  -0.2488  -0.2265  -0.1612  -0.1304
    -0.1250  -0.0607  -0.0505  -0.0118   0.0047   0.0367   0.0509   0.1179
     0.2225   0.2788   0.2893   0.3082   0.3118   0.3963   0.4075   0.4119
     0.4288   0.4387   0.4651   0.4847   0.4950   0.6010   0.6096   0.6255
     0.6693   0.6753   0.6919   0.7080   0.7165   0.7432   0.8790   0.9307
     0.9667   1.0349   1.0490   1.1213   1.1265   1.2076   1.2490   1.2574
     1.2730   1.3610   1.3779   1.4354   1.4670   1.4776   1.4858   1.4979
     1.5258   1.5447   1.5761   1.6440   1.6461   1.6712   1.6936   1.6964
     1.7018   1.7386   1.7685   1.9015   1.9061   1.9101   1.9149   1.9222
     1.9871   2.0691   2.1023   2.2387   3.0607   3.0617   3.2627   3.3172
     3.3780   3.4589   3.4663   3.4713   3.9194   4.0706   4.0738   4.5275
     4.5471   4.5631   4.6721   4.6741   4.8895   4.9717   5.0226   5.1476
     5.4151   5.5028   5.5141   6.0014   6.1521   6.1531   6.4754   6.4964

     the Fermi energy is     1.6791 ev

!    total energy              =  -27884.58306504 Ry

     total all-electron energy =  -1327104.570444 Ry
     estimated scf accuracy    <       0.00000061 Ry
     smearing contrib. (-TS)   =       0.00186281 Ry
     internal energy E=F+TS    =  -27884.58492785 Ry

     The total energy is F=E-TS. E is the sum of the following terms:
     one-electron contribution =  -29021.46625994 Ry
     hartree contribution      =   14817.78238468 Ry
     xc contribution           =    -919.72345001 Ry
     ewald contribution        =   12746.13654329 Ry
     one-center paw contrib.   =  -25507.31414586 Ry

     convergence has been achieved in  22 iterations

     negative rho (up, down):  1.267E-02 0.000E+00

     Forces acting on atoms (cartesian axes, Ry/au):

     atom    1 type  1   force =    -0.00008452    0.00003264   -0.00525309
     atom    2 type  1   force =    -0.00035679    0.00017907   -0.00319402
     atom    3 type  1   force =     0.00034598    0.00007090   -0.00312699
     atom    4 type  1   force =    -0.00003893   -0.00022391   -0.00320465
     atom    5 type  1   force =    -0.00010182    0.00006871   -0.00355876
     atom    6 type  1   force =     0.00010278   -0.00027458   -0.00324992
     atom    7 type  1   force =     0.00023501    0.00025902   -0.00316852
     atom    8 type  1   force =    -0.00034151    0.00026731   -0.00325140
     atom    9 type  1   force =     0.00003676   -0.00002058   -0.00333570
     atom   10 type  1   force =     0.00100291    0.00038572    0.00308232
     atom   11 type  1   force =    -0.00000704    0.00085865    0.00375348
     atom   12 type  1   force =    -0.00102260    0.00041991    0.00236895
     atom   13 type  1   force =     0.00085145   -0.00037350    0.00436236
     atom   14 type  1   force =    -0.00065953   -0.00040803    0.00389529
     atom   15 type  1   force =    -0.00002301    0.00052104    0.00228338
     atom   16 type  1   force =    -0.00008971   -0.00124453    0.00426699
     atom   17 type  1   force =     0.00035027   -0.00009286    0.00245779
     atom   18 type  1   force =    -0.00025395   -0.00005697    0.00248760
     atom   19 type  1   force =     0.00004540    0.00030814    0.00045371
     atom   20 type  1   force =    -0.00008456   -0.00004741   -0.00053042
     atom   21 type  1   force =     0.00008805   -0.00009053   -0.00037184
     atom   22 type  1   force =    -0.00010064   -0.00007167    0.00005898
     atom   23 type  1   force =    -0.00003829    0.00003037   -0.00043617
     atom   24 type  1   force =     0.00008833   -0.00003847    0.00011910
     atom   25 type  1   force =    -0.00029887   -0.00007257    0.00036278
     atom   26 type  1   force =     0.00029709   -0.00003154    0.00041171
     atom   27 type  1   force =    -0.00001454    0.00000162    0.00017750
     atom   28 type  1   force =     0.00005345    0.00009859   -0.00027396
     atom   29 type  1   force =     0.00012981    0.00011479    0.00056618
     atom   30 type  1   force =    -0.00014153    0.00014912    0.00058708
     atom   31 type  1   force =     0.00019884    0.00001075    0.00061773
     atom   32 type  1   force =    -0.00002944   -0.00018358    0.00072443
     atom   33 type  1   force =    -0.00016292    0.00001574    0.00056510
     atom   34 type  1   force =    -0.00001725   -0.00020223    0.00083332
     atom   35 type  1   force =     0.00013658   -0.00017994    0.00077770
     atom   36 type  1   force =    -0.00001071   -0.00006267   -0.00014415
     atom   37 type  2   force =     0.00129204    0.00126380    0.00404501
     atom   38 type  2   force =     0.00002727   -0.00132979    0.00287199
     atom   39 type  3   force =    -0.00068236    0.00094967   -0.00066384
     atom   40 type  4   force =     0.00105421    0.00057909    0.00069140
     atom   41 type  4   force =    -0.00048218   -0.00034965   -0.00059916
     atom   42 type  4   force =     0.00035576    0.00040786    0.00002227
     atom   43 type  4   force =    -0.00150840    0.00049771    0.00046585
     atom   44 type  4   force =     0.00033869    0.00046315   -0.00014205
     atom   45 type  4   force =    -0.00003776    0.00010312    0.00051804
     atom   46 type  3   force =    -0.00044184   -0.00270147   -0.00932338

     Total force =     0.011715     Total SCF correction =     0.002011
     SCF correction compared to forces is large: reduce conv_thr to get better values

     negative rho (up, down):  1.267E-02 0.000E+00

     negative rho (up, down):  1.267E-02 0.000E+00

     negative rho (up, down):  1.267E-02 0.000E+00

     negative rho (up, down):  1.267E-02 0.000E+00

     negative rho (up, down):  1.267E-02 0.000E+00

     negative rho (up, down):  1.267E-02 0.000E+00

     negative rho (up, down):  1.267E-02 0.000E+00

     negative rho (up, down):  1.267E-02 0.000E+00

     negative rho (up, down):  1.267E-02 0.000E+00

     negative rho (up, down):  1.267E-02 0.000E+00

     negative rho (up, down):  1.267E-02 0.000E+00

     negative rho (up, down):  1.267E-02 0.000E+00

     negative rho (up, down):  1.267E-02 0.000E+00

     negative rho (up, down):  1.267E-02 0.000E+00

     negative rho (up, down):  1.267E-02 0.000E+00

     negative rho (up, down):  1.267E-02 0.000E+00

     negative rho (up, down):  1.267E-02 0.000E+00

     negative rho (up, down):  1.267E-02 0.000E+00

     negative rho (up, down):  1.267E-02 0.000E+00

     negative rho (up, down):  1.267E-02 0.000E+00

     negative rho (up, down):  1.267E-02 0.000E+00

     negative rho (up, down):  1.267E-02 0.000E+00

     negative rho (up, down):  1.267E-02 0.000E+00

     negative rho (up, down):  1.267E-02 0.000E+00

     negative rho (up, down):  1.267E-02 0.000E+00

     negative rho (up, down):  1.267E-02 0.000E+00

     negative rho (up, down):  1.267E-02 0.000E+00

     negative rho (up, down):  1.267E-02 0.000E+00

     negative rho (up, down):  1.267E-02 0.000E+00

     negative rho (up, down):  1.267E-02 0.000E+00

     negative rho (up, down):  1.267E-02 0.000E+00

     negative rho (up, down):  1.267E-02 0.000E+00

     negative rho (up, down):  1.267E-02 0.000E+00

     negative rho (up, down):  1.267E-02 0.000E+00
 BEEFens 2000 ensemble energies
             -0.616376360457711E+02
             -0.365099881360297E+01
             -0.160312095589260E+02
              0.436207755357421E+02
             -0.224419602992278E+02
             -0.207839266719732E+02
             -0.359686684556874E+02
             -0.879616189200999E+02
             -0.470755509889553E+02
             -0.478758846708595E+02
             -0.374760800463040E+02
              0.238427547505500E+01
              0.410364078938724E+01
              0.755845782095861E+01
              0.271957935512145E+01
              0.482094577578340E+02
             -0.211998518096715E+02
             -0.231921911336975E+02
              0.195950505396066E+02
             -0.114094875948980E+03
              0.545127239374495E+02
             -0.292714004779170E+02
             -0.343715988495962E+01
             -0.115708729465769E+02
             -0.879978657628249E+01
             -0.472412166912278E+01
              0.896223366155201E+02
             -0.190642203487217E+02
             -0.914403252037118E+01
             -0.526809632884474E+02
              0.826082287689533E+02
             -0.188112364420858E+02
             -0.381161640521615E+02
              0.252246241428301E+02
             -0.289527233946643E+01
              0.168003492070531E+02
             -0.484414665796413E+01
              0.108336757521176E+02
              0.293483951418729E+02
             -0.104812855286285E+03
              0.566898713535078E+02
              0.144308284030076E+02
             -0.190007436252284E+01
             -0.366237908745723E+02
              0.124919480158939E+02
             -0.149762368827364E+02
              0.405867236444045E+02
              0.370283413739003E+02
             -0.311192590003818E+02
             -0.279641147941626E+02
             -0.332696987019053E+02
             -0.357739639591717E+02
              0.139271946029349E+02
             -0.498883258821877E+02
              0.118161993531094E+02
              0.632498722617000E+02
              0.646723454477233E+02
              0.360936404309763E+02
              0.156835045232422E+02
              0.275462886235881E+02
              0.905434437823592E+02
              0.215207588653577E+02
             -0.557081351749780E+02
             -0.158659330316275E+02
             -0.240231961779951E+02
              0.639179470120941E+02
             -0.784759233070234E+02
             -0.680658319820558E+02
             -0.264445911455457E+02
             -0.676694883034213E+01
             -0.476853765788929E+02
              0.274896070443920E+02
              0.819367044973581E+01
              0.891460283255748E+01
             -0.403091271267512E+02
             -0.352240767397952E+02
             -0.550860559150505E+02
              0.395225857306577E+02
             -0.301250880814969E+02
              0.269962529369427E+02
             -0.727388222066068E+01
             -0.322264122157970E+02
             -0.584192010874297E+02
             -0.178775366511034E+02
             -0.927258010788228E+01
             -0.127138084154093E+02
              0.418329757933073E+02
              0.694541166902471E+02
             -0.392577882053981E+02
             -0.806972824989351E+02
             -0.222444436711037E+02
              0.113183338315337E+03
             -0.601074031203134E+02
              0.360719797864111E+02
             -0.975407744442111E+01
             -0.672277221049345E+02
              0.258525369421902E+02
              0.403026503010657E+02
             -0.200966853884340E+02
              0.404596167616409E+02
             -0.299589080924954E+02
             -0.487308373139545E+02
              0.880704125787631E+02
              0.460851234319244E+02
              0.340182367575675E+02
              0.148340893825062E+02
              0.209348977671687E+02
              0.868827961714526E+02
             -0.260854384036208E+02
              0.793032311054603E+01
             -0.144498445749786E+03
              0.183995567579169E+02
             -0.726209203038266E+02
              0.153009243570070E+02
              0.208003283530882E+02
             -0.338511832028630E+02
             -0.564884101430920E+02
              0.655914096964295E+01
             -0.308667092421388E+02
              0.314434771073867E+02
             -0.536967168315469E+02
              0.161002654033928E+01
             -0.362615641558141E+02
             -0.429332227851751E+01
             -0.100400190475298E+01
              0.184435490483737E+02
              0.140405700859060E+01
             -0.660935186052529E+01
              0.600474057996353E+02
              0.922302449022427E+02
              0.491537411498895E+02
              0.840739608567825E+02
             -0.117239518011312E+02
              0.144262980772275E+02
              0.549361070209894E+02
             -0.110554769221291E+02
             -0.747722656114005E+02
             -0.390621478829740E+02
             -0.529151477045926E+02
             -0.281234430115646E+02
              0.331014992560316E+02
             -0.118611675936400E+03
             -0.189243741485795E+02
              0.420928957593443E+02
             -0.392093109457159E+02
             -0.369785818687260E+02
              0.552866394963322E+02
              0.407994774878939E+02
             -0.358593780127988E+02
              0.142328637001642E+02
             -0.277097225782422E+02
              0.348853196958772E+02
              0.454690014528501E+01
              0.212752776983087E+02
             -0.897482389575440E+02
             -0.487543623727961E+02
             -0.101093000193587E+02
              0.316703586377058E+01
             -0.373389006827736E+02
              0.107677305372483E+03
             -0.233224733738958E+02
             -0.402949714491362E+02
              0.394795524177421E+02
             -0.501132871990892E+02
             -0.368739559923968E+02
              0.329499533739050E+02
              0.126221664529267E+02
              0.166401557247946E+02
              0.118799153064837E+02
             -0.134410699523453E+02
              0.226984670293321E+02
              0.599122659809387E+02
             -0.315945501831250E+02
              0.165567241168233E+02
              0.948154724198135E+02
              0.345557278373009E+02
             -0.739352610139372E+01
             -0.191543120658891E+02
              0.155719752594710E+03
             -0.167575517264054E+02
              0.368955735991596E+02
              0.198906145337361E+02
              0.366005397536186E+02
              0.906004843140840E+02
              0.549849381325087E+02
             -0.247700398107041E+01
              0.231453222742947E+02
              0.492397427611013E+02
              0.369526401934985E+02
             -0.535067574767319E+02
              0.950225478120905E+02
             -0.838925700565748E+02
             -0.199868538821611E+02
              0.591354588566167E+02
              0.698553649893167E+01
              0.795194343060928E+01
              0.345276736985696E+02
              0.301614292187858E+02
              0.358930252460380E+02
             -0.647055838093036E+02
              0.291990841012989E+01
             -0.301224450898623E+02
             -0.880739008687276E+01
             -0.148477021490260E+01
             -0.740886067319608E+01
             -0.424910550231078E+01
              0.872063366576178E+02
             -0.101929088492371E+02
             -0.280704758478890E+02
             -0.498001957655820E+01
              0.141886763942720E+02
             -0.573474477481797E+02
             -0.415372980854145E+02
             -0.387204540503973E+02
             -0.639667144655978E+02
             -0.172302891036627E+02
             -0.453592654413092E+02
              0.166394716399455E+02
             -0.236653601441746E+01
             -0.106509904582391E+02
             -0.947034444297228E+01
              0.815530515256370E+01
             -0.244889572602934E+02
              0.699224925115436E+02
             -0.820570449331699E+02
             -0.143289554426346E+02
             -0.176147635426255E+02
              0.184331477118052E+02
              0.217381847829501E+02
             -0.471083402129561E+02
             -0.203784574053824E+02
              0.447682464979625E+02
             -0.279171463022465E+02
              0.189037327349826E+02
              0.388110814671351E+02
             -0.323618902298676E+01
              0.115860749962924E+03
             -0.231862292215646E+02
             -0.346012502781233E+02
              0.582507072535026E+01
             -0.232247389096722E+02
              0.535821598389144E+02
             -0.344168328410960E+02
              0.108163397332407E+02
              0.648711560076746E+02
             -0.128548085531632E+02
              0.122031528322230E+03
              0.127841954603082E+03
             -0.660305507604296E+02
              0.599261872290508E+02
              0.169806120838393E+02
             -0.526355566890173E+02
              0.218700552327427E+02
              0.360316966666578E+02
              0.369674725001992E+02
              0.140103691171768E+01
              0.161926314344319E+02
              0.707287740770810E+02
             -0.250362020197518E+02
              0.182978839593981E+02
              0.749830858160457E+02
             -0.378134054468695E+02
             -0.133133828033991E+02
              0.517372307591075E+02
              0.301816091002568E+02
              0.791711668646624E+02
              0.227686478591032E+02
              0.644771405375695E+01
              0.284306908891629E+02
              0.389656801132193E+02
             -0.479767737537065E+02
              0.342830233524575E+01
              0.133765686795174E+02
              0.115427992498998E+02
              0.224128728287011E+02
             -0.584295086033127E+02
              0.370718467935019E+02
             -0.450361621679251E+02
             -0.352158935522496E+02
              0.180970945712569E+02
             -0.182864332184438E+02
              0.563792162690968E+02
             -0.258442005086648E+02
              0.271385367986463E+02
              0.372484931152678E+02
              0.840895786228482E+02
              0.582719240582432E+02
              0.469654323844437E+02
             -0.106205647567248E+02
             -0.405902538453250E+01
             -0.336875188425718E+02
              0.762933210747395E+02
              0.809439174124075E+02
              0.367942447777089E+02
             -0.196240001844449E+02
              0.519224902642459E+02
             -0.163003509559649E+02
              0.217636685599189E+02
              0.624785456758698E+02
              0.209008987978982E+01
             -0.105865073720875E+02
             -0.285984449838996E+02
             -0.520808819421035E+02
              0.960105825815672E+02
              0.447555494083878E+02
             -0.568618032255674E+02
             -0.995268044672284E+01
              0.253962013508312E+02
             -0.101458470687376E+02
              0.602036802820160E+02
              0.154210735792435E+02
              0.811217279326316E+02
              0.284400217842979E+02
             -0.267559119722648E+02
              0.251820649286217E+02
             -0.511308100303683E+01
             -0.327550841288464E+02
              0.135784995973184E+02
              0.207973349280838E+02
              0.946554338519955E+02
              0.809129350454727E+02
              0.559508423191489E+02
              0.740637432577626E+02
              0.811984685408115E+01
             -0.277591211673094E+02
              0.165089537007977E+02
             -0.373038271652666E+02
             -0.484880029397169E+02
             -0.572447113021361E+02
             -0.271400616380713E+02
             -0.111338184492149E+03
             -0.296887459608765E+02
             -0.850657089253059E+02
              0.213320515546896E+02
             -0.484004565535074E+02
              0.404211894707798E+02
             -0.956445455619806E+02
             -0.334587423907180E+02
              0.554646551330556E+02
              0.210900949100258E+02
             -0.844347886665824E+02
              0.639146190891612E+02
             -0.261100368312077E+02
              0.520818783836000E+02
             -0.246753567504250E+02
             -0.763626634479332E+02
              0.114480672614642E+02
             -0.621524736061305E+02
             -0.169018502615426E+02
             -0.149804021480567E+01
              0.424693215418645E+02
              0.128913117866688E+03
             -0.468320421489579E+02
             -0.368097139841759E+02
             -0.105081068279230E+01
             -0.132016231057411E+02
             -0.834718080129900E+02
             -0.605372604015404E+02
              0.524644254326377E+02
             -0.292074406822137E+02
              0.172284924818731E+02
             -0.496819988768491E+02
             -0.134404285112924E+02
             -0.443376959571910E+02
              0.572923066057170E+02
              0.152818593455654E+02
             -0.235154465438733E+02
             -0.129529531721352E+02
              0.686715441256192E+01
             -0.633403392599928E+01
              0.447909595793710E+02
             -0.255965975663354E+02
              0.295155259383966E+01
              0.344591475711494E+02
              0.173273980209053E+02
             -0.163337564109332E+02
              0.158611887827562E+03
              0.546984936566189E+02
              0.129684512539652E+01
              0.162297422635513E+02
             -0.624319672857966E+02
              0.319863831309015E+02
             -0.733586642737308E+02
             -0.256982059752598E+02
             -0.531576172990231E+02
             -0.222712572985107E+02
              0.578003603497694E+02
             -0.545948971634298E+02
              0.164733804623581E+02
             -0.413867278322823E+01
              0.389499325993694E+01
             -0.438685058971857E+02
             -0.484558577091680E+02
             -0.405911199207605E+01
             -0.430400569760136E+02
             -0.220661752191850E+02
             -0.444500124172076E+02
             -0.120331734021677E+02
             -0.364080020498672E+02
             -0.524178294653136E+02
              0.216320382321904E+02
             -0.211357501603234E+02
              0.191377550562572E+02
              0.990336872826124E+01
             -0.749577318276975E+02
             -0.556073239372454E+02
             -0.405493238638709E+02
              0.359552657999329E+02
              0.262716789280671E+01
             -0.636358941812753E+02
              0.594468229057241E+02
             -0.407564443506082E+02
              0.553582954844813E+02
             -0.294537150370544E+02
             -0.453597249491265E+02
              0.302043640137632E+02
             -0.668624046155267E+02
             -0.385220507451600E+02
              0.681892176481217E+02
              0.206930571824445E+02
             -0.366928539719588E+02
              0.498106867156244E+02
             -0.176777851857818E+02
             -0.328913013190812E+02
             -0.306548467736660E+02
             -0.508399647227885E+02
              0.253274545851509E+02
             -0.946431741733496E+02
             -0.852237548052728E+02
             -0.749518313023771E+01
             -0.311186466754252E+02
             -0.584704626325521E+02
              0.733227430754422E+02
              0.133609259994236E+03
             -0.364824784235478E+02
             -0.259784479134305E+01
             -0.646594445005780E+02
              0.660464113877400E+02
              0.174205274391680E+02
             -0.185143407985973E+02
             -0.415589005243208E+02
              0.151077040079135E+02
             -0.595437321894317E+02
             -0.200077932288291E+02
             -0.918109402783568E+02
              0.342520548013598E+02
              0.170717272941478E+02
              0.177226071508471E+01
             -0.720678037473419E+01
             -0.336075983582512E+02
             -0.776704470315360E+01
              0.127599581331535E+03
             -0.201357996184430E+02
             -0.445052709503251E+02
             -0.694384975871706E+02
              0.111488328709901E+02
             -0.347974675347460E+02
              0.607264552121337E+01
              0.266589611773818E+02
              0.102835950387204E+02
              0.283186591396901E+02
              0.122413247319757E+02
              0.638395814703521E+02
              0.320835687129193E+02
             -0.332077651980074E+02
              0.363696029710823E+02
              0.384725385756908E+02
              0.122737529662501E+02
              0.493101928386494E+02
             -0.229309679069252E+02
              0.776588169825364E+02
              0.176004977093344E+02
             -0.277366206384454E+02
             -0.733027795057535E+01
             -0.189134998754049E+02
              0.264511556499342E+02
             -0.238461210908108E+02
             -0.275674044108655E+00
             -0.871744810479390E+01
              0.822070050204148E+02
              0.508987835552783E+02
             -0.697207609917477E+02
             -0.487571030662033E+01
             -0.563279722610225E+02
             -0.161553924145220E+02
             -0.271657345940384E+02
              0.393324403492261E+01
              0.540913100142024E+00
             -0.261966207990559E+02
              0.839576566674876E+01
             -0.615477679421289E+01
             -0.129852020358983E+02
              0.872248155325124E+02
              0.184278213496261E+02
             -0.819664491722167E+02
             -0.464419722459420E+02
              0.959486060236632E+02
              0.281718075455632E+02
             -0.107973314220546E+02
              0.106266030774191E+03
             -0.197384224974186E+02
             -0.124289336180418E+02
             -0.554268230677746E+01
              0.110028760900952E+02
              0.277293956082979E+02
              0.783438428417043E+01
              0.309572652336664E+02
             -0.189623057390635E+02
             -0.309534301770126E+02
             -0.424074657454540E+02
             -0.484492908952761E+02
              0.470256699426111E+02
              0.128989172396110E+02
              0.393507686176051E+02
              0.135889173821562E+02
              0.869503177802082E+02
              0.159425555575419E+02
             -0.857807013651257E+02
             -0.339620467637735E+02
              0.134480159576974E+02
             -0.307008111599842E+02
              0.636245249547138E+02
             -0.913821901739880E+01
              0.151503622363199E+02
              0.505573937619684E+02
             -0.719492190096407E+02
              0.152016587705387E+03
              0.211744431789530E+02
              0.274791119985576E+02
              0.353431415172506E+02
              0.104826312468242E+02
             -0.157657077548805E+01
              0.363535808258958E+02
             -0.362708637666951E+02
              0.786473514956654E+02
              0.696421502762161E+02
             -0.412320217498711E+02
              0.152380311486364E+02
              0.681361227266519E+02
             -0.227221920792667E+02
              0.157118191507973E+02
              0.440650298677301E+02
              0.428702151029036E+02
             -0.796679023703616E+02
             -0.154020982008764E+02
             -0.360802912626076E+02
             -0.158987323128781E+01
             -0.775824479330011E+01
             -0.535632557206418E+01
             -0.182782699228888E+02
             -0.298745021327966E+02
              0.657552804008168E+01
              0.112863378997505E+02
              0.544008997792195E+02
             -0.397322864288871E+02
              0.381335888132278E+02
              0.445996177842552E+02
             -0.188348445670165E+02
              0.884573183600042E+02
             -0.708199107668690E+02
             -0.104786670361901E+03
             -0.669589560622329E+01
             -0.284055429408056E+01
              0.384307124157647E+01
              0.801549089301462E+02
             -0.107450404714216E+02
              0.423240817310831E+02
              0.452518756101259E+02
              0.391077999002093E+02
             -0.100504963850665E+02
              0.636791350731941E+02
             -0.136269638754602E+02
             -0.313336990599684E+02
             -0.485632632036335E+02
              0.602227269124150E+01
              0.375333095835911E+02
             -0.606107589097627E+01
              0.398272030391531E+02
             -0.173990527933091E+01
              0.664186433762451E+02
              0.190150919559907E+02
              0.100982108074761E+02
             -0.121666845569049E+02
              0.337007402189543E+02
              0.368759166666749E+02
              0.235079682309575E+02
             -0.552853654130416E+00
             -0.558866252911987E+02
              0.265489874490147E+02
              0.178382425302648E+02
              0.407885381218312E+02
              0.277138193524460E+02
              0.377853663732031E+02
             -0.615964047920789E+01
              0.256212308046882E+02
             -0.302569929159881E+02
             -0.201051927814444E+01
             -0.577401346028256E+02
             -0.313013439208182E+02
              0.385295289219228E+02
             -0.949323840792689E+02
              0.298443583131926E+02
              0.186236073509222E+02
              0.853250005814822E+02
             -0.303075427061484E+02
              0.334377057685951E+02
             -0.139325691392622E+02
             -0.471612298907214E+02
             -0.771785719231624E+02
             -0.547144584524931E+01
             -0.874086490946615E+02
              0.201152888254835E+02
             -0.250687827599787E+02
              0.310710467127155E+02
              0.240178640407802E+02
             -0.245657088539281E+02
             -0.270066157129504E+02
              0.397371194318718E+02
             -0.597266349711464E+02
             -0.118779405429676E+02
             -0.198906829376087E+02
              0.216825582576222E+02
             -0.886236292293063E+01
              0.368384154164579E+01
             -0.203396677080059E+02
              0.567099818629744E+02
             -0.448271073533300E+02
              0.803721348388433E+01
              0.594826185821061E+02
             -0.329060950638618E+02
              0.364848099921932E+01
             -0.879134889811280E+01
             -0.679879015572742E+02
             -0.488789443812655E+02
             -0.866619905435687E+01
              0.245289861625059E+02
              0.307447569920301E+02
              0.867456490746622E+01
             -0.429922740538609E+01
              0.155030372437224E+02
             -0.446348743640695E+02
              0.325972711250915E+01
             -0.539104167742786E+02
             -0.328598485255233E+02
              0.482446186321330E+02
             -0.299690910103738E+02
[...]
              0.286636129552329E+02
              0.143865485565968E+03
              0.247195903140254E+02
              0.125431115989730E+02
             -0.471738507733179E+02
             -0.646964791115090E+02
             -0.191099780307644E+02
              0.334223696696876E+02
             -0.437995879691539E+01
              0.193851608037361E+02
              0.341432112682166E+02
             -0.595823314333164E+02
              0.226761816865748E+02
              0.587674129732378E+02
              0.561705126333742E+02
             -0.432154719961790E+01
             -0.130343053506681E+01
             -0.100497628038551E+02
             -0.489476721183225E+02
             -0.685773667781862E+02
              0.797647292276027E+02
             -0.538458360013797E+01
             -0.596420758673295E+02
              0.179569698875116E+01
             -0.209607615590622E+02
              0.951678826521626E+02
             -0.219832784500632E+02
             -0.359075865117020E+02
              0.340508258801004E+02
             -0.148253016373513E+02
              0.396772606366713E+02
             -0.237304131404926E+01
              0.102522725905040E+03
              0.497504528497492E+02
             -0.499331960794104E+01
             -0.327890534057739E+02
              0.236716092520396E+02
             -0.536966311078903E+02
             -0.128811090082014E+02
              0.595331415795906E+02
             -0.291736318436793E+02
             -0.445061993948250E+02
             -0.226534151801682E+02
              0.526308507127472E+02
              0.126687127270539E+02
             -0.861315789572668E+02
              0.309190434250481E+02
              0.153648832420639E+02
              0.593942199911353E+01
             -0.520739879370915E+02
             -0.364776231697567E+01
              0.328331520692730E+02
              0.520110546898895E+02
              0.642397887949698E+02
              0.234041179392124E+02
              0.866127524830432E+00
             -0.506141687990451E+02
             -0.516483869863715E+02
             -0.758134303139245E+02
             -0.636657337993609E+01
              0.314081895730908E+02
             -0.382126719792890E+01
              0.554532748333392E+02
             -0.322948345940390E+02
              0.168959241458637E+02
             -0.105690861406426E+02
             -0.293869044502297E+02
              0.594610857294043E+02
              0.799854716026226E+01
              0.613785748795278E+02
              0.517935010738756E+01
              0.268246850100952E+02
             -0.195014628758338E+02
              0.595443093608040E+02
             -0.113865209208600E+02
             -0.130157904534981E+00
             -0.801890866528299E+02
             -0.129516982998463E+02
              0.729697640574744E+02
              0.683080443969058E+02
              0.255596829904558E+02
             -0.132730339838628E+02
              0.349568291541181E+01
             -0.176673557185351E+02
             -0.229072328457400E+01
              0.921253579322537E+02
              0.131153339008097E+01
             -0.194825087697847E+02
             -0.112384562322034E+03
             -0.559660764540165E+02
             -0.380698691941800E+02
             -0.668310857858734E+02
             -0.564594859043831E+02
             -0.693495190854002E+02
             -0.454133164829889E+02
             -0.415231672493243E+02
             -0.459135660275507E+02
              0.490356611497163E+02
             -0.296943824113345E+02
             -0.100882574691640E+03
              0.425317581131444E+02
             -0.265031499435256E+02
             -0.802903141533762E+02
              0.959042914028662E+02
             -0.223668587732888E+02
              0.230311478578421E+02
              0.460914814678534E+02
             -0.118473173752687E+01
              0.258153580804225E+02
              0.470166884023988E+01
              0.412942785008486E+00
             -0.152608102726466E+02
             -0.727074935312953E+02
              0.134947958192686E+02
             -0.131245767389936E+03
              0.634813561675829E+02
             -0.446938398387111E+02
             -0.165303435708665E+02
             -0.160843940009519E+02
              0.744584398756739E+01
             -0.230087124189729E+02
              0.301440254788199E+02
             -0.529239923829443E+02
              0.372873729957911E+02
              0.377474319918687E+02
              0.170042498920639E+02
              0.102067349285718E+02
              0.201065353300372E+02
              0.637088225859713E+01
              0.314815705026276E+02
             -0.811024010230008E+01
             -0.603169090993757E+02
              0.773763844440293E+01
             -0.157591806462078E+02
             -0.201200570791218E+01
              0.514458356003313E+02
             -0.838991454580985E+02
             -0.144480446305556E+01
              0.601550164104708E+00
              0.100829435833321E+02
              0.323223637083991E+02
             -0.125594605072525E+02
              0.848198030097926E+02
              0.493812564440971E+02
             -0.185567427191746E+02
             -0.970596433327762E+01
              0.114614388810153E+01
              0.781327753482110E+02
             -0.593627833962737E+02
             -0.107298944478802E+03
              0.313554324957886E+02
             -0.164435051747269E+02
             -0.141907163804694E+02
              0.133351208060753E+02
              0.780219789364400E+02
              0.470907078691119E+02
             -0.156005950845509E+02
             -0.511000718337132E+02
             -0.565248422431632E+01
              0.310688588432751E+02
             -0.114208282749137E+02
             -0.766891593231148E+02
             -0.283002042054034E+01
             -0.904532888960925E+02
             -0.483131561806511E+02
              0.781382984321719E+02
             -0.491467971500082E+02
             -0.647404330557048E+02
             -0.522455506304856E+02
             -0.355540048990291E+02
              0.346158577717587E+02
              0.834388903278308E+02
             -0.369836480051850E+01
              0.280563646178894E+02
             -0.186709306419876E+02
             -0.704225619606341E+02
              0.472777859009066E+02
             -0.452384796241599E+02
              0.325649786144460E+02
              0.380881322273229E+02
             -0.677354665196606E+01
              0.396529034139257E+02
              0.444488771930745E+02
              0.102448859446584E+03
             -0.157703485886991E+02
             -0.464051838560738E+02
             -0.622629309112244E+02
             -0.126550593626169E+02
             -0.238776739686973E+02
              0.104466014302842E+03
             -0.455949270142899E+02
              0.106589887354872E+02
              0.975686869066749E+01
             -0.267798536317450E+02
             -0.811831139974485E+02
             -0.709939846311408E+01
              0.994898401271927E+02
              0.967267932118358E+01
              0.820410384876948E+01
             -0.535552747215786E+02
             -0.613544845721501E+02
             -0.587123457755384E+01
              0.507130642443925E+02
             -0.225916158159844E+02
              0.109506592300526E+03
             -0.442741466979836E+02
              0.149212631046980E+02
             -0.226312972842622E+02
             -0.727811946092471E+02
              0.177585327735119E+01
             -0.509926537732965E+02
             -0.771577547266548E+02
              0.632629826021287E+01
              0.237650258688072E+01
              0.521651683762640E+02
              0.191188514517777E+02
             -0.328921768455017E+02
              0.233588023609393E+02
             -0.824163841653277E+02
             -0.528951041846312E+02
              0.915742579076130E+02
              0.143212919968186E+02
             -0.188914674691717E+02
             -0.356413693928989E+02
             -0.273545237349185E+01
             -0.601581747126227E+01
              0.844100032235461E+02
              0.424072734862162E+02
             -0.167419970841454E+02
             -0.122030377395538E+02
             -0.433417515831535E+02
             -0.203007716385772E+02
             -0.679436165471178E+02
              0.467570965801703E+02
              0.557274092337707E+01
              0.146162949089377E+02
              0.158658515304081E+02
             -0.743056460758595E+00
             -0.171715896516932E+02
             -0.299914427363702E+01
             -0.102102720964243E+03
             -0.231922542606865E+02
             -0.779017328136649E+01
             -0.958411149146258E+01
              0.553963129673943E+02
              0.633661633446129E+02
              0.167215809648941E+02
             -0.984730635191120E+02
              0.656996438472981E+02
             -0.218445392753948E+02
             -0.382704894779838E+02
             -0.877553862729781E+02
             -0.391194995191944E+02
              0.573869604350126E+02
              0.249434937449232E+02
              0.537958618702510E+01
              0.297572932337472E+02
             -0.573384410423583E+02
             -0.429647289485424E+02
              0.524600604758597E+02
              0.393287800817823E+02
              0.526180777106583E+02
             -0.113856554989357E+01
              0.701480297754080E+01
              0.577396836291317E+02
              0.977902844187090E+02
             -0.302966166800580E+02
              0.329265159180936E+02
             -0.122572618441486E+02
             -0.418908950750743E+02
             -0.319831204541409E+02
             -0.305199057198952E+02
             -0.133408241842991E+02
             -0.530572939985084E+02
             -0.220338374647411E+02
             -0.143172949648236E+03
              0.373763178516080E+02
              0.210562692568312E+02
             -0.398414828926220E+01
             -0.386035171711408E+02
             -0.207287423831024E+02
             -0.535234241147696E+02
              0.152455817853932E+02
              0.832161089601890E+02
             -0.254710547682780E+02
             -0.165790090393109E+02
              0.241031801986866E+02
             -0.497004011679872E+02
              0.893611104376659E+02
              0.156917957895659E+02
              0.227487155468699E+02
              0.498089132603802E+02
              0.312637695979043E+01
              0.550816469940386E+02
              0.145908353589453E+02
             -0.107038806349874E+02
              0.748784492390476E+01
              0.630624312541840E+00
              0.737315005241986E+02
              0.102470789775001E+02
              0.123563483455186E+02
             -0.131413760921042E+02
              0.134144116556106E+02
             -0.925337694591631E+02
             -0.331673088673880E+02
             -0.464566254868564E+02
              0.493012969563450E+02
             -0.296183231223417E+02
             -0.667258472911934E+02
              0.547728665920669E+02
             -0.124054806688530E+02
              0.446384198031831E+02
             -0.912572254309939E+02
              0.235224479274745E+02
              0.864332042633271E+01
              0.590097973173954E+01
             -0.849391392517850E+01
             -0.914083713977868E+01
              0.487073594551483E+02
              0.202620595100791E+01
             -0.482802356926885E+02
             -0.179143689536844E+02
              0.279821245686575E+02
             -0.119692616177076E+03
             -0.943240912045907E+02
              0.397032623669327E+01
              0.119865799258811E+02
             -0.420565077609252E+02
             -0.391369808239796E+01
              0.113666022793387E+03
              0.311306518630801E+02
             -0.579623609326771E+02
              0.937857436169861E+01
             -0.978520934913993E+01
              0.107631899175314E+02
             -0.342999921110660E+02
              0.198663384689744E+02
              0.288340285437480E+02
             -0.311412927298284E+01
              0.109877421638347E+03
             -0.141089009874786E+02
             -0.320877451829726E+02
              0.147425427594665E+02
              0.472814953465593E+02
             -0.361040276029697E+02
             -0.319201945526525E+01
              0.979522048187089E+02
             -0.466047820700851E+01
              0.629629047047075E+02
              0.137968416198461E+02
             -0.913219045404090E+01
             -0.307806635780013E+02
              0.574208304696464E+02
             -0.523215565249984E+02
             -0.224984101356119E+01
             -0.172783951013913E+02
             -0.411511596773515E+02
              0.186830725916579E+02
              0.242971369757587E+02
              0.116352229423093E+02
              0.674289131005480E+00
             -0.390505856262506E+02
              0.217617758330483E+02
             -0.674455060690755E+01
             -0.249807936764591E+02
             -0.213761690652709E+02
              0.205922882786173E+02
             -0.603077415537552E+01
             -0.354980571977467E+02
             -0.108267943732100E+03
              0.103920362298161E+02
              0.251568327487884E+02
             -0.394728029716726E+02
             -0.214499129520634E+02
              0.819614287798140E+02
              0.668492053063929E+01
              0.317416295332420E+02
              0.405663616077851E+01
              0.327889644964530E+02
              0.652680051128732E+01
             -0.379092599459835E+02
             -0.247880113598626E+01
              0.885110322747687E+01
              0.278518656346366E+02
              0.793580576640566E+02
              0.514661244427906E+02
              0.236336187766710E+00
              0.171293317660885E+02
              0.622305554281228E+02
              0.240110692473727E+02
             -0.763405970205023E+02
             -0.277889366455393E+02
              0.153007216441533E+02
              0.576509234326812E+01
              0.258909051203317E+02
             -0.555552462384875E+02
              0.909222811815316E+01
              0.392308624211869E+02
              0.505378591689111E+02
             -0.441401192463253E+02
             -0.688359888166809E+01
             -0.213455011632414E+01
             -0.136721999951292E+02
             -0.369502585434105E+02
             -0.217371972797302E+02
             -0.216448304994071E+01
              0.808502698603041E+01
              0.427700731721163E+02
             -0.312984222883034E+02
              0.838240324700773E+02
              0.332849187890123E+02
              0.223990228643089E+02
              0.338595975045603E+02
              0.327201782869002E+02
              0.351330762461470E+02
              0.545477236656970E+02
             -0.441021529940424E+02
              0.629102942775870E+02
             -0.113990760668160E+03
              0.312166651239816E+02
             -0.108139490659456E+03
              0.866782593213672E+02
              0.702565604573447E+02
             -0.111233940670040E+02
             -0.500451661066214E+02
             -0.435901228110368E+02
             -0.631750518597895E+02
             -0.638463788379230E+02
              0.560297693312050E+02
              0.412034737576381E+02
              0.240409242551353E+02
              0.377822523692813E+02
              0.409628755862921E+02
             -0.388095774463794E+02
             -0.200192597525041E+02
              0.594781278015148E+02
             -0.118024073141828E+02
              0.559360721892103E+02
              0.710970917794850E+02
             -0.559643985185582E+01
             -0.717541966090561E+02
             -0.812222974716633E+00
             -0.244634809477988E+01
             -0.898907352061963E+01
             -0.176700555539998E+01
             -0.662820464313459E+02
             -0.212232275148418E+02
              0.557734387996072E+01
              0.919102231993190E+01
              0.476469174802074E+02
             -0.404044067171001E+02
              0.665601859845995E+02
             -0.431204694545568E+02
              0.214495538886470E+02
              0.356795782319470E+02
 
 BEEF-vdW xc energy contributions
           1 :   -793.830320215948     
           2 :    728.392646401066     
           3 :   -615.541413557490     
           4 :    483.313542543423     
           5 :   -359.673112036394     
           6 :    264.420203614583     
           7 :   -204.979905556053     
           8 :    176.617776845658     
           9 :   -166.550202908506     
          10 :    160.087728363344     
          11 :   -146.379995279148     
          12 :    121.621445321445     
          13 :   -88.8764888886906     
          14 :    55.1528846506864     
          15 :   -27.4226728783083     
          16 :    9.39183038482793     
          17 :  -0.249550798584323     
          18 :   -4.37414675679463     
          19 :    9.94668055510431     
          20 :   -20.3548625655191     
          21 :    36.2320562204070     
          22 :   -54.9494594640806     
          23 :    72.1071820434537     
          24 :   -83.7191689228447     
          25 :    88.0312611370950     
          26 :   -86.1646120179417     
          27 :    81.3753436812507     
          28 :   -77.3847311667000     
          29 :    76.6148959045864     
          30 :   -79.1635794060848     
          31 :   -87.1855488252229     
          32 :   -66.6199026934150     

     Writing output data file ./pwscf.save/
 
     init_run     :    360.80s CPU    365.52s WALL (       1 calls)
     electrons    :  16549.69s CPU  16707.11s WALL (       1 calls)
     forces       :    108.37s CPU    109.72s WALL (       1 calls)

     Called by init_run:
     wfcinit      :    312.77s CPU    316.43s WALL (       1 calls)
     potinit      :     44.52s CPU     44.83s WALL (       1 calls)
     hinit0       :      1.48s CPU      1.53s WALL (       1 calls)

     Called by electrons:
     c_bands      :  13764.00s CPU  13884.99s WALL (      23 calls)
     sum_band     :   1975.38s CPU   1991.84s WALL (      23 calls)
     v_of_rho     :    120.96s CPU    125.86s WALL (      23 calls)
     newd         :     38.73s CPU     53.80s WALL (      23 calls)
     PAW_pot      :    154.42s CPU    154.44s WALL (      23 calls)
     mix_rho      :    541.45s CPU    542.31s WALL (      23 calls)
     vdW_kernel   :     33.46s CPU     33.46s WALL (       1 calls)

     Called by c_bands:
     init_us_2    :     96.61s CPU     96.88s WALL (     624 calls)
     cegterg      :  12806.11s CPU  12926.09s WALL (     299 calls)

     Called by *egterg:
     cdiaghg      :    131.82s CPU    131.87s WALL (    2318 calls)
     h_psi        :   8192.49s CPU   8234.07s WALL (    2344 calls)
     s_psi        :   1382.79s CPU   1382.89s WALL (    2344 calls)
     g_psi        :     19.14s CPU     19.16s WALL (    2032 calls)

     Called by h_psi:
     h_psi:calbec :   1276.10s CPU   1276.61s WALL (    2344 calls)
     vloc_psi     :   5503.10s CPU   5504.89s WALL (    2344 calls)
     add_vuspsi   :   1382.92s CPU   1383.06s WALL (    2344 calls)

     General routines
     calbec       :   1852.91s CPU   1853.47s WALL (    2695 calls)
     fft          :     54.96s CPU     54.98s WALL (    3403 calls)
     ffts         :    174.42s CPU    174.45s WALL (   11390 calls)
     fftw         :   5631.59s CPU   5632.77s WALL (  387208 calls)
 
     Parallel routines
 
     PWSCF        :      4h45m CPU      4h48m WALL

 
   This run was terminated on:   1:30:58  28Sep2022            

=------------------------------------------------------------------------------=
   JOB DONE.
=------------------------------------------------------------------------------=
