
     Program PWSCF v.6.7MaX starts on 26Sep2022 at 21:11:17 

     This program is part of the open-source Quantum ESPRESSO suite
     for quantum simulation of materials; please cite
         "P. Giannozzi et al., J. Phys.:Condens. Matter 21 395502 (2009);
         "P. Giannozzi et al., J. Phys.:Condens. Matter 29 465901 (2017);
          URL http://www.quantum-espresso.org", 
     in publications or presentations arising from this work. More details at
     http://www.quantum-espresso.org/quote

     Parallel version (MPI), running on     1 processors

     MPI processes distributed on     1 nodes
     Reading input from ch4-ensemble.in
Warning: card &CELL ignored
Warning: card / ignored

     Current dimensions of program PWSCF are:
     Max number of different atomic species (ntypx) = 10
     Max number of k-points (npk) =  40000
     Max angular momentum in pseudopotentials (lmaxx) =  3
     file Pt.pbe-n-kjpaw_psl.1.0.0.UPF: wavefunction(s)  6S 5D renormalized
     file C.pbe-n-kjpaw_psl.1.0.0.UPF: wavefunction(s)  2S 2P renormalized
     file H.pbe-kjpaw_psl.1.0.0.UPF: wavefunction(s)  1S renormalized

     **************************************************************************
     Initializing libbeef V0.1.2 with the BEEF-vdW functional.
     Citation: Wellendorff et al., PRB 85, 235149 (2012).
     **************************************************************************


     IMPORTANT: XC functional enforced from input :
     Exchange-correlation= BEEF-VDW
                           (   1   4  43  14   2   0   0)
     Any further DFT definition will be discarded
     Please, verify this is what you really want


     Subspace diagonalization in iterative solution of the eigenvalue problem:
     a serial algorithm will be used

 
     G-vector sticks info
     --------------------
     sticks:   dense  smooth     PW     G-vecs:    dense   smooth      PW
     Sum        4267    4267   1159               745061   745061  105035
 


     bravais-lattice index     =            0
     lattice parameter (alat)  =      16.0349  a.u.
     unit-cell volume          =   11862.9602 (a.u.)^3
     number of atoms/cell      =           41
     number of atomic types    =            3
     number of electrons       =       368.00
     number of Kohn-Sham states=          221
     kinetic-energy cutoff     =      60.0000  Ry
     charge density cutoff     =     240.0000  Ry
     scf convergence threshold =      1.0E-06
     mixing beta               =       0.7000
     number of iterations used =            8  local-TF  mixing
     Exchange-correlation= BEEF-VDW
                           (   1   4  43  14   2   0   0)

     celldm(1)=  16.034858  celldm(2)=   0.000000  celldm(3)=   0.000000
     celldm(4)=   0.000000  celldm(5)=   0.000000  celldm(6)=   0.000000

     crystal axes: (cart. coord. in units of alat)
               a(1) = (   1.000000   0.000000   0.000000 )  
               a(2) = (   0.500000   0.866025   0.000000 )  
               a(3) = (   0.000000   0.000000   3.322516 )  

     reciprocal axes: (cart. coord. in units 2 pi/alat)
               b(1) = (  1.000000 -0.577350  0.000000 )  
               b(2) = (  0.000000  1.154701  0.000000 )  
               b(3) = (  0.000000  0.000000  0.300977 )  


     PseudoPot. # 1 for Pt read from file:
     /users/bkreitz1/quantum-espresso/potentials/Pt.pbe-n-kjpaw_psl.1.0.0.UPF
     MD5 check sum: 04dc8a03c51ece93fc7b5889c2958091
     Pseudo is Projector augmented-wave + core cor, Zval = 10.0
     Generated using 'atomic' code by A. Dal Corso  v.6.7MaX
     Shape of augmentation charge: PSQ
     Using radial grid of 1277 points,  6 beta functions with: 
                l(1) =   0
                l(2) =   0
                l(3) =   1
                l(4) =   1
                l(5) =   2
                l(6) =   2
     Q(r) pseudized with 0 coefficients 


     PseudoPot. # 2 for C  read from file:
     /users/bkreitz1/quantum-espresso/potentials/C.pbe-n-kjpaw_psl.1.0.0.UPF
     MD5 check sum: a169b0ebad56f5ec0d79c4633f80bf22
     Pseudo is Projector augmented-wave + core cor, Zval =  4.0
     Generated using 'atomic' code by A. Dal Corso  v.6.7MaX
     Shape of augmentation charge: PSQ
     Using radial grid of 1073 points,  4 beta functions with: 
                l(1) =   0
                l(2) =   0
                l(3) =   1
                l(4) =   1
     Q(r) pseudized with 0 coefficients 


     PseudoPot. # 3 for H  read from file:
     /users/bkreitz1/quantum-espresso/potentials/H.pbe-kjpaw_psl.1.0.0.UPF
     MD5 check sum: ae98473e6dc62675f0d0baffdab24f65
     Pseudo is Projector augmented-wave, Zval =  1.0
     Generated using 'atomic' code by A. Dal Corso  v.6.7MaX
     Shape of augmentation charge: PSQ
     Using radial grid of  929 points,  2 beta functions with: 
                l(1) =   0
                l(2) =   0
     Q(r) pseudized with 0 coefficients 


     atomic species   valence    mass     pseudopotential
        Pt            10.00   195.08400     Pt( 1.00)
        C              4.00    12.01100     C ( 1.00)
        H              1.00     1.00800     H ( 1.00)

     No symmetry found



   Cartesian axes

     site n.     atom                  positions (alat units)
         1           Pt  tau(   1) = (   0.0000000   0.0000000   1.0017346  )
         2           Pt  tau(   2) = (   0.3333333   0.0000000   1.0017346  )
         3           Pt  tau(   3) = (   0.6666667   0.0000000   1.0017346  )
         4           Pt  tau(   4) = (   0.1666667   0.2886751   1.0017346  )
         5           Pt  tau(   5) = (   0.5000000   0.2886751   1.0017346  )
         6           Pt  tau(   6) = (   0.8333333   0.2886751   1.0017346  )
         7           Pt  tau(   7) = (   0.3333333   0.5773503   1.0017346  )
         8           Pt  tau(   8) = (   0.6666667   0.5773503   1.0017346  )
         9           Pt  tau(   9) = (   1.0000000   0.5773503   1.0017346  )
        10           Pt  tau(  10) = (   0.1666667   0.0962250   1.2739001  )
        11           Pt  tau(  11) = (   0.5000000   0.0962250   1.2739001  )
        12           Pt  tau(  12) = (   0.8333333   0.0962250   1.2739001  )
        13           Pt  tau(  13) = (   0.3333333   0.3849002   1.2739001  )
        14           Pt  tau(  14) = (   0.6666667   0.3849002   1.2739001  )
        15           Pt  tau(  15) = (   1.0000000   0.3849002   1.2739001  )
        16           Pt  tau(  16) = (   0.5000000   0.6735753   1.2739001  )
        17           Pt  tau(  17) = (   0.8333333   0.6735753   1.2739001  )
        18           Pt  tau(  18) = (   1.1666667   0.6735753   1.2739001  )
        19           Pt  tau(  19) = (   0.0000253   0.1923339   1.5428401  )
        20           Pt  tau(  20) = (   0.3333048   0.1924329   1.5425174  )
        21           Pt  tau(  21) = (   0.6668665   0.1923682   1.5425797  )
        22           Pt  tau(  22) = (   0.1667394   0.4811157   1.5427810  )
        23           Pt  tau(  23) = (   0.5000855   0.4812926   1.5425473  )
        24           Pt  tau(  24) = (   0.8333641   0.4810948   1.5429555  )
        25           Pt  tau(  25) = (   0.3335208   0.7696565   1.5427299  )
        26           Pt  tau(  26) = (   0.6665348   0.7696039   1.5425602  )
        27           Pt  tau(  27) = (   1.0001453   0.7696304   1.5425684  )
        28           Pt  tau(  28) = (   0.0000687  -0.0001146   1.8170730  )
        29           Pt  tau(  29) = (   0.3332223  -0.0003859   1.8156582  )
        30           Pt  tau(  30) = (   0.6669874  -0.0002337   1.8163781  )
        31           Pt  tau(  31) = (   0.1666413   0.2887162   1.8167902  )
        32           Pt  tau(  32) = (   0.5002920   0.2889136   1.8157643  )
        33           Pt  tau(  33) = (   0.8335254   0.2885543   1.8169938  )
        34           Pt  tau(  34) = (   0.3334253   0.5772414   1.8171491  )
        35           Pt  tau(  35) = (   0.6667195   0.5772652   1.8170938  )
        36           Pt  tau(  36) = (   1.0001534   0.5771729   1.8170092  )
        37           C   tau(  37) = (   0.4378275   0.1258357   2.2733460  )
        38           H   tau(  38) = (   0.3428282   0.0522054   2.3185747  )
        39           H   tau(  39) = (   0.5500877   0.0851533   2.3207923  )
        40           H   tau(  40) = (   0.4182396   0.2481062   2.3073394  )
        41           H   tau(  41) = (   0.4409037   0.1171916   2.1463497  )

     number of k points=    13  Marzari-Vanderbilt smearing, width (Ry)=  0.0200
                       cart. coord. in units 2pi/alat
        k(    1) = (   0.0000000   0.0000000   0.0000000), wk =   0.0800000
        k(    2) = (   0.0000000   0.2309401   0.0000000), wk =   0.1600000
        k(    3) = (   0.0000000   0.4618802   0.0000000), wk =   0.1600000
        k(    4) = (   0.2000000  -0.1154701   0.0000000), wk =   0.1600000
        k(    5) = (   0.2000000   0.1154701   0.0000000), wk =   0.1600000
        k(    6) = (   0.2000000   0.3464102   0.0000000), wk =   0.1600000
        k(    7) = (   0.2000000  -0.5773503   0.0000000), wk =   0.1600000
        k(    8) = (   0.2000000  -0.3464102   0.0000000), wk =   0.1600000
        k(    9) = (   0.4000000  -0.2309401   0.0000000), wk =   0.1600000
        k(   10) = (   0.4000000  -0.0000000   0.0000000), wk =   0.1600000
        k(   11) = (   0.4000000   0.2309401   0.0000000), wk =   0.1600000
        k(   12) = (   0.4000000  -0.6928203   0.0000000), wk =   0.1600000
        k(   13) = (   0.4000000  -0.4618802   0.0000000), wk =   0.1600000

     Dense  grid:   745061 G-vectors     FFT dimensions: (  80,  80, 270)

     Estimated max dynamical RAM per process >       8.93 GB

     Check: negative core charge=   -0.000001

     Initial potential from superposition of free atoms

     starting charge  367.99381, renormalised to  368.00000

     negative rho (up, down):  1.143E-02 0.000E+00


     %%%%%%%%%%%%%%%%%%%%%%%%%%%%%%%%%%%%%%%%%%%%%%%%%%%%%%%%%%%%%%%%%%%%%%%%
     %                                                                      %
     % You are using vdW-DF, which was implemented by the Thonhauser group. %
     % Please cite the following two papers that made this development      %
     % possible and the two reviews that describe the various versions:     %
     %                                                                      %
     %   T. Thonhauser et al., PRL 115, 136402 (2015).                      %
     %   T. Thonhauser et al., PRB 76, 125112 (2007).                       %
     %   K. Berland et al., Rep. Prog. Phys. 78, 066501 (2015).             %
     %   D.C. Langreth et al., J. Phys.: Condens. Matter 21, 084203 (2009). %
     %                                                                      %
     %                                                                      %
     % If you are calculating the stress with vdW-DF, please also cite:     %
     %                                                                      %
     %   R. Sabatini et al., J. Phys.: Condens. Matter 24, 424209 (2012).   %
     %                                                                      %
     %%%%%%%%%%%%%%%%%%%%%%%%%%%%%%%%%%%%%%%%%%%%%%%%%%%%%%%%%%%%%%%%%%%%%%%%


     Starting wfcs are  332 randomized atomic wfcs
     Checking if some PAW data can be deallocated... 

     total cpu time spent up to now is      320.3 secs

     Self-consistent Calculation

     iteration #  1     ecut=    60.00 Ry     beta= 0.70
     Davidson diagonalization with overlap
     ethr =  1.00E-02,  avg # of iterations =  3.0

     Threshold (ethr) on eigenvalues was too large:
     Diagonalizing with lowered threshold

     Davidson diagonalization with overlap
     ethr =  5.53E-04,  avg # of iterations =  5.0

     negative rho (up, down):  1.084E-02 0.000E+00

     total cpu time spent up to now is     1633.9 secs

     total energy              =  -27778.03520769 Ry
     estimated scf accuracy    <       2.24906893 Ry

     iteration #  2     ecut=    60.00 Ry     beta= 0.70
     Davidson diagonalization with overlap
     ethr =  6.11E-04,  avg # of iterations =  2.6

     negative rho (up, down):  9.536E-03 0.000E+00

     total cpu time spent up to now is     2200.8 secs

     total energy              =  -27778.12310330 Ry
     estimated scf accuracy    <       1.01434944 Ry

     iteration #  3     ecut=    60.00 Ry     beta= 0.70
     Davidson diagonalization with overlap
     ethr =  2.76E-04,  avg # of iterations =  3.2

     negative rho (up, down):  6.019E-03 0.000E+00

     total cpu time spent up to now is     2780.8 secs

     total energy              =  -27778.15010345 Ry
     estimated scf accuracy    <       0.25192368 Ry

     iteration #  4     ecut=    60.00 Ry     beta= 0.70
     Davidson diagonalization with overlap
     ethr =  6.85E-05,  avg # of iterations = 10.1

     negative rho (up, down):  3.435E-03 0.000E+00

     total cpu time spent up to now is     3601.6 secs

     total energy              =  -27778.19899975 Ry
     estimated scf accuracy    <       0.06232658 Ry

     iteration #  5     ecut=    60.00 Ry     beta= 0.70
     Davidson diagonalization with overlap
     ethr =  1.69E-05,  avg # of iterations =  5.2

     negative rho (up, down):  3.008E-03 0.000E+00

     total cpu time spent up to now is     4279.6 secs

     total energy              =  -27778.20779039 Ry
     estimated scf accuracy    <       0.06122341 Ry

     iteration #  6     ecut=    60.00 Ry     beta= 0.70
     Davidson diagonalization with overlap
     ethr =  1.66E-05,  avg # of iterations =  2.1

     negative rho (up, down):  3.604E-03 0.000E+00

     total cpu time spent up to now is     4819.4 secs

     total energy              =  -27778.20523030 Ry
     estimated scf accuracy    <       0.02984758 Ry

     iteration #  7     ecut=    60.00 Ry     beta= 0.70
     Davidson diagonalization with overlap
     ethr =  8.11E-06,  avg # of iterations =  7.1

     negative rho (up, down):  6.000E-03 0.000E+00

     total cpu time spent up to now is     5447.3 secs

     total energy              =  -27778.20621942 Ry
     estimated scf accuracy    <       0.02358005 Ry

     iteration #  8     ecut=    60.00 Ry     beta= 0.70
     Davidson diagonalization with overlap
     ethr =  6.41E-06,  avg # of iterations =  2.0

     negative rho (up, down):  3.171E-02 0.000E+00

     total cpu time spent up to now is     6010.9 secs

     total energy              =  -27778.20536860 Ry
     estimated scf accuracy    <       0.01117960 Ry

     iteration #  9     ecut=    60.00 Ry     beta= 0.70
     Davidson diagonalization with overlap
     c_bands:  1 eigenvalues not converged
     c_bands:  2 eigenvalues not converged
     c_bands:  1 eigenvalues not converged
     ethr =  3.04E-06,  avg # of iterations = 10.6

     negative rho (up, down):  3.680E-02 0.000E+00

     total cpu time spent up to now is     6682.2 secs

     total energy              =  -27778.20585791 Ry
     estimated scf accuracy    <       0.00653237 Ry

     iteration # 10     ecut=    60.00 Ry     beta= 0.70
     Davidson diagonalization with overlap
     ethr =  1.78E-06,  avg # of iterations =  6.0

     negative rho (up, down):  3.239E-02 0.000E+00

     total cpu time spent up to now is     7271.3 secs

     total energy              =  -27778.20557909 Ry
     estimated scf accuracy    <       0.00295540 Ry

     iteration # 11     ecut=    60.00 Ry     beta= 0.70
     Davidson diagonalization with overlap
     ethr =  8.03E-07,  avg # of iterations =  6.2

     negative rho (up, down):  2.910E-02 0.000E+00

     total cpu time spent up to now is     7884.7 secs

     total energy              =  -27778.20543519 Ry
     estimated scf accuracy    <       0.00184353 Ry

     iteration # 12     ecut=    60.00 Ry     beta= 0.70
     Davidson diagonalization with overlap
     ethr =  5.01E-07,  avg # of iterations =  5.6

     negative rho (up, down):  2.711E-02 0.000E+00

     total cpu time spent up to now is     8461.2 secs

     total energy              =  -27778.20533293 Ry
     estimated scf accuracy    <       0.00073666 Ry

     iteration # 13     ecut=    60.00 Ry     beta= 0.70
     Davidson diagonalization with overlap
     c_bands:  1 eigenvalues not converged
     ethr =  2.00E-07,  avg # of iterations =  6.7

     negative rho (up, down):  2.532E-02 0.000E+00

     total cpu time spent up to now is     9080.3 secs

     total energy              =  -27778.20530201 Ry
     estimated scf accuracy    <       0.00024408 Ry

     iteration # 14     ecut=    60.00 Ry     beta= 0.70
     Davidson diagonalization with overlap
     ethr =  6.63E-08,  avg # of iterations =  5.8

     negative rho (up, down):  2.292E-02 0.000E+00

     total cpu time spent up to now is     9755.5 secs

     total energy              =  -27778.20528875 Ry
     estimated scf accuracy    <       0.00014093 Ry

     iteration # 15     ecut=    60.00 Ry     beta= 0.70
     Davidson diagonalization with overlap
     ethr =  3.83E-08,  avg # of iterations =  2.9

     negative rho (up, down):  1.919E-02 0.000E+00

     total cpu time spent up to now is    10322.7 secs

     total energy              =  -27778.20523157 Ry
     estimated scf accuracy    <       0.00011376 Ry

     iteration # 16     ecut=    60.00 Ry     beta= 0.70
     Davidson diagonalization with overlap
     c_bands:  1 eigenvalues not converged
     ethr =  3.09E-08,  avg # of iterations =  8.1

     negative rho (up, down):  1.716E-02 0.000E+00

     total cpu time spent up to now is    10922.0 secs

     total energy              =  -27778.20521716 Ry
     estimated scf accuracy    <       0.00011029 Ry

     iteration # 17     ecut=    60.00 Ry     beta= 0.70
     Davidson diagonalization with overlap
     ethr =  3.00E-08,  avg # of iterations =  2.0

     negative rho (up, down):  1.581E-02 0.000E+00

     total cpu time spent up to now is    11452.5 secs

     total energy              =  -27778.20520411 Ry
     estimated scf accuracy    <       0.00005387 Ry

     iteration # 18     ecut=    60.00 Ry     beta= 0.70
     Davidson diagonalization with overlap
     ethr =  1.46E-08,  avg # of iterations =  2.0

     negative rho (up, down):  1.427E-02 0.000E+00

     total cpu time spent up to now is    12004.5 secs

     total energy              =  -27778.20519327 Ry
     estimated scf accuracy    <       0.00005135 Ry

     iteration # 19     ecut=    60.00 Ry     beta= 0.70
     Davidson diagonalization with overlap
     ethr =  1.40E-08,  avg # of iterations =  2.8

     negative rho (up, down):  1.323E-02 0.000E+00

     total cpu time spent up to now is    12549.0 secs

     total energy              =  -27778.20519298 Ry
     estimated scf accuracy    <       0.00002327 Ry

     iteration # 20     ecut=    60.00 Ry     beta= 0.70
     Davidson diagonalization with overlap
     ethr =  6.32E-09,  avg # of iterations =  1.8

     negative rho (up, down):  1.293E-02 0.000E+00

     total cpu time spent up to now is    13097.7 secs

     total energy              =  -27778.20519368 Ry
     estimated scf accuracy    <       0.00000577 Ry

     iteration # 21     ecut=    60.00 Ry     beta= 0.70
     Davidson diagonalization with overlap
     ethr =  1.57E-09,  avg # of iterations =  4.1

     negative rho (up, down):  1.290E-02 0.000E+00

     total cpu time spent up to now is    13771.2 secs

     total energy              =  -27778.20519423 Ry
     estimated scf accuracy    <       0.00000307 Ry

     iteration # 22     ecut=    60.00 Ry     beta= 0.70
     Davidson diagonalization with overlap
     ethr =  8.34E-10,  avg # of iterations =  3.2

     negative rho (up, down):  1.288E-02 0.000E+00

     total cpu time spent up to now is    14375.5 secs

     total energy              =  -27778.20519451 Ry
     estimated scf accuracy    <       0.00000153 Ry

     iteration # 23     ecut=    60.00 Ry     beta= 0.70
     Davidson diagonalization with overlap
     ethr =  4.17E-10,  avg # of iterations =  2.2

     negative rho (up, down):  1.297E-02 0.000E+00

     total cpu time spent up to now is    14920.4 secs

     End of self-consistent calculation

          k = 0.0000 0.0000 0.0000 ( 93155 PWs)   bands (ev):

   -10.3395  -7.4917  -6.1817  -5.1054  -5.0718  -5.0707  -5.0701  -5.0679
    -5.0675  -5.0669  -5.0572  -4.5127  -4.5124  -4.5120  -4.5108  -4.5102
    -4.5101  -4.0388  -4.0384  -4.0375  -4.0360  -4.0358  -4.0349  -3.8250
    -3.8222  -3.8214  -3.8203  -3.8202  -3.8190  -3.5943  -3.5933  -3.5883
    -3.5869  -3.5761  -3.5745  -3.5741  -3.5741  -3.5737  -3.5728  -3.5564
    -3.5557  -2.9777  -2.9774  -2.9456  -2.9452  -2.9045  -2.8898  -2.8897
    -2.8879  -2.8866  -2.8862  -2.7524  -2.7502  -2.7404  -2.6718  -2.6539
    -2.6466  -2.6438  -2.1419  -2.1417  -2.1401  -2.1387  -2.1384  -2.1338
    -2.0762  -1.9859  -1.9858  -1.9548  -1.9545  -1.9423  -1.9409  -1.9237
    -1.9209  -1.9209  -1.9201  -1.9181  -1.9174  -1.9136  -1.8838  -1.8835
    -1.7278  -1.7266  -1.7253  -1.7237  -1.7234  -1.7227  -1.5740  -1.5724
    -1.5717  -1.5686  -1.5679  -1.5666  -1.4741  -1.4740  -1.3755  -1.3755
    -1.3118  -1.3116  -1.3003  -1.2986  -1.2651  -1.2647  -1.2515  -1.2488
    -1.1004  -1.0999  -1.0975  -1.0958  -1.0952  -1.0939  -1.0778  -0.6073
    -0.6066  -0.6056  -0.6034  -0.6030  -0.6023  -0.5316  -0.5308  -0.5291
    -0.5281  -0.5263  -0.5251  -0.4599  -0.4593  -0.2860  -0.2858  -0.2834
    -0.2821  -0.2802  -0.2752  -0.1432  -0.1414  -0.1393  -0.1375  -0.1307
    -0.1306   0.1248   0.1258   0.1260   0.1277   0.1277   0.1300   0.2060
     0.2062   0.3860   0.3874   0.3882   0.3895   0.3899   0.3917   0.5573
     0.5580   0.5597   0.5605   0.5616   0.5619   0.6039   0.6047   0.6065
     0.6069   0.6071   0.6138   0.7363   0.7371   0.7562   0.7572   0.7574
     0.7576   0.7582   0.7584   0.8594   0.8621   0.8638   0.8646   0.8655
     0.8661   0.8705   0.8706   0.9627   0.9652   0.9671   0.9679   0.9684
     0.9699   1.0695   1.0702   1.0760   1.0768   1.0781   1.0787   1.1686
     1.2943   1.2953   1.4014   1.4019   1.4027   1.4038   1.4040   1.4052
     2.2555   2.2948   2.2949   2.2957   2.2960   2.2971   2.3178   4.6235
     4.6245   4.6250   4.6272   4.6303   4.6512   5.8983   6.1610   6.1612
     6.2159   6.2169   6.2172   6.2182   6.2938

          k = 0.0000 0.2309 0.0000 ( 93118 PWs)   bands (ev):

   -10.3395  -7.3447  -6.0368  -5.5851  -5.1856  -5.1847  -4.9578  -4.9212
    -4.8789  -4.8351  -4.8343  -4.6270  -4.6067  -4.4504  -4.4500  -4.4305
    -4.4299  -4.1529  -4.0183  -4.0177  -3.9893  -3.9808  -3.9206  -3.9200
    -3.8507  -3.8502  -3.8493  -3.8487  -3.7626  -3.7423  -3.7414  -3.6237
    -3.6201  -3.6200  -3.5601  -3.5596  -3.4016  -3.4004  -3.3682  -3.3677
    -3.3391  -3.1017  -3.1015  -3.0607  -3.0146  -3.0139  -2.9727  -2.9696
    -2.8078  -2.7929  -2.7476  -2.7240  -2.7216  -2.6775  -2.6676  -2.6529
    -2.6449  -2.6422  -2.4401  -2.3445  -2.3434  -2.2587  -2.2557  -2.2179
    -2.1788  -2.1429  -2.1397  -2.1236  -2.0996  -2.0986  -2.0553  -1.9806
    -1.9649  -1.9495  -1.9487  -1.8807  -1.8586  -1.8581  -1.8038  -1.7874
    -1.7861  -1.7209  -1.6878  -1.6688  -1.6667  -1.6656  -1.5739  -1.5726
    -1.5630  -1.5623  -1.5508  -1.4744  -1.4735  -1.4565  -1.4473  -1.3840
    -1.3803  -1.3793  -1.3280  -1.3267  -1.2889  -1.2880  -1.2748  -1.1774
    -1.1031  -1.0982  -1.0959  -1.0929  -1.0882  -1.0592  -1.0579  -1.0556
    -1.0025  -0.9975  -0.9749  -0.9738  -0.7714  -0.6924  -0.6342  -0.5848
    -0.5845  -0.5753  -0.5744  -0.5475  -0.5469  -0.3874  -0.3740  -0.3725
    -0.2724  -0.2293  -0.2278  -0.2179  -0.2076  -0.1068  -0.1060  -0.0934
    -0.0916  -0.0105   0.0009   0.0015   0.0304   0.0310   0.2206   0.2406
     0.2564   0.2572   0.2588   0.2816   0.2924   0.3782   0.3820   0.4071
     0.4333   0.4510   0.4990   0.4996   0.5011   0.5019   0.6166   0.6179
     0.6464   0.6466   0.7386   0.7931   0.7943   0.8024   0.8034   0.8250
     0.8663   0.8673   0.9324   0.9329   0.9922   0.9932   1.0000   1.0472
     1.0480   1.0496   1.0538   1.0542   1.0612   1.1288   1.1291   1.2887
     1.2892   1.3021   1.3174   1.3273   1.3278   1.3655   1.4054   1.4060
     1.4236   1.5219   1.5229   1.5462   1.7049   1.7096   1.7103   1.7474
     1.7822   2.1652   2.1715   2.8834   2.8860   2.9251   3.0403   3.8991
     4.3535   4.3634   5.0283   5.0287   5.1868   5.1930   5.4587   6.0085
     6.0109   6.0179   6.2455   6.3960   6.3970

          k = 0.0000 0.4619 0.0000 ( 93168 PWs)   bands (ev):

   -10.3395  -6.9215  -6.2863  -5.6302  -5.2196  -5.2186  -5.0745  -4.8528
    -4.6981  -4.5685  -4.5295  -4.4938  -4.4930  -4.3106  -4.3096  -4.2788
    -4.2702  -4.2695  -4.1472  -4.1115  -4.1108  -4.0592  -4.0589  -3.9967
    -3.9704  -3.9220  -3.9214  -3.8862  -3.6484  -3.6480  -3.6319  -3.6309
    -3.6297  -3.6291  -3.4055  -3.4039  -3.3447  -3.3439  -3.3329  -3.3322
    -3.1529  -3.0492  -3.0477  -3.0385  -3.0378  -2.9749  -2.9714  -2.9248
    -2.9110  -2.9074  -2.8323  -2.8270  -2.7554  -2.6980  -2.6939  -2.6705
    -2.6545  -2.6428  -2.6401  -2.5474  -2.5113  -2.4673  -2.4665  -2.4621
    -2.3247  -2.2493  -2.2361  -2.2259  -2.2223  -2.1349  -2.1335  -2.1133
    -2.0003  -1.9995  -1.9791  -1.9756  -1.8566  -1.8556  -1.8544  -1.8529
    -1.8504  -1.7767  -1.7602  -1.7589  -1.7542  -1.7266  -1.7258  -1.7220
    -1.7102  -1.6686  -1.6029  -1.5833  -1.5826  -1.5754  -1.5330  -1.5319
    -1.5021  -1.4289  -1.3636  -1.3283  -1.3279  -1.2870  -1.2850  -1.2539
    -1.2459  -1.2449  -1.1161  -1.1145  -1.0960  -1.0346  -1.0336  -0.9862
    -0.8483  -0.8476  -0.8158  -0.7664  -0.6789  -0.6774  -0.6643  -0.6456
    -0.6446  -0.6398  -0.6394  -0.5497  -0.5428  -0.5139  -0.5126  -0.4892
    -0.4877  -0.4683  -0.4654  -0.4211  -0.4084  -0.3072  -0.2714  -0.2703
    -0.2016  -0.1398  -0.1093  -0.1090   0.0290   0.0299   0.0910   0.1397
     0.1947   0.1959   0.2246   0.2454   0.2837   0.2843   0.3424   0.3440
     0.3909   0.3914   0.4565   0.4989   0.4994   0.5539   0.5546   0.5664
     0.5674   0.6486   0.7503   0.7538   0.8359   0.8486   0.8494   0.8558
     0.9369   0.9562   0.9569   1.0528   1.0538   1.0606   1.0613   1.1316
     1.1533   1.1538   1.1654   1.2873   1.2877   1.3121   1.3123   1.3198
     1.3229   1.3369   1.3421   1.5135   1.5557   1.5563   1.5636   1.5640
     1.7539   1.7895   2.1735   2.1794   2.2360   2.4804   2.6037   2.6042
     3.0059   3.0071   3.2017   3.3415   3.8163   3.8166   3.8441   3.9962
     4.0939   4.0973   4.2494   4.2607   4.4894   4.4900   5.1198   5.1343
     5.6544   5.6559   6.1444   6.1473   6.3516

          k = 0.2000-0.1155 0.0000 ( 93118 PWs)   bands (ev):

   -10.3395  -7.3446  -6.0368  -5.5849  -5.1854  -5.1853  -4.9578  -4.9212
    -4.8785  -4.8350  -4.8349  -4.6272  -4.6068  -4.4501  -4.4500  -4.4301
    -4.4299  -4.1530  -4.0182  -4.0179  -3.9894  -3.9809  -3.9206  -3.9200
    -3.8506  -3.8504  -3.8489  -3.8487  -3.7629  -3.7423  -3.7416  -3.6234
    -3.6203  -3.6197  -3.5599  -3.5596  -3.4012  -3.4008  -3.3681  -3.3679
    -3.3396  -3.1020  -3.1014  -3.0594  -3.0148  -3.0140  -2.9732  -2.9696
    -2.8101  -2.7928  -2.7458  -2.7241  -2.7223  -2.6761  -2.6699  -2.6522
    -2.6448  -2.6415  -2.4405  -2.3444  -2.3433  -2.2596  -2.2559  -2.2190
    -2.1795  -2.1419  -2.1391  -2.1233  -2.0997  -2.0989  -2.0551  -1.9807
    -1.9661  -1.9497  -1.9488  -1.8807  -1.8568  -1.8564  -1.8039  -1.7885
    -1.7857  -1.7206  -1.6870  -1.6690  -1.6683  -1.6667  -1.5732  -1.5718
    -1.5633  -1.5621  -1.5508  -1.4749  -1.4734  -1.4565  -1.4464  -1.3846
    -1.3810  -1.3792  -1.3280  -1.3265  -1.2885  -1.2876  -1.2747  -1.1774
    -1.1036  -1.0974  -1.0953  -1.0930  -1.0879  -1.0590  -1.0582  -1.0569
    -1.0026  -0.9967  -0.9748  -0.9735  -0.7720  -0.6930  -0.6342  -0.5854
    -0.5839  -0.5747  -0.5745  -0.5474  -0.5467  -0.3872  -0.3736  -0.3724
    -0.2720  -0.2294  -0.2275  -0.2191  -0.2065  -0.1069  -0.1056  -0.0935
    -0.0910  -0.0106   0.0015   0.0016   0.0303   0.0305   0.2207   0.2408
     0.2563   0.2568   0.2587   0.2815   0.2923   0.3775   0.3822   0.4070
     0.4333   0.4507   0.4987   0.4997   0.5011   0.5018   0.6165   0.6181
     0.6460   0.6467   0.7390   0.7926   0.7947   0.8024   0.8037   0.8254
     0.8664   0.8678   0.9321   0.9331   0.9920   0.9932   1.0000   1.0471
     1.0479   1.0494   1.0538   1.0545   1.0612   1.1293   1.1294   1.2892
     1.2896   1.3013   1.3174   1.3271   1.3275   1.3651   1.4048   1.4055
     1.4237   1.5216   1.5233   1.5462   1.7043   1.7092   1.7109   1.7476
     1.7832   2.1643   2.1707   2.8835   2.8860   2.9251   3.0410   3.9000
     4.3522   4.3635   5.0284   5.0287   5.1865   5.1930   5.4591   6.0078
     6.0109   6.0178   6.2457   6.3959   6.4031

          k = 0.2000 0.1155 0.0000 ( 93118 PWs)   bands (ev):

   -10.3395  -7.3447  -6.0368  -5.5850  -5.1857  -5.1847  -4.9578  -4.9212
    -4.8788  -4.8352  -4.8343  -4.6270  -4.6067  -4.4504  -4.4499  -4.4305
    -4.4299  -4.1529  -4.0184  -4.0177  -3.9892  -3.9807  -3.9207  -3.9199
    -3.8508  -3.8501  -3.8493  -3.8486  -3.7626  -3.7424  -3.7413  -3.6236
    -3.6202  -3.6199  -3.5603  -3.5596  -3.4016  -3.4004  -3.3683  -3.3677
    -3.3393  -3.1020  -3.1015  -3.0611  -3.0145  -3.0138  -2.9723  -2.9696
    -2.8074  -2.7929  -2.7476  -2.7241  -2.7221  -2.6755  -2.6694  -2.6529
    -2.6448  -2.6425  -2.4401  -2.3444  -2.3435  -2.2589  -2.2559  -2.2179
    -2.1789  -2.1427  -2.1396  -2.1235  -2.0995  -2.0986  -2.0552  -1.9806
    -1.9650  -1.9496  -1.9487  -1.8807  -1.8582  -1.8577  -1.8038  -1.7875
    -1.7864  -1.7208  -1.6876  -1.6688  -1.6671  -1.6658  -1.5738  -1.5724
    -1.5631  -1.5622  -1.5508  -1.4745  -1.4735  -1.4565  -1.4471  -1.3839
    -1.3807  -1.3793  -1.3280  -1.3267  -1.2889  -1.2878  -1.2747  -1.1774
    -1.1031  -1.0982  -1.0957  -1.0929  -1.0882  -1.0592  -1.0579  -1.0556
    -1.0024  -0.9977  -0.9749  -0.9738  -0.7717  -0.6926  -0.6342  -0.5848
    -0.5844  -0.5753  -0.5743  -0.5475  -0.5469  -0.3874  -0.3740  -0.3726
    -0.2724  -0.2292  -0.2278  -0.2182  -0.2073  -0.1067  -0.1060  -0.0934
    -0.0917  -0.0106   0.0009   0.0017   0.0302   0.0310   0.2206   0.2406
     0.2564   0.2571   0.2588   0.2814   0.2925   0.3784   0.3819   0.4071
     0.4333   0.4510   0.4991   0.4996   0.5011   0.5019   0.6167   0.6179
     0.6462   0.6467   0.7387   0.7932   0.7942   0.8025   0.8034   0.8252
     0.8664   0.8674   0.9324   0.9330   0.9922   0.9932   1.0000   1.0471
     1.0481   1.0495   1.0539   1.0542   1.0612   1.1289   1.1292   1.2888
     1.2893   1.3019   1.3174   1.3272   1.3279   1.3655   1.4053   1.4059
     1.4236   1.5220   1.5228   1.5462   1.7047   1.7096   1.7103   1.7474
     1.7823   2.1653   2.1713   2.8836   2.8858   2.9251   3.0403   3.8991
     4.3539   4.3631   5.0283   5.0287   5.1871   5.1928   5.4587   6.0083
     6.0112   6.0168   6.2454   6.3956   6.4033

          k = 0.2000 0.3464 0.0000 ( 93090 PWs)   bands (ev):

   -10.3395  -7.0589  -5.8338  -5.8315  -5.7594  -4.7564  -4.7559  -4.7253
    -4.7226  -4.6833  -4.6795  -4.6794  -4.6616  -4.5664  -4.5654  -4.1775
    -4.1767  -4.1739  -4.1730  -4.1088  -4.0868  -3.9445  -3.9181  -3.9173
    -3.8892  -3.8884  -3.8234  -3.7692  -3.7658  -3.7262  -3.7253  -3.6860
    -3.6403  -3.6374  -3.5968  -3.5934  -3.5190  -3.2472  -3.1466  -3.1437
    -3.1336  -3.1093  -3.1089  -3.0942  -3.0911  -3.0372  -3.0186  -2.8636
    -2.8593  -2.8488  -2.7722  -2.7695  -2.7396  -2.6957  -2.6835  -2.6748
    -2.6618  -2.6505  -2.5888  -2.5877  -2.4170  -2.4119  -2.3975  -2.3128
    -2.3094  -2.2826  -2.2804  -2.2734  -2.2034  -2.2028  -2.0497  -2.0290
    -2.0277  -2.0208  -1.9588  -1.9564  -1.8921  -1.8911  -1.8850  -1.8847
    -1.7581  -1.7219  -1.7211  -1.7091  -1.7082  -1.7040  -1.6889  -1.6599
    -1.6417  -1.5695  -1.5681  -1.5393  -1.5314  -1.4736  -1.4694  -1.4080
    -1.3879  -1.3478  -1.3448  -1.3385  -1.2924  -1.2909  -1.2867  -1.2685
    -1.2682  -1.2444  -1.2344  -1.2282  -1.1704  -1.1672  -1.0682  -1.0255
    -1.0211  -0.9506  -0.9477  -0.9439  -0.9436  -0.7640  -0.7613  -0.6197
    -0.6019  -0.5620  -0.5581  -0.5556  -0.5326  -0.5316  -0.4824  -0.4807
    -0.4514  -0.4494  -0.3916  -0.3625  -0.2491  -0.1710  -0.1699  -0.1197
    -0.1191  -0.1134  -0.0635  -0.0493   0.0772   0.0799   0.0823   0.1369
     0.1371   0.2170   0.2718   0.2763   0.2967   0.2985   0.3708   0.3775
     0.3795   0.3935   0.3958   0.4175   0.4203   0.4211   0.4317   0.5602
     0.6330   0.6354   0.7723   0.7739   0.7944   0.9410   0.9422   0.9428
     0.9439   1.0482   1.0808   1.0819   1.0919   1.0928   1.1311   1.1328
     1.1571   1.1614   1.1625   1.2218   1.2250   1.2427   1.3109   1.3374
     1.3381   1.3737   1.3749   1.4180   1.5528   1.6051   1.6065   1.6897
     1.6913   1.6935   1.7006   1.8420   1.8443   2.2906   2.3705   2.3712
     2.9088   2.9101   2.9453   2.9502   3.6396   3.6497   3.7043   3.8275
     3.8873   3.8878   4.5398   5.0166   5.0902   5.0928   5.2601   5.7391
     5.8196   5.8504   5.8546   5.8695   5.8756

          k = 0.2000-0.5774 0.0000 ( 93088 PWs)   bands (ev):

   -10.3394  -6.5247  -6.5223  -5.9156  -5.2650  -5.2630  -4.7524  -4.7486
    -4.6173  -4.5831  -4.4740  -4.4731  -4.3663  -4.3651  -4.2430  -4.2402
    -4.2379  -4.2015  -4.1996  -4.1706  -4.1689  -4.0437  -4.0330  -4.0316
    -3.9891  -3.9879  -3.8883  -3.7949  -3.7766  -3.7126  -3.6169  -3.6163
    -3.6006  -3.5995  -3.5827  -3.4712  -3.4692  -3.3765  -3.3741  -3.2020
    -3.1922  -3.1350  -3.0355  -3.0324  -2.9829  -2.9812  -2.8799  -2.8229
    -2.7903  -2.7744  -2.7627  -2.7440  -2.7084  -2.7006  -2.6742  -2.6701
    -2.6508  -2.5705  -2.5678  -2.5398  -2.5388  -2.5326  -2.5316  -2.5192
    -2.4589  -2.4555  -2.3246  -2.3032  -2.2535  -2.2522  -2.1369  -2.0977
    -2.0963  -2.0943  -2.0487  -2.0079  -2.0078  -1.9174  -1.8951  -1.8915
    -1.8870  -1.8537  -1.8204  -1.7765  -1.7701  -1.7308  -1.6735  -1.6715
    -1.6547  -1.6512  -1.5429  -1.4960  -1.4940  -1.4491  -1.4486  -1.4073
    -1.4063  -1.3891  -1.3872  -1.3596  -1.3582  -1.3082  -1.3072  -1.2746
    -1.2596  -1.2584  -1.2573  -1.2544  -1.2372  -1.2066  -1.1410  -1.1364
    -1.1356  -0.9286  -0.9201  -0.8285  -0.8266  -0.7199  -0.7080  -0.7062
    -0.6789  -0.6197  -0.6168  -0.6158  -0.5934  -0.5877  -0.5060  -0.4735
    -0.4716  -0.4036  -0.3836  -0.3760  -0.3206  -0.3150  -0.2685  -0.1274
    -0.0623  -0.0617  -0.0418  -0.0413   0.0522   0.0582   0.0603   0.0811
     0.0947   0.1010   0.1370   0.1379   0.2557   0.2576   0.2680   0.3244
     0.3263   0.3459   0.3556   0.3705   0.3723   0.5326   0.5816   0.6084
     0.6899   0.6931   0.7731   0.7742   0.8599   0.9011   0.9071   0.9088
     1.0131   1.0157   1.0868   1.1178   1.1275   1.1367   1.1387   1.1829
     1.1849   1.2189   1.2950   1.2958   1.3194   1.3481   1.3485   1.3530
     1.3598   1.4124   1.5538   1.5598   1.5607   1.5617   1.5625   1.6372
     1.7048   1.7514   1.8918   2.7109   2.7112   2.9514   2.9664   2.9866
     3.1156   3.1159   3.1236   3.5677   3.7236   3.7238   4.1842   4.2112
     4.2145   4.3286   4.3301   4.5445   4.6270   4.7255   4.7575   5.0708
     5.1648   5.1658   5.7076   5.8047   5.8063

          k = 0.2000-0.3464 0.0000 ( 93090 PWs)   bands (ev):

   -10.3395  -7.0589  -5.8334  -5.8318  -5.7594  -4.7564  -4.7557  -4.7249
    -4.7231  -4.6831  -4.6801  -4.6794  -4.6616  -4.5663  -4.5655  -4.1771
    -4.1765  -4.1738  -4.1730  -4.1085  -4.0868  -3.9448  -3.9180  -3.9173
    -3.8893  -3.8886  -3.8237  -3.7689  -3.7663  -3.7263  -3.7257  -3.6861
    -3.6403  -3.6373  -3.5957  -3.5943  -3.5185  -3.2474  -3.1449  -3.1443
    -3.1328  -3.1096  -3.1089  -3.0928  -3.0911  -3.0371  -3.0190  -2.8674
    -2.8581  -2.8500  -2.7757  -2.7639  -2.7424  -2.6958  -2.6833  -2.6728
    -2.6625  -2.6500  -2.5889  -2.5875  -2.4156  -2.4132  -2.3976  -2.3130
    -2.3114  -2.2825  -2.2807  -2.2738  -2.2037  -2.2025  -2.0505  -2.0289
    -2.0272  -2.0204  -1.9586  -1.9560  -1.8923  -1.8907  -1.8867  -1.8829
    -1.7582  -1.7224  -1.7212  -1.7095  -1.7081  -1.7043  -1.6889  -1.6596
    -1.6415  -1.5692  -1.5680  -1.5391  -1.5311  -1.4735  -1.4698  -1.4078
    -1.3875  -1.3466  -1.3449  -1.3385  -1.2918  -1.2913  -1.2873  -1.2689
    -1.2688  -1.2444  -1.2313  -1.2300  -1.1703  -1.1678  -1.0682  -1.0232
    -1.0221  -0.9502  -0.9480  -0.9441  -0.9431  -0.7640  -0.7614  -0.6191
    -0.6020  -0.5613  -0.5580  -0.5554  -0.5329  -0.5316  -0.4826  -0.4809
    -0.4513  -0.4493  -0.3911  -0.3632  -0.2486  -0.1720  -0.1690  -0.1199
    -0.1189  -0.1134  -0.0633  -0.0492   0.0775   0.0794   0.0825   0.1366
     0.1372   0.2171   0.2714   0.2759   0.2970   0.2983   0.3708   0.3775
     0.3792   0.3931   0.3962   0.4177   0.4199   0.4210   0.4313   0.5606
     0.6331   0.6349   0.7729   0.7739   0.7941   0.9401   0.9422   0.9432
     0.9439   1.0487   1.0806   1.0817   1.0919   1.0927   1.1312   1.1326
     1.1570   1.1619   1.1628   1.2222   1.2250   1.2421   1.3113   1.3373
     1.3383   1.3739   1.3747   1.4181   1.5523   1.6048   1.6060   1.6895
     1.6915   1.6930   1.7007   1.8424   1.8441   2.2911   2.3706   2.3713
     2.9086   2.9097   2.9451   2.9495   3.6392   3.6505   3.7045   3.8275
     3.8874   3.8879   4.5398   5.0166   5.0859   5.0960   5.2604   5.7392
     5.8199   5.8493   5.8561   5.8697   5.8747

          k = 0.4000-0.2309 0.0000 ( 93168 PWs)   bands (ev):

   -10.3395  -6.9215  -6.2862  -5.6302  -5.2192  -5.2191  -5.0745  -4.8524
    -4.6981  -4.5685  -4.5294  -4.4937  -4.4935  -4.3100  -4.3096  -4.2788
    -4.2697  -4.2695  -4.1470  -4.1115  -4.1112  -4.0591  -4.0587  -3.9969
    -3.9701  -3.9219  -3.9218  -3.8866  -3.6484  -3.6483  -3.6313  -3.6310
    -3.6303  -3.6293  -3.4052  -3.4043  -3.3440  -3.3440  -3.3331  -3.3325
    -3.1517  -3.0480  -3.0477  -3.0383  -3.0380  -2.9750  -2.9715  -2.9256
    -2.9110  -2.9072  -2.8324  -2.8271  -2.7592  -2.6980  -2.6927  -2.6706
    -2.6527  -2.6445  -2.6398  -2.5476  -2.5123  -2.4680  -2.4670  -2.4617
    -2.3249  -2.2488  -2.2373  -2.2254  -2.2224  -2.1353  -2.1333  -2.1146
    -1.9995  -1.9982  -1.9784  -1.9754  -1.8566  -1.8551  -1.8548  -1.8530
    -1.8506  -1.7771  -1.7605  -1.7588  -1.7535  -1.7267  -1.7257  -1.7216
    -1.7104  -1.6684  -1.6028  -1.5841  -1.5823  -1.5754  -1.5339  -1.5322
    -1.5015  -1.4281  -1.3636  -1.3277  -1.3268  -1.2875  -1.2851  -1.2538
    -1.2452  -1.2441  -1.1163  -1.1145  -1.0962  -1.0348  -1.0327  -0.9862
    -0.8489  -0.8469  -0.8168  -0.7663  -0.6785  -0.6772  -0.6642  -0.6467
    -0.6447  -0.6404  -0.6387  -0.5497  -0.5429  -0.5129  -0.5124  -0.4884
    -0.4879  -0.4683  -0.4641  -0.4221  -0.4084  -0.3067  -0.2712  -0.2698
    -0.2016  -0.1397  -0.1088  -0.1085   0.0286   0.0301   0.0906   0.1391
     0.1941   0.1956   0.2249   0.2457   0.2836   0.2838   0.3417   0.3443
     0.3906   0.3912   0.4565   0.4985   0.4995   0.5539   0.5547   0.5663
     0.5673   0.6491   0.7503   0.7540   0.8362   0.8483   0.8500   0.8559
     0.9374   0.9559   0.9570   1.0526   1.0542   1.0605   1.0613   1.1318
     1.1539   1.1543   1.1654   1.2873   1.2878   1.3117   1.3126   1.3190
     1.3224   1.3376   1.3414   1.5136   1.5554   1.5558   1.5628   1.5637
     1.7539   1.7895   2.1725   2.1786   2.2365   2.4808   2.6038   2.6042
     3.0056   3.0076   3.2025   3.3406   3.8165   3.8165   3.8435   3.9968
     4.0942   4.0972   4.2478   4.2610   4.4893   4.4902   5.1197   5.1342
     5.6549   5.6556   6.1444   6.1474   6.3518

          k = 0.4000-0.0000 0.0000 ( 93090 PWs)   bands (ev):

   -10.3395  -7.0588  -5.8336  -5.8316  -5.7594  -4.7564  -4.7556  -4.7251
    -4.7229  -4.6833  -4.6801  -4.6795  -4.6616  -4.5665  -4.5654  -4.1771
    -4.1762  -4.1740  -4.1730  -4.1084  -4.0869  -3.9449  -3.9179  -3.9174
    -3.8892  -3.8886  -3.8239  -3.7691  -3.7662  -3.7263  -3.7256  -3.6861
    -3.6401  -3.6373  -3.5961  -3.5941  -3.5183  -3.2473  -3.1449  -3.1445
    -3.1332  -3.1098  -3.1090  -3.0930  -3.0911  -3.0371  -3.0189  -2.8660
    -2.8584  -2.8498  -2.7758  -2.7643  -2.7422  -2.6963  -2.6828  -2.6711
    -2.6657  -2.6492  -2.5888  -2.5873  -2.4159  -2.4131  -2.3976  -2.3131
    -2.3115  -2.2824  -2.2807  -2.2740  -2.2037  -2.2026  -2.0504  -2.0287
    -2.0272  -2.0202  -1.9586  -1.9560  -1.8924  -1.8906  -1.8863  -1.8829
    -1.7585  -1.7224  -1.7211  -1.7094  -1.7080  -1.7044  -1.6890  -1.6596
    -1.6414  -1.5691  -1.5680  -1.5392  -1.5310  -1.4737  -1.4697  -1.4078
    -1.3874  -1.3466  -1.3447  -1.3385  -1.2921  -1.2912  -1.2872  -1.2692
    -1.2688  -1.2443  -1.2319  -1.2295  -1.1703  -1.1678  -1.0682  -1.0235
    -1.0219  -0.9503  -0.9478  -0.9440  -0.9432  -0.7640  -0.7613  -0.6189
    -0.6021  -0.5615  -0.5579  -0.5552  -0.5330  -0.5315  -0.4827  -0.4809
    -0.4514  -0.4491  -0.3911  -0.3635  -0.2484  -0.1719  -0.1691  -0.1199
    -0.1189  -0.1134  -0.0632  -0.0492   0.0775   0.0794   0.0825   0.1367
     0.1372   0.2171   0.2712   0.2760   0.2969   0.2984   0.3706   0.3774
     0.3793   0.3930   0.3962   0.4176   0.4198   0.4211   0.4312   0.5607
     0.6331   0.6350   0.7730   0.7739   0.7942   0.9402   0.9422   0.9431
     0.9439   1.0487   1.0805   1.0818   1.0917   1.0929   1.1311   1.1327
     1.1571   1.1619   1.1630   1.2222   1.2251   1.2419   1.3114   1.3374
     1.3383   1.3739   1.3747   1.4181   1.5521   1.6046   1.6060   1.6895
     1.6914   1.6930   1.7007   1.8424   1.8442   2.2911   2.3706   2.3714
     2.9085   2.9097   2.9450   2.9495   3.6392   3.6504   3.7046   3.8274
     3.8873   3.8880   4.5398   5.0165   5.0862   5.0957   5.2605   5.7393
     5.8201   5.8491   5.8559   5.8751   6.2440

          k = 0.4000 0.2309 0.0000 ( 93168 PWs)   bands (ev):

   -10.3395  -6.9215  -6.2862  -5.6302  -5.2196  -5.2186  -5.0744  -4.8526
    -4.6981  -4.5685  -4.5295  -4.4939  -4.4930  -4.3105  -4.3096  -4.2788
    -4.2702  -4.2694  -4.1471  -4.1116  -4.1109  -4.0592  -4.0588  -3.9967
    -3.9703  -3.9220  -3.9214  -3.8861  -3.6485  -3.6480  -3.6320  -3.6310
    -3.6297  -3.6291  -3.4056  -3.4038  -3.3448  -3.3439  -3.3330  -3.3323
    -3.1533  -3.0494  -3.0477  -3.0385  -3.0377  -2.9744  -2.9713  -2.9251
    -2.9109  -2.9074  -2.8315  -2.8269  -2.7555  -2.6981  -2.6942  -2.6706
    -2.6535  -2.6435  -2.6405  -2.5475  -2.5115  -2.4673  -2.4666  -2.4621
    -2.3248  -2.2492  -2.2360  -2.2257  -2.2225  -2.1347  -2.1335  -2.1135
    -2.0001  -1.9992  -1.9792  -1.9755  -1.8566  -1.8557  -1.8544  -1.8530
    -1.8503  -1.7768  -1.7603  -1.7591  -1.7540  -1.7265  -1.7259  -1.7220
    -1.7102  -1.6685  -1.6029  -1.5834  -1.5824  -1.5754  -1.5331  -1.5320
    -1.5020  -1.4287  -1.3635  -1.3282  -1.3278  -1.2871  -1.2853  -1.2539
    -1.2459  -1.2447  -1.1162  -1.1145  -1.0960  -1.0345  -1.0338  -0.9862
    -0.8483  -0.8476  -0.8159  -0.7664  -0.6789  -0.6774  -0.6642  -0.6456
    -0.6446  -0.6398  -0.6395  -0.5497  -0.5430  -0.5138  -0.5125  -0.4892
    -0.4878  -0.4681  -0.4654  -0.4213  -0.4084  -0.3070  -0.2713  -0.2703
    -0.2016  -0.1398  -0.1092  -0.1088   0.0291   0.0299   0.0908   0.1396
     0.1946   0.1958   0.2246   0.2454   0.2835   0.2843   0.3424   0.3440
     0.3908   0.3913   0.4565   0.4989   0.4994   0.5539   0.5546   0.5664
     0.5673   0.6487   0.7504   0.7538   0.8360   0.8487   0.8494   0.8559
     0.9370   0.9562   0.9569   1.0529   1.0538   1.0606   1.0614   1.1315
     1.1534   1.1539   1.1654   1.2873   1.2878   1.3120   1.3124   1.3197
     1.3227   1.3370   1.3419   1.5135   1.5555   1.5563   1.5635   1.5640
     1.7539   1.7895   2.1736   2.1792   2.2361   2.4804   2.6037   2.6042
     3.0060   3.0070   3.2017   3.3413   3.8163   3.8166   3.8441   3.9962
     4.0941   4.0972   4.2498   4.2603   4.4893   4.4900   5.1196   5.1343
     5.6544   5.6559   6.1446   6.1471   6.3517

          k = 0.4000-0.6928 0.0000 ( 93088 PWs)   bands (ev):

   -10.3394  -6.5245  -6.5224  -5.9156  -5.2647  -5.2632  -4.7523  -4.7486
    -4.6173  -4.5831  -4.4740  -4.4732  -4.3661  -4.3652  -4.2429  -4.2403
    -4.2379  -4.2015  -4.1997  -4.1706  -4.1688  -4.0435  -4.0329  -4.0317
    -3.9891  -3.9879  -3.8883  -3.7948  -3.7766  -3.7127  -3.6169  -3.6163
    -3.6005  -3.5996  -3.5828  -3.4713  -3.4693  -3.3765  -3.3743  -3.2019
    -3.1923  -3.1354  -3.0350  -3.0324  -2.9830  -2.9811  -2.8798  -2.8229
    -2.7890  -2.7745  -2.7638  -2.7444  -2.7083  -2.7004  -2.6757  -2.6678
    -2.6518  -2.5705  -2.5677  -2.5400  -2.5387  -2.5327  -2.5318  -2.5193
    -2.4589  -2.4554  -2.3246  -2.3032  -2.2537  -2.2523  -2.1368  -2.0978
    -2.0956  -2.0944  -2.0487  -2.0077  -2.0076  -1.9173  -1.8949  -1.8918
    -1.8871  -1.8537  -1.8204  -1.7762  -1.7703  -1.7305  -1.6737  -1.6718
    -1.6545  -1.6512  -1.5427  -1.4960  -1.4941  -1.4492  -1.4487  -1.4071
    -1.4063  -1.3890  -1.3873  -1.3596  -1.3579  -1.3082  -1.3072  -1.2751
    -1.2594  -1.2585  -1.2571  -1.2545  -1.2371  -1.2069  -1.1411  -1.1363
    -1.1355  -0.9286  -0.9201  -0.8286  -0.8266  -0.7198  -0.7079  -0.7063
    -0.6790  -0.6197  -0.6167  -0.6158  -0.5934  -0.5879  -0.5059  -0.4735
    -0.4714  -0.4038  -0.3835  -0.3761  -0.3207  -0.3148  -0.2684  -0.1274
    -0.0622  -0.0618  -0.0419  -0.0412   0.0522   0.0582   0.0602   0.0812
     0.0947   0.1010   0.1369   0.1378   0.2558   0.2575   0.2679   0.3244
     0.3262   0.3458   0.3556   0.3704   0.3723   0.5326   0.5817   0.6085
     0.6900   0.6931   0.7731   0.7740   0.8600   0.9012   0.9071   0.9088
     1.0131   1.0157   1.0869   1.1179   1.1274   1.1369   1.1387   1.1830
     1.1848   1.2187   1.2950   1.2958   1.3196   1.3481   1.3486   1.3530
     1.3597   1.4124   1.5539   1.5596   1.5606   1.5617   1.5624   1.6371
     1.7047   1.7514   1.8919   2.7109   2.7112   2.9513   2.9663   2.9867
     3.1156   3.1159   3.1238   3.5677   3.7236   3.7238   4.1841   4.2112
     4.2146   4.3287   4.3301   4.5441   4.6270   4.7254   4.7575   5.0708
     5.1647   5.1659   5.7079   5.8048   5.8064

          k = 0.4000-0.4619 0.0000 ( 93088 PWs)   bands (ev):

   -10.3394  -6.5248  -6.5220  -5.9157  -5.2654  -5.2626  -4.7521  -4.7485
    -4.6173  -4.5832  -4.4741  -4.4733  -4.3660  -4.3651  -4.2431  -4.2399
    -4.2379  -4.2019  -4.1997  -4.1710  -4.1681  -4.0432  -4.0329  -4.0317
    -3.9890  -3.9879  -3.8884  -3.7954  -3.7768  -3.7129  -3.6168  -3.6161
    -3.6008  -3.5993  -3.5831  -3.4706  -3.4692  -3.3773  -3.3739  -3.2014
    -3.1925  -3.1337  -3.0368  -3.0322  -2.9822  -2.9811  -2.8794  -2.8228
    -2.7930  -2.7736  -2.7623  -2.7430  -2.7090  -2.7014  -2.6757  -2.6663
    -2.6525  -2.5708  -2.5690  -2.5402  -2.5388  -2.5328  -2.5317  -2.5190
    -2.4588  -2.4551  -2.3258  -2.3033  -2.2537  -2.2521  -2.1367  -2.0990
    -2.0968  -2.0932  -2.0485  -2.0074  -2.0068  -1.9167  -1.8954  -1.8918
    -1.8872  -1.8533  -1.8196  -1.7767  -1.7703  -1.7304  -1.6745  -1.6718
    -1.6540  -1.6511  -1.5421  -1.4964  -1.4939  -1.4500  -1.4489  -1.4067
    -1.4061  -1.3901  -1.3864  -1.3590  -1.3579  -1.3079  -1.3062  -1.2763
    -1.2598  -1.2580  -1.2571  -1.2546  -1.2364  -1.2071  -1.1405  -1.1364
    -1.1353  -0.9282  -0.9196  -0.8283  -0.8269  -0.7196  -0.7080  -0.7061
    -0.6796  -0.6188  -0.6168  -0.6158  -0.5940  -0.5884  -0.5061  -0.4731
    -0.4711  -0.4041  -0.3836  -0.3762  -0.3209  -0.3146  -0.2679  -0.1273
    -0.0625  -0.0613  -0.0416  -0.0414   0.0524   0.0577   0.0598   0.0814
     0.0947   0.1009   0.1371   0.1381   0.2560   0.2574   0.2677   0.3240
     0.3265   0.3455   0.3556   0.3708   0.3721   0.5324   0.5819   0.6087
     0.6903   0.6932   0.7731   0.7738   0.8597   0.9010   0.9069   0.9087
     1.0142   1.0148   1.0869   1.1184   1.1272   1.1368   1.1389   1.1831
     1.1844   1.2188   1.2950   1.2955   1.3202   1.3484   1.3485   1.3531
     1.3597   1.4126   1.5541   1.5598   1.5601   1.5605   1.5624   1.6371
     1.7040   1.7513   1.8919   2.7109   2.7113   2.9522   2.9668   2.9858
     3.1150   3.1166   3.1241   3.5670   3.7235   3.7238   4.1837   4.2115
     4.2146   4.3288   4.3302   4.5427   4.6268   4.7259   4.7578   5.0702
     5.1652   5.1659   5.7075   5.8051   5.8069

     the Fermi energy is     1.3266 ev

!    total energy              =  -27778.20519423 Ry

     total all-electron energy =  -1326722.734695 Ry
     estimated scf accuracy    <       0.00000027 Ry
     smearing contrib. (-TS)   =       0.00244982 Ry
     internal energy E=F+TS    =  -27778.20764405 Ry

     The total energy is F=E-TS. E is the sum of the following terms:
     one-electron contribution =  -29095.27013376 Ry
     hartree contribution      =   14841.82832347 Ry
     xc contribution           =    -897.82823413 Ry
     ewald contribution        =   12853.55891318 Ry
     one-center paw contrib.   =  -25480.49651280 Ry

     convergence has been achieved in  23 iterations

     negative rho (up, down):  1.297E-02 0.000E+00

     Forces acting on atoms (cartesian axes, Ry/au):

     atom    1 type  1   force =    -0.00005453   -0.00009001   -0.00326364
     atom    2 type  1   force =     0.00004902    0.00005528   -0.00322932
     atom    3 type  1   force =    -0.00001787    0.00000137   -0.00320557
     atom    4 type  1   force =     0.00000546    0.00002684   -0.00317629
     atom    5 type  1   force =    -0.00002479   -0.00003103   -0.00316165
     atom    6 type  1   force =    -0.00000793    0.00002787   -0.00315190
     atom    7 type  1   force =     0.00004939    0.00005219   -0.00326087
     atom    8 type  1   force =    -0.00006794   -0.00001052   -0.00322439
     atom    9 type  1   force =     0.00000903   -0.00003972   -0.00315733
     atom   10 type  1   force =    -0.00007241    0.00011341    0.00313877
     atom   11 type  1   force =     0.00003667   -0.00001359    0.00301547
     atom   12 type  1   force =     0.00011357    0.00003804    0.00327256
     atom   13 type  1   force =    -0.00008798   -0.00001963    0.00310942
     atom   14 type  1   force =     0.00026288   -0.00004228    0.00318919
     atom   15 type  1   force =    -0.00007545   -0.00002572    0.00347467
     atom   16 type  1   force =    -0.00007186   -0.00002789    0.00319265
     atom   17 type  1   force =     0.00014762   -0.00026329    0.00319592
     atom   18 type  1   force =     0.00003933   -0.00013849    0.00325615
     atom   19 type  1   force =     0.00009952    0.00006032   -0.00006683
     atom   20 type  1   force =     0.00012028    0.00002425   -0.00018103
     atom   21 type  1   force =    -0.00021769   -0.00001920   -0.00009450
     atom   22 type  1   force =     0.00007965   -0.00006638    0.00008706
     atom   23 type  1   force =    -0.00017623   -0.00031302    0.00020578
     atom   24 type  1   force =     0.00006068   -0.00007565   -0.00020239
     atom   25 type  1   force =    -0.00019035    0.00005396    0.00005803
     atom   26 type  1   force =     0.00016836    0.00023864    0.00008825
     atom   27 type  1   force =    -0.00003521    0.00016293   -0.00010456
     atom   28 type  1   force =     0.00010200    0.00002660   -0.00016907
     atom   29 type  1   force =     0.00022642    0.00027186    0.00048144
     atom   30 type  1   force =    -0.00029459    0.00015854    0.00009769
     atom   31 type  1   force =     0.00014780   -0.00019142   -0.00018396
     atom   32 type  1   force =    -0.00019255   -0.00035653    0.00037284
     atom   33 type  1   force =    -0.00005888    0.00003364   -0.00008116
     atom   34 type  1   force =     0.00003905   -0.00003917   -0.00034571
     atom   35 type  1   force =     0.00007337   -0.00004093   -0.00020678
     atom   36 type  1   force =    -0.00004431    0.00005524   -0.00015885
     atom   37 type  2   force =     0.00117664   -0.00017865    0.01034759
     atom   38 type  3   force =    -0.00012700    0.00067024    0.00061243
     atom   39 type  3   force =    -0.00069857    0.00053692    0.00073960
     atom   40 type  3   force =    -0.00030445   -0.00016849    0.00047963
     atom   41 type  3   force =    -0.00018616   -0.00045654   -0.01178933

     Total force =     0.015871     Total SCF correction =     0.001341

     negative rho (up, down):  1.297E-02 0.000E+00

     negative rho (up, down):  1.297E-02 0.000E+00

     negative rho (up, down):  1.297E-02 0.000E+00

     negative rho (up, down):  1.297E-02 0.000E+00

     negative rho (up, down):  1.297E-02 0.000E+00

     negative rho (up, down):  1.297E-02 0.000E+00

     negative rho (up, down):  1.297E-02 0.000E+00

     negative rho (up, down):  1.297E-02 0.000E+00

     negative rho (up, down):  1.297E-02 0.000E+00

     negative rho (up, down):  1.297E-02 0.000E+00

     negative rho (up, down):  1.297E-02 0.000E+00

     negative rho (up, down):  1.297E-02 0.000E+00

     negative rho (up, down):  1.297E-02 0.000E+00

     negative rho (up, down):  1.297E-02 0.000E+00

     negative rho (up, down):  1.297E-02 0.000E+00

     negative rho (up, down):  1.297E-02 0.000E+00

     negative rho (up, down):  1.297E-02 0.000E+00

     negative rho (up, down):  1.297E-02 0.000E+00

     negative rho (up, down):  1.297E-02 0.000E+00

     negative rho (up, down):  1.297E-02 0.000E+00

     negative rho (up, down):  1.297E-02 0.000E+00

     negative rho (up, down):  1.297E-02 0.000E+00

     negative rho (up, down):  1.297E-02 0.000E+00

     negative rho (up, down):  1.297E-02 0.000E+00

     negative rho (up, down):  1.297E-02 0.000E+00

     negative rho (up, down):  1.297E-02 0.000E+00

     negative rho (up, down):  1.297E-02 0.000E+00

     negative rho (up, down):  1.297E-02 0.000E+00

     negative rho (up, down):  1.297E-02 0.000E+00

     negative rho (up, down):  1.297E-02 0.000E+00

     negative rho (up, down):  1.297E-02 0.000E+00

     negative rho (up, down):  1.297E-02 0.000E+00

     negative rho (up, down):  1.297E-02 0.000E+00

     negative rho (up, down):  1.297E-02 0.000E+00
 BEEFens 2000 ensemble energies
             -0.600400967442924E+02
             -0.356672852934111E+01
             -0.156886800339202E+02
              0.425078727305373E+02
             -0.219328815362464E+02
             -0.203684591777115E+02
             -0.347788748342423E+02
             -0.855383165640018E+02
             -0.461575136386562E+02
             -0.469092643957841E+02
             -0.365503104849309E+02
              0.222430874011688E+01
              0.400913493395356E+01
              0.768274676698923E+01
              0.260828685507119E+01
              0.470266251747412E+02
             -0.206913546260680E+02
             -0.229003095138653E+02
              0.190572035438818E+02
             -0.111306332668820E+03
              0.530613341216793E+02
             -0.287935775775924E+02
             -0.328349520912947E+01
             -0.113374243951212E+02
             -0.883968389272684E+01
             -0.456486295878241E+01
              0.874285097221083E+02
             -0.184821242812006E+02
             -0.890582655403318E+01
             -0.512649987033898E+02
              0.808683723293129E+02
             -0.186668731758096E+02
             -0.370761908253803E+02
              0.247252403258160E+02
             -0.282233352574724E+01
              0.161211200172165E+02
             -0.488566669836558E+01
              0.108186224198798E+02
              0.284775914325589E+02
             -0.102280580535012E+03
              0.553237437080355E+02
              0.141129603225182E+02
             -0.161404843535502E+01
             -0.358255199537006E+02
              0.122079947733611E+02
             -0.145181529158666E+02
              0.393365559396483E+02
              0.361404480282040E+02
             -0.306264535225654E+02
             -0.271724786233389E+02
             -0.325305497146666E+02
             -0.348640860726910E+02
              0.134519042666884E+02
             -0.485558235270661E+02
              0.114024709668255E+02
              0.617082633451780E+02
              0.627884770660885E+02
              0.352986005095027E+02
              0.152441638438608E+02
              0.267428424147581E+02
              0.882858372351413E+02
              0.210881247851955E+02
             -0.543214943070266E+02
             -0.156268601071397E+02
             -0.233198328093450E+02
              0.623460403863449E+02
             -0.766396451072461E+02
             -0.666164817233864E+02
             -0.256473783302314E+02
             -0.632006773331011E+01
             -0.466603873080884E+02
              0.268117820563910E+02
              0.789785941152991E+01
              0.850709926605458E+01
             -0.393805510530736E+02
             -0.343239945117027E+02
             -0.536038958628679E+02
              0.387148919987933E+02
             -0.292659782720582E+02
              0.262523562601482E+02
             -0.709923535120167E+01
             -0.315277150158464E+02
             -0.571027372237007E+02
             -0.174935732543727E+02
             -0.887099975457193E+01
             -0.123044061050184E+02
              0.408705272120415E+02
              0.675340002567177E+02
             -0.380987234656519E+02
             -0.786588690674317E+02
             -0.217843876567104E+02
              0.110435351997845E+03
             -0.587286406773530E+02
              0.353088883261453E+02
             -0.942805162763375E+01
             -0.657366731883012E+02
              0.251754017435843E+02
              0.394964272518941E+02
             -0.197288074413798E+02
              0.397485059441060E+02
             -0.293566695431762E+02
             -0.472113652688390E+02
              0.856000948982556E+02
              0.449129757776468E+02
              0.334451208259732E+02
              0.144851338679361E+02
              0.203112487669382E+02
              0.848430694401343E+02
             -0.254381963404756E+02
              0.786103956796020E+01
             -0.141035047884983E+03
              0.179447610120030E+02
             -0.709659045370776E+02
              0.149849906605228E+02
              0.202468101146490E+02
             -0.329157378681062E+02
             -0.552321935534298E+02
              0.649770915592228E+01
             -0.301273851784577E+02
              0.303421853523085E+02
             -0.525333597741166E+02
              0.179040906307796E+01
             -0.353153826633748E+02
             -0.417335322647921E+01
             -0.109128171673993E+01
              0.178977592066641E+02
              0.143471039005385E+01
             -0.646180875012101E+01
              0.583975816108811E+02
              0.899274466158338E+02
              0.479287697192670E+02
              0.823839060208370E+02
             -0.113980531657366E+02
              0.141852696044614E+02
              0.536041972424188E+02
             -0.111297078859305E+02
             -0.728580344467478E+02
             -0.380086278997161E+02
             -0.517167532874794E+02
             -0.273945272740822E+02
              0.324809007929849E+02
             -0.115566789091002E+03
             -0.186067529269687E+02
              0.409228883994279E+02
             -0.382353904058544E+02
             -0.362668049716748E+02
              0.538397258686363E+02
              0.395965133146419E+02
             -0.351424353392406E+02
              0.134651149207632E+02
             -0.271040438266724E+02
              0.339513549089290E+02
              0.437217307795686E+01
              0.210004211459993E+02
             -0.876895906693865E+02
             -0.475489544792965E+02
             -0.990162019191382E+01
              0.319608935165863E+01
             -0.362508269473335E+02
              0.104938717856202E+03
             -0.229728808945198E+02
             -0.396295801638167E+02
              0.384844341571115E+02
             -0.489632078476273E+02
             -0.359561619928399E+02
              0.321525804044571E+02
              0.123202448148622E+02
              0.163609183531514E+02
              0.114943073107831E+02
             -0.131775428884037E+02
              0.224250806698885E+02
              0.584336070250310E+02
             -0.308936168006088E+02
              0.160102438907705E+02
              0.925937888067940E+02
              0.337676533536612E+02
             -0.723703830368254E+01
             -0.186472177608185E+02
              0.151800961527876E+03
             -0.161651957030467E+02
              0.359593559554668E+02
              0.191470183798966E+02
              0.358770853473103E+02
              0.882780082446284E+02
              0.538182352296130E+02
             -0.231564153040421E+01
              0.225166932879829E+02
              0.479736683245486E+02
              0.359465381251026E+02
             -0.519616517855661E+02
              0.926838744896077E+02
             -0.817661697900077E+02
             -0.196943676660711E+02
              0.577153496827679E+02
              0.659609976325716E+01
              0.780267315531592E+01
              0.338074468263288E+02
              0.297705582739611E+02
              0.350356073379448E+02
             -0.631219868417551E+02
              0.282969824727707E+01
             -0.295308972865480E+02
             -0.860759892411873E+01
             -0.141591811785179E+01
             -0.711183923349114E+01
             -0.409045193986668E+01
              0.851420862444269E+02
             -0.100496659256265E+02
             -0.273559302620818E+02
             -0.495968259051750E+01
              0.138442733426431E+02
             -0.557477942584456E+02
             -0.401940180459823E+02
             -0.378548320501910E+02
             -0.623993838123710E+02
             -0.167566403954401E+02
             -0.443411694068976E+02
              0.161430172535863E+02
             -0.241985794590182E+01
             -0.103186135205500E+02
             -0.925931620874650E+01
              0.803473863736582E+01
             -0.241501700951397E+02
              0.683076084628913E+02
             -0.798704404860062E+02
             -0.139642332426880E+02
             -0.172676507929929E+02
              0.180597703609517E+02
              0.212341189580498E+02
             -0.458557663481149E+02
             -0.200432316659549E+02
              0.436640224323976E+02
             -0.274438238340764E+02
              0.185702990218446E+02
              0.379678534935917E+02
             -0.320422057278847E+01
              0.112979149460274E+03
             -0.228621505823476E+02
             -0.337675584737470E+02
              0.576233380886754E+01
             -0.225683511382614E+02
              0.521754466649115E+02
             -0.332764086412622E+02
              0.105263808562038E+02
              0.635177116721919E+02
             -0.125165004940356E+02
              0.119079638898041E+03
              0.124605398430277E+03
             -0.643187719703842E+02
              0.584968145226650E+02
              0.164148126982799E+02
             -0.512241159039730E+02
              0.214404805184160E+02
              0.349909835425080E+02
              0.358107025977488E+02
              0.129599308315048E+01
              0.158299750479526E+02
              0.688700944694343E+02
             -0.244664085508306E+02
              0.180545008023459E+02
              0.732151691802056E+02
             -0.368864697739325E+02
             -0.127478471354326E+02
              0.502944387688925E+02
              0.294431876187653E+02
              0.772343884463829E+02
              0.219634087573941E+02
              0.613566693153092E+01
              0.277724704299280E+02
              0.379294683804166E+02
             -0.466900971048187E+02
              0.324168478584119E+01
              0.127393212134762E+02
              0.112402079434713E+02
              0.218277121539396E+02
             -0.569068046114398E+02
              0.362778683123053E+02
             -0.439491470737844E+02
             -0.344502307387335E+02
              0.176322779905065E+02
             -0.180639584506393E+02
              0.549103291777884E+02
             -0.254587247232998E+02
              0.263785603832093E+02
              0.365011816690960E+02
              0.821548658482656E+02
              0.569687633933928E+02
              0.457042210599429E+02
             -0.105214205512237E+02
             -0.379407250249221E+01
             -0.329471604776144E+02
              0.742690608005408E+02
              0.788929393869843E+02
              0.357890566527963E+02
             -0.189236139212225E+02
              0.506831245133635E+02
             -0.162773000761387E+02
              0.213176791090826E+02
              0.607743317036415E+02
              0.214249132254972E+01
             -0.103509226724246E+02
             -0.280956847233749E+02
             -0.505972542018828E+02
              0.935952067823956E+02
              0.434918255903373E+02
             -0.552771266377751E+02
             -0.941081414312040E+01
              0.247234617015242E+02
             -0.987957046435039E+01
              0.585500709875638E+02
              0.150527287016116E+02
              0.790916267193649E+02
              0.276574039420116E+02
             -0.261236635658020E+02
              0.246776872317361E+02
             -0.494108409632787E+01
             -0.320804110461222E+02
              0.131461737931298E+02
              0.204012285657361E+02
              0.924187931434919E+02
              0.789773629312724E+02
              0.545582819887047E+02
              0.724083350786264E+02
              0.797518358224085E+01
             -0.271395064004131E+02
              0.161727061523593E+02
             -0.364622911272283E+02
             -0.470895742359471E+02
             -0.557868950577050E+02
             -0.263387984018386E+02
             -0.108651944448988E+03
             -0.287869834290025E+02
             -0.828823054809143E+02
              0.208016715395529E+02
             -0.472715073821175E+02
              0.391921056589735E+02
             -0.931753486950975E+02
             -0.327190686995404E+02
              0.544446541984638E+02
              0.205342652221447E+02
             -0.821696926676846E+02
              0.625457393278106E+02
             -0.254108648863883E+02
              0.506981617736860E+02
             -0.239677511869649E+02
             -0.743448510952708E+02
              0.110086554583496E+02
             -0.604581033841482E+02
             -0.167786029819725E+02
             -0.149011490981010E+01
              0.414016314405135E+02
              0.125768968229320E+03
             -0.457446986378251E+02
             -0.358619596033906E+02
             -0.938691404794099E+00
             -0.129642614858191E+02
             -0.814480261020446E+02
             -0.591349423585063E+02
              0.512332291228311E+02
             -0.287089691624743E+02
              0.166989037281752E+02
             -0.484374258144069E+02
             -0.130233057073876E+02
             -0.433100887654732E+02
              0.560673924478443E+02
              0.149522360040162E+02
             -0.229347187043694E+02
             -0.125205881599769E+02
              0.655451161654176E+01
             -0.611679278049712E+01
              0.437312209736068E+02
             -0.249434886794854E+02
              0.269759595936148E+01
              0.336299188720487E+02
              0.169828092763893E+02
             -0.157758951309704E+02
              0.154738660294099E+03
              0.532478323550643E+02
              0.105901315483304E+01
              0.160620412796526E+02
             -0.609078713367294E+02
              0.311661349549485E+02
             -0.713873185671418E+02
             -0.248693413410573E+02
             -0.517025392324057E+02
             -0.218338438340867E+02
              0.563563564423717E+02
             -0.531475748715017E+02
              0.158326380618256E+02
             -0.406940068520794E+01
              0.384277514638200E+01
             -0.430689898490217E+02
             -0.474166203173895E+02
             -0.398872331660266E+01
             -0.421509394900795E+02
             -0.214693567493770E+02
             -0.434420758888821E+02
             -0.118618690546251E+02
             -0.355791316318939E+02
             -0.511659723092872E+02
              0.210754329646105E+02
             -0.207845155609496E+02
              0.185542241561920E+02
              0.968347927783530E+01
             -0.730635707251258E+02
             -0.543054336647454E+02
             -0.393554441656452E+02
              0.350988238834029E+02
              0.277070522358039E+01
             -0.620469905282151E+02
              0.580356454415453E+02
             -0.397106345451727E+02
              0.539012009969199E+02
             -0.286707471382489E+02
             -0.441152971337727E+02
              0.295697667792925E+02
             -0.650371783972708E+02
             -0.376980207228630E+02
              0.667238076383520E+02
              0.202343263451229E+02
             -0.356128066685302E+02
              0.484478901297195E+02
             -0.172511508103555E+02
             -0.319384708205292E+02
             -0.298886687685478E+02
             -0.495668291822216E+02
              0.247099751216052E+02
             -0.924785135704762E+02
             -0.832813036107181E+02
             -0.726180803558282E+01
             -0.303907447487956E+02
             -0.569948826999337E+02
              0.714180784613712E+02
              0.130183838548235E+03
             -0.358779351845928E+02
             -0.250780232670127E+01
             -0.631444036901442E+02
              0.643934509838978E+02
              0.168650230113227E+02
             -0.179852402768142E+02
             -0.406526107080173E+02
              0.147015004483757E+02
             -0.580147482210058E+02
             -0.196766953443642E+02
             -0.896087359350717E+02
              0.333543555753727E+02
              0.167977851527179E+02
              0.191256889588703E+01
             -0.696468655695787E+01
             -0.325781193771695E+02
             -0.748428258312481E+01
              0.124231147192022E+03
             -0.197239718719704E+02
             -0.433069961617680E+02
             -0.677111152877184E+02
              0.108074826991325E+02
             -0.338516745407126E+02
              0.581280795905892E+01
              0.258243443578391E+02
              0.101816167683060E+02
              0.274647005233356E+02
              0.118318122382211E+02
              0.623875431138420E+02
              0.314219315109683E+02
             -0.323099173714737E+02
              0.350382042180862E+02
              0.376174132409376E+02
              0.119569597281575E+02
              0.483740930180335E+02
             -0.221742740159547E+02
              0.758626614530332E+02
              0.169761016756501E+02
             -0.268736251915592E+02
             -0.721469778106440E+01
             -0.184900434020734E+02
              0.260241434855493E+02
             -0.231661545649347E+02
             -0.242067374049952E-01
             -0.837404040500348E+01
              0.801488462873934E+02
              0.494500267759811E+02
             -0.680561075600688E+02
             -0.469862361728832E+01
             -0.550472550122790E+02
             -0.157940135620059E+02
             -0.266484671691297E+02
              0.365222658882044E+01
              0.641692446306203E+00
             -0.255022875127560E+02
              0.796918672089740E+01
             -0.593430372226780E+01
             -0.127902185519414E+02
              0.850178523560347E+02
              0.180277413441972E+02
             -0.799054899983069E+02
             -0.454926349232709E+02
              0.935670397482096E+02
              0.275478203355807E+02
             -0.105965877201324E+02
              0.103501483360881E+03
             -0.192854863941132E+02
             -0.122271976530403E+02
             -0.530654526271007E+01
              0.106028654849513E+02
              0.269336493435741E+02
              0.778439678364575E+01
              0.302560449425787E+02
             -0.186707189434499E+02
             -0.300138995575719E+02
             -0.414170459138964E+02
             -0.472236788423053E+02
              0.460283973000367E+02
              0.125373228070318E+02
              0.384053627069931E+02
              0.132157370225444E+02
              0.846866343275610E+02
              0.154245342327825E+02
             -0.838484312396081E+02
             -0.331370710979294E+02
              0.133297327753631E+02
             -0.300046230133020E+02
              0.620341521017280E+02
             -0.869552429856981E+01
              0.146759851766638E+02
              0.491761789575375E+02
             -0.699387002954076E+02
              0.148286133206948E+03
              0.206965774112464E+02
              0.268888412185057E+02
              0.344044423489394E+02
              0.103436733385034E+02
             -0.153308809186575E+01
              0.355098421256666E+02
             -0.354061363550184E+02
              0.764935740006010E+02
              0.677725085187218E+02
             -0.402320998810721E+02
              0.148184527236715E+02
              0.663001956622181E+02
             -0.221679254524993E+02
              0.152436565565530E+02
              0.431765840510061E+02
              0.418106146956672E+02
             -0.777628632440440E+02
             -0.152151521929663E+02
             -0.353294811814806E+02
             -0.144471512554372E+01
             -0.762634852231602E+01
             -0.547255206223360E+01
             -0.179424307533357E+02
             -0.291099646536181E+02
              0.620683210378476E+01
              0.111129817211054E+02
              0.530573358010492E+02
             -0.385894236760780E+02
              0.370161112959165E+02
              0.433942426429295E+02
             -0.185348513426576E+02
              0.864616958261127E+02
             -0.691203925191800E+02
             -0.102173841314921E+03
             -0.650606212860914E+01
             -0.262647899270735E+01
              0.387432612094346E+01
              0.782033397076447E+02
             -0.106844659855050E+02
              0.412576255174670E+02
              0.438051640894483E+02
              0.381472489183919E+02
             -0.988139855868701E+01
              0.621578635985732E+02
             -0.132063048298950E+02
             -0.303648220791565E+02
             -0.476115801055735E+02
              0.576567420011557E+01
              0.366062696458692E+02
             -0.600033961126738E+01
              0.389527377899916E+02
             -0.173731458704333E+01
              0.649527975960193E+02
              0.185454655381952E+02
              0.990434896263703E+01
             -0.122073661962004E+02
              0.329220602760919E+02
              0.358417607439101E+02
              0.231082455480459E+02
             -0.468330992895687E+00
             -0.545235016471618E+02
              0.257699473198659E+02
              0.173099269800158E+02
              0.399288356808230E+02
              0.269207400549493E+02
              0.368763962802376E+02
             -0.591719244552803E+01
              0.248024982607401E+02
             -0.295964621068092E+02
             -0.197413922176929E+01
             -0.564096304889950E+02
             -0.304250091347360E+02
              0.374538621867942E+02
             -0.927162924007077E+02
              0.292009352408078E+02
              0.182808122339405E+02
              0.832145526271242E+02
             -0.298963270017680E+02
              0.326497592069201E+02
             -0.136675919444961E+02
             -0.459131440960320E+02
             -0.754889430222445E+02
             -0.513697862637697E+01
             -0.851450441659932E+02
              0.198859224032767E+02
             -0.245545545854071E+02
              0.302635226302026E+02
              0.234916895488437E+02
             -0.238533052197505E+02
             -0.262880159741152E+02
              0.386756276362486E+02
             -0.582858981331137E+02
             -0.115635637936953E+02
             -0.194440728639526E+02
              0.210173907503493E+02
             -0.894162377470991E+01
              0.357902873662394E+01
             -0.199112359461245E+02
              0.553490550838048E+02
             -0.434318266702601E+02
              0.783136783162047E+01
              0.579787363716670E+02
             -0.319749560641452E+02
              0.357685413944318E+01
             -0.883544023687796E+01
             -0.663119191830601E+02
             -0.478667447259994E+02
             -0.857859024459181E+01
              0.237896928241011E+02
              0.298999122950632E+02
              0.858056369555942E+01
             -0.401250283734976E+01
              0.150123543491664E+02
             -0.435839438866624E+02
              0.335793035468942E+01
             -0.526169392414623E+02
             -0.322253991149490E+02
              0.469852381178028E+02
             -0.292170101167089E+02
              0.615858095888422E+02
             -0.212794732160383E+02
              0.350243934597488E+02
              0.239442722402985E+02
             -0.638263191329113E+02
             -0.277831293175329E+02
              0.922161365248189E+01
             -0.367839589206079E+02
             -0.335694901773946E+02
             -0.821304998529042E+02
             -0.534012614865601E+02
             -0.505620838868896E+02
             -0.410973560081417E+02
             -0.993971589899871E+00
              0.972783182501229E+01
              0.970459911436251E+00
              0.150630764260029E+02
             -0.543758681171222E+02
              0.140745919373669E+02
              0.254576949914518E+02
             -0.660084611570103E+02
             -0.696350617655991E+02
             -0.427681440576725E+02
             -0.169031064281317E+02
              0.177033865299085E+02
              0.459355338324349E+01
             -0.421315819229635E+02
              0.363341546160371E+02
             -0.213873882136964E+02
              0.512474146081559E+02
             -0.878518948806353E+02
              0.591626295215773E+02
             -0.203067660223852E+01
             -0.364670265968597E+02
             -0.213325409293940E+02
              0.469726486991648E+01
              0.369586024572977E+02
             -0.749563489423298E+02
             -0.119322626137251E+02
             -0.215177492513680E+02
              0.507100341391316E+02
              0.857041611565531E+02
             -0.955835127753902E+02
              0.934996713069487E+02
              0.463500607320690E+02
             -0.718027265030641E+02
             -0.363451373649047E+02
              0.744381278921860E+02
              0.626477695544456E+02
             -0.179618269684572E+02
             -0.455972259667976E+01
              0.715865747115099E+01
              0.641651585013489E+02
             -0.502705113397146E+02
              0.157161777620552E+02
             -0.463847688840063E+01
              0.345029749577994E+02
             -0.740213707568128E+02
             -0.644958136628406E+01
             -0.348424282984512E+02
              0.455884421678234E+02
              0.464736948557220E+02
             -0.853487294562080E+02
             -0.482455612072721E+02
             -0.254187142032138E+02
             -0.335236218510696E+02
             -0.108049021919021E+02
             -0.240745135669472E+02
              0.423124942808128E+02
              0.396584909826963E+02
             -0.562755020675962E+01
             -0.411946081899935E+02
             -0.842460992345621E+02
              0.438265629090581E+02
             -0.518719352899025E+02
             -0.309474135182849E+02
              0.539763640750054E+01
             -0.319172606961780E+02
             -0.393916016029538E+02
             -0.237495847024289E+02
             -0.380960654321332E+02
[...]
              0.281385377531410E+02
              0.140445995902734E+03
              0.239546863886005E+02
              0.120810133541642E+02
             -0.459422418025302E+02
             -0.631818652837562E+02
             -0.187981872849941E+02
              0.327133869583624E+02
             -0.422352057758394E+01
              0.188003263148272E+02
              0.332833506257166E+02
             -0.579969903399727E+02
              0.219884878701845E+02
              0.578162181083188E+02
              0.546951415566211E+02
             -0.408784899380021E+01
             -0.141975234736447E+01
             -0.987002484608368E+01
             -0.477963878658556E+02
             -0.667707640610570E+02
              0.777711819048509E+02
             -0.511304281862738E+01
             -0.582479785831648E+02
              0.163062747418383E+01
             -0.202428745918627E+02
              0.930082308535889E+02
             -0.214351312118132E+02
             -0.349842041502637E+02
              0.331954852281081E+02
             -0.144231342448026E+02
              0.384955441037812E+02
             -0.234775584971436E+01
              0.100137783462902E+03
              0.484264748657867E+02
             -0.520987710194282E+01
             -0.318025273027458E+02
              0.229491587790461E+02
             -0.523116057534813E+02
             -0.127296042534166E+02
              0.579487479163521E+02
             -0.285218326493570E+02
             -0.433857474475000E+02
             -0.220859724987548E+02
              0.513454170234309E+02
              0.123323652122544E+02
             -0.840657470504002E+02
              0.300731033412606E+02
              0.151498976056139E+02
              0.568155104889956E+01
             -0.508754345579837E+02
             -0.385609575797611E+01
              0.319605033456326E+02
              0.508148407135753E+02
              0.626306354384183E+02
              0.225769117832183E+02
              0.651126989577534E+00
             -0.492714617360254E+02
             -0.505907307697313E+02
             -0.741163235022762E+02
             -0.603678127719661E+01
              0.305890629667992E+02
             -0.381128692852528E+01
              0.541740619451665E+02
             -0.314836503482891E+02
              0.164438916837382E+02
             -0.100817531441892E+02
             -0.287025389712650E+02
              0.579914627238465E+02
              0.786877260325218E+01
              0.598174938509638E+02
              0.504381602421790E+01
              0.263030048118727E+02
             -0.190958015490061E+02
              0.579946099212499E+02
             -0.110191926303467E+02
             -0.961019744708604E-01
             -0.782393986358025E+02
             -0.127637831907640E+02
              0.712095876621213E+02
              0.666660146452981E+02
              0.249321575235883E+02
             -0.128428048914780E+02
              0.340818163353043E+01
             -0.171294141692763E+02
             -0.187741258522229E+01
              0.898866007862846E+02
              0.118302526295759E+01
             -0.187489964453243E+02
             -0.109669901437591E+03
             -0.548034050714535E+02
             -0.371346963409800E+02
             -0.652091792812778E+02
             -0.549861112225190E+02
             -0.675538854552094E+02
             -0.442770710962188E+02
             -0.408058016971870E+02
             -0.446900799336133E+02
              0.479186006222210E+02
             -0.292279391229100E+02
             -0.986465309040709E+02
              0.414980794759699E+02
             -0.256936566029202E+02
             -0.782694428900126E+02
              0.933817145442122E+02
             -0.217251504862448E+02
              0.226443629286971E+02
              0.451371808674062E+02
             -0.143337943875031E+01
              0.251857323899137E+02
              0.468408234747307E+01
              0.397399286614089E+00
             -0.149685748006363E+02
             -0.708698965889353E+02
              0.132192151199963E+02
             -0.128180660017767E+03
              0.617261956935732E+02
             -0.436664014534343E+02
             -0.160914359995076E+02
             -0.155842663157682E+02
              0.695870681235201E+01
             -0.226174257075934E+02
              0.294040961420163E+02
             -0.514522625104180E+02
              0.363710999330802E+02
              0.367006789290257E+02
              0.167250635494193E+02
              0.999795087241012E+01
              0.195655159291518E+02
              0.611781357529054E+01
              0.307296837262695E+02
             -0.795427930024218E+01
             -0.585146444540447E+02
              0.748418143500794E+01
             -0.149414991341817E+02
             -0.190408214929090E+01
              0.501000976900212E+02
             -0.819039914145148E+02
             -0.147257941759705E+01
              0.541001671334698E+00
              0.986730659870688E+01
              0.315259665010916E+02
             -0.122447341026239E+02
              0.827109452792907E+02
              0.483615076607842E+02
             -0.181529513342767E+02
             -0.944305504719944E+01
              0.100497260607739E+01
              0.761560094361347E+02
             -0.581012582249355E+02
             -0.104751299321263E+03
              0.306564930617707E+02
             -0.162457216249967E+02
             -0.138326878132196E+02
              0.128512380311491E+02
              0.760765905346094E+02
              0.459926965985555E+02
             -0.151759283353804E+02
             -0.497684191163922E+02
             -0.537716055602999E+01
              0.303622229448841E+02
             -0.109867289504771E+02
             -0.748186824887234E+02
             -0.264343546586841E+01
             -0.880178105734946E+02
             -0.470219974936106E+02
              0.760063093597110E+02
             -0.478450448190689E+02
             -0.629441409791356E+02
             -0.509301926345538E+02
             -0.345856373202493E+02
              0.337920000963323E+02
              0.813064993043613E+02
             -0.351063693455552E+01
              0.273864289619787E+02
             -0.181780871338928E+02
             -0.687010957835846E+02
              0.460267041063771E+02
             -0.440287567284123E+02
              0.319179794102857E+02
              0.373073347515778E+02
             -0.640486316642398E+01
              0.386455812342658E+02
              0.434290484606957E+02
              0.994835884120313E+02
             -0.154929558614178E+02
             -0.450666503273121E+02
             -0.606063319165850E+02
             -0.121823930557902E+02
             -0.229115762228261E+02
              0.102091721270692E+03
             -0.444949225684993E+02
              0.103897089906430E+02
              0.967545473767342E+01
             -0.262631630227159E+02
             -0.790448978843772E+02
             -0.694019885555031E+01
              0.969870633927123E+02
              0.916655456957703E+01
              0.800324445514883E+01
             -0.521160783415763E+02
             -0.599644787757109E+02
             -0.545041614834959E+01
              0.495810046605931E+02
             -0.219353634057380E+02
              0.106948894328815E+03
             -0.431297901079465E+02
              0.144212199148286E+02
             -0.222559968597232E+02
             -0.712309757144477E+02
              0.160890069667403E+01
             -0.496085090093457E+02
             -0.753079410525634E+02
              0.605100946521827E+01
              0.232818384266514E+01
              0.509127362914292E+02
              0.184497026641957E+02
             -0.320338202788053E+02
              0.227755057113301E+02
             -0.802299106763522E+02
             -0.516783991987172E+02
              0.892490756080859E+02
              0.141468278359443E+02
             -0.187421665143735E+02
             -0.349669997766375E+02
             -0.269332223967967E+01
             -0.574768252912259E+01
              0.821581330765732E+02
              0.413898696043951E+02
             -0.164933891631158E+02
             -0.121731668576756E+02
             -0.423685713711466E+02
             -0.199066607300002E+02
             -0.663505832885280E+02
              0.454865354430097E+02
              0.541447280341350E+01
              0.144085365705736E+02
              0.154276587003145E+02
             -0.441115017931974E+00
             -0.166220065215396E+02
             -0.314705046488003E+01
             -0.993031560990193E+02
             -0.228969466579602E+02
             -0.757865287011623E+01
             -0.941932284050517E+01
              0.541065833354409E+02
              0.617516088160473E+02
              0.162979818517141E+02
             -0.961135966800843E+02
              0.640929808749753E+02
             -0.212536455781567E+02
             -0.373155626906474E+02
             -0.855250975494730E+02
             -0.384182816287685E+02
              0.558376019450519E+02
              0.241364490714076E+02
              0.501141343125573E+01
              0.288698802857660E+02
             -0.559219000207652E+02
             -0.417271734000383E+02
              0.509280269353746E+02
              0.382889506194025E+02
              0.513955020034181E+02
             -0.125519867113786E+01
              0.677384566225970E+01
              0.564050806271659E+02
              0.952701034879327E+02
             -0.298306956536219E+02
              0.318938618901275E+02
             -0.116006244231883E+02
             -0.407741642897946E+02
             -0.311012640017944E+02
             -0.296970123658922E+02
             -0.129905013498990E+02
             -0.518301621763739E+02
             -0.215137017389723E+02
             -0.139852625064260E+03
              0.366098472680335E+02
              0.203870732858440E+02
             -0.390620863179733E+01
             -0.376102264425332E+02
             -0.202091245006017E+02
             -0.521152944855158E+02
              0.150840501899112E+02
              0.812010150494334E+02
             -0.250208934927950E+02
             -0.161227298830197E+02
              0.236023637351178E+02
             -0.484633355913695E+02
              0.871827086173494E+02
              0.152823378009272E+02
              0.225407170541772E+02
              0.484755270969965E+02
              0.322807058455930E+01
              0.535984558636676E+02
              0.141023281008399E+02
             -0.106354419298723E+02
              0.716911101335333E+01
              0.833398874422755E+00
              0.720299930618139E+02
              0.100662355761974E+02
              0.118576147107819E+02
             -0.129354503206912E+02
              0.131307649343206E+02
             -0.901603137230807E+02
             -0.322172953171123E+02
             -0.452292427727846E+02
              0.479947966284015E+02
             -0.287576290543065E+02
             -0.652685973129120E+02
              0.532318553398078E+02
             -0.120558759144346E+02
              0.435963613289580E+02
             -0.889447053063407E+02
              0.230299668240989E+02
              0.850505853745449E+01
              0.576843577876787E+01
             -0.818838188244888E+01
             -0.897213367593633E+01
              0.474442937658052E+02
              0.196188700657865E+01
             -0.469704526712804E+02
             -0.174242071776735E+02
              0.274446130294767E+02
             -0.116792925948740E+03
             -0.920895972913381E+02
              0.395130053591799E+01
              0.116025604878949E+02
             -0.408476056106006E+02
             -0.390191605265426E+01
              0.111060260181391E+03
              0.303144881183358E+02
             -0.566232357046540E+02
              0.915438680599888E+01
             -0.951458355084503E+01
              0.104695631556564E+02
             -0.334255809015642E+02
              0.193262532950675E+02
              0.282151592358132E+02
             -0.287275348193424E+01
              0.107023139039406E+03
             -0.139981073269964E+02
             -0.312680936673750E+02
              0.139704379540584E+02
              0.462323928420482E+02
             -0.352670960975852E+02
             -0.315526077524114E+01
              0.955114212733916E+02
             -0.462028460202316E+01
              0.616225405232232E+02
              0.133866879456314E+02
             -0.892514243544005E+01
             -0.303611060866616E+02
              0.561377510418471E+02
             -0.507981233686855E+02
             -0.219529616842533E+01
             -0.167994666625822E+02
             -0.401183608321905E+02
              0.183911865724042E+02
              0.237034184861558E+02
              0.116190279585156E+02
              0.731817015964339E+00
             -0.380200805031041E+02
              0.213433254474577E+02
             -0.673767338483097E+01
             -0.243988343433958E+02
             -0.208474358699841E+02
              0.201345277532821E+02
             -0.599959638102416E+01
             -0.345281489823669E+02
             -0.105559663905955E+03
              0.102201968283423E+02
              0.247257695558990E+02
             -0.382287678396673E+02
             -0.208544335867671E+02
              0.798843357860712E+02
              0.639618304087210E+01
              0.306281901744205E+02
              0.379517290183531E+01
              0.317599080913978E+02
              0.645146032811272E+01
             -0.368834830482056E+02
             -0.223317859447621E+01
              0.871115152839621E+01
              0.270599360376668E+02
              0.774004098606257E+02
              0.502328589163314E+02
              0.150557422117345E+00
              0.168331146580251E+02
              0.607202442572052E+02
              0.232956972921805E+02
             -0.745738227085000E+02
             -0.270912723168767E+02
              0.150099166861060E+02
              0.550873792253464E+01
              0.252307626382877E+02
             -0.542522738052866E+02
              0.891169022130330E+01
              0.381942947222998E+02
              0.492919674695414E+02
             -0.430408362506120E+02
             -0.693089751317183E+01
             -0.204825588431800E+01
             -0.131514691111518E+02
             -0.362604151659547E+02
             -0.214011169488619E+02
             -0.192551238204801E+01
              0.782388627483829E+01
              0.417140624184155E+02
             -0.304644778534479E+02
              0.818086629918431E+02
              0.323834298705063E+02
              0.217252861545491E+02
              0.329669924148069E+02
              0.320524048722694E+02
              0.342933627320126E+02
              0.531471633803856E+02
             -0.429114131612368E+02
              0.613349204669681E+02
             -0.111134008021106E+03
              0.304067711688383E+02
             -0.105446651480593E+03
              0.846261864352919E+02
              0.682733065308036E+02
             -0.108943339876142E+02
             -0.488382939010437E+02
             -0.425410244035905E+02
             -0.618039401065555E+02
             -0.622183466148008E+02
              0.546370560027613E+02
              0.401085284386403E+02
              0.234170183313360E+02
              0.371096704268792E+02
              0.398565685595159E+02
             -0.377980528150949E+02
             -0.196270568236393E+02
              0.581454248899271E+02
             -0.115097603860581E+02
              0.546970134176099E+02
              0.691599482680336E+02
             -0.552582376400358E+01
             -0.698731767495576E+02
             -0.903258380886655E+00
             -0.248594643382422E+01
             -0.870861086106288E+01
             -0.186225246952000E+01
             -0.646443859219843E+02
             -0.209580851661473E+02
              0.527962458801458E+01
              0.887682146055226E+01
              0.463848960331142E+02
             -0.393329215632230E+02
              0.652089878255955E+02
             -0.421399040387443E+02
              0.207798017679914E+02
              0.345885550517604E+02
 
 BEEF-vdW xc energy contributions
           1 :   -775.404032240070     
           2 :    712.560285585708     
           3 :   -603.804435559994     
           4 :    475.791489884843     
           5 :   -355.556394618792     
           6 :    262.600883131127     
           7 :   -204.490963107531     
           8 :    176.809318802164     
           9 :   -167.075368431846     
          10 :    160.799349274170     
          11 :   -147.213394562767     
          12 :    122.508040086209     
          13 :   -89.7114846141404     
          14 :    55.8271647095966     
          15 :   -27.8784666198216     
          16 :    9.64602957673685     
          17 :  -0.366860733489489     
          18 :   -4.32932696147930     
          19 :    9.94287441286633     
          20 :   -20.3974655561559     
          21 :    36.3421504571282     
          22 :   -55.1357147147011     
          23 :    72.3538522741183     
          24 :   -83.9982212800411     
          25 :    88.3234904785754     
          26 :   -86.4742873131322     
          27 :    81.7271993201761     
          28 :   -77.8001098070083     
          29 :    77.0836477379547     
          30 :   -79.6318386395212     
          31 :   -84.9230306911599     
          32 :   -65.1250059450309     

     Writing output data file ./pwscf.save/
 
     init_run     :    315.46s CPU    320.15s WALL (       1 calls)
     electrons    :  14440.14s CPU  14617.48s WALL (       1 calls)
     forces       :     98.77s CPU    100.05s WALL (       1 calls)

     Called by init_run:
     wfcinit      :    267.83s CPU    271.47s WALL (       1 calls)
     potinit      :     44.64s CPU     45.02s WALL (       1 calls)
     hinit0       :      1.15s CPU      1.18s WALL (       1 calls)

     Called by electrons:
     c_bands      :  12016.03s CPU  12140.54s WALL (      24 calls)
     sum_band     :   1687.77s CPU   1703.32s WALL (      24 calls)
     v_of_rho     :    122.78s CPU    128.29s WALL (      24 calls)
     newd         :     35.76s CPU     50.23s WALL (      24 calls)
     PAW_pot      :    164.36s CPU    164.38s WALL (      24 calls)
     mix_rho      :    458.67s CPU    459.47s WALL (      24 calls)
     vdW_kernel   :     33.64s CPU     33.65s WALL (       1 calls)

     Called by c_bands:
     init_us_2    :     95.98s CPU     96.26s WALL (     650 calls)
     cegterg      :  11054.18s CPU  11178.28s WALL (     312 calls)

     Called by *egterg:
     cdiaghg      :     82.79s CPU     82.88s WALL (    1734 calls)
     h_psi        :   6948.13s CPU   6991.02s WALL (    1760 calls)
     s_psi        :   1223.38s CPU   1223.36s WALL (    1760 calls)
     g_psi        :     18.92s CPU     18.97s WALL (    1435 calls)

     Called by h_psi:
     h_psi:calbec :   1151.81s CPU   1151.96s WALL (    1760 calls)
     vloc_psi     :   4542.03s CPU   4543.38s WALL (    1760 calls)
     add_vuspsi   :   1223.08s CPU   1223.11s WALL (    1760 calls)

     General routines
     calbec       :   1695.07s CPU   1695.26s WALL (    2124 calls)
     fft          :     53.83s CPU     53.85s WALL (    3464 calls)
     ffts         :    144.97s CPU    145.00s WALL (   10518 calls)
     fftw         :   4750.20s CPU   4750.94s WALL (  381614 calls)
 
     Parallel routines
 
     PWSCF        :      4h 9m CPU      4h12m WALL

 
   This run was terminated on:   1:23:55  27Sep2022            

=------------------------------------------------------------------------------=
   JOB DONE.
=------------------------------------------------------------------------------=
