
     Program PWSCF v.6.7MaX starts on 20Dec2022 at 15:46:30 

     This program is part of the open-source Quantum ESPRESSO suite
     for quantum simulation of materials; please cite
         "P. Giannozzi et al., J. Phys.:Condens. Matter 21 395502 (2009);
         "P. Giannozzi et al., J. Phys.:Condens. Matter 29 465901 (2017);
          URL http://www.quantum-espresso.org", 
     in publications or presentations arising from this work. More details at
     http://www.quantum-espresso.org/quote

     Parallel version (MPI), running on     1 processors

     MPI processes distributed on     1 nodes
     Reading input from chc-ensemble.in
Warning: card &CELL ignored
Warning: card / ignored

     Current dimensions of program PWSCF are:
     Max number of different atomic species (ntypx) = 10
     Max number of k-points (npk) =  40000
     Max angular momentum in pseudopotentials (lmaxx) =  3
     file Pt.pbe-n-kjpaw_psl.1.0.0.UPF: wavefunction(s)  6S 5D renormalized
     file C.pbe-n-kjpaw_psl.1.0.0.UPF: wavefunction(s)  2S 2P renormalized
     file H.pbe-kjpaw_psl.1.0.0.UPF: wavefunction(s)  1S renormalized

     **************************************************************************
     Initializing libbeef V0.1.2 with the BEEF-vdW functional.
     Citation: Wellendorff et al., PRB 85, 235149 (2012).
     **************************************************************************


     IMPORTANT: XC functional enforced from input :
     Exchange-correlation= BEEF-VDW
                           (   1   4  43  14   2   0   0)
     Any further DFT definition will be discarded
     Please, verify this is what you really want


     Subspace diagonalization in iterative solution of the eigenvalue problem:
     a serial algorithm will be used

 
     G-vector sticks info
     --------------------
     sticks:   dense  smooth     PW     G-vecs:    dense   smooth      PW
     Sum        4267    4267   1159               700465   700465   98823
 


     bravais-lattice index     =            0
     lattice parameter (alat)  =      16.0349  a.u.
     unit-cell volume          =   11148.8284 (a.u.)^3
     number of atoms/cell      =           39
     number of atomic types    =            3
     number of electrons       =       369.00
     number of Kohn-Sham states=          222
     kinetic-energy cutoff     =      60.0000  Ry
     charge density cutoff     =     240.0000  Ry
     scf convergence threshold =      1.0E-06
     mixing beta               =       0.7000
     number of iterations used =            8  local-TF  mixing
     Exchange-correlation= BEEF-VDW
                           (   1   4  43  14   2   0   0)

     celldm(1)=  16.034858  celldm(2)=   0.000000  celldm(3)=   0.000000
     celldm(4)=   0.000000  celldm(5)=   0.000000  celldm(6)=   0.000000

     crystal axes: (cart. coord. in units of alat)
               a(1) = (   1.000000   0.000000   0.000000 )  
               a(2) = (   0.500000   0.866025   0.000000 )  
               a(3) = (   0.000000   0.000000   3.122506 )  

     reciprocal axes: (cart. coord. in units 2 pi/alat)
               b(1) = (  1.000000 -0.577350  0.000000 )  
               b(2) = (  0.000000  1.154701  0.000000 )  
               b(3) = (  0.000000  0.000000  0.320256 )  


     PseudoPot. # 1 for Pt read from file:
     /users/bkreitz1/quantum-espresso/potentials/Pt.pbe-n-kjpaw_psl.1.0.0.UPF
     MD5 check sum: 04dc8a03c51ece93fc7b5889c2958091
     Pseudo is Projector augmented-wave + core cor, Zval = 10.0
     Generated using 'atomic' code by A. Dal Corso  v.6.7MaX
     Shape of augmentation charge: PSQ
     Using radial grid of 1277 points,  6 beta functions with: 
                l(1) =   0
                l(2) =   0
                l(3) =   1
                l(4) =   1
                l(5) =   2
                l(6) =   2
     Q(r) pseudized with 0 coefficients 


     PseudoPot. # 2 for C  read from file:
     /users/bkreitz1/quantum-espresso/potentials/C.pbe-n-kjpaw_psl.1.0.0.UPF
     MD5 check sum: a169b0ebad56f5ec0d79c4633f80bf22
     Pseudo is Projector augmented-wave + core cor, Zval =  4.0
     Generated using 'atomic' code by A. Dal Corso  v.6.7MaX
     Shape of augmentation charge: PSQ
     Using radial grid of 1073 points,  4 beta functions with: 
                l(1) =   0
                l(2) =   0
                l(3) =   1
                l(4) =   1
     Q(r) pseudized with 0 coefficients 


     PseudoPot. # 3 for H  read from file:
     /users/bkreitz1/quantum-espresso/potentials/H.pbe-kjpaw_psl.1.0.0.UPF
     MD5 check sum: ae98473e6dc62675f0d0baffdab24f65
     Pseudo is Projector augmented-wave, Zval =  1.0
     Generated using 'atomic' code by A. Dal Corso  v.6.7MaX
     Shape of augmentation charge: PSQ
     Using radial grid of  929 points,  2 beta functions with: 
                l(1) =   0
                l(2) =   0
     Q(r) pseudized with 0 coefficients 


     atomic species   valence    mass     pseudopotential
        Pt            10.00   195.08400     Pt( 1.00)
        C              4.00    12.01100     C ( 1.00)
        H              1.00     1.00800     H ( 1.00)

     No symmetry found



   Cartesian axes

     site n.     atom                  positions (alat units)
         1           Pt  tau(   1) = (   0.0000000   0.0000000   1.0017346  )
         2           Pt  tau(   2) = (   0.3333333   0.0000000   1.0017346  )
         3           Pt  tau(   3) = (   0.6666667   0.0000000   1.0017346  )
         4           Pt  tau(   4) = (   0.1666667   0.2886751   1.0017346  )
         5           Pt  tau(   5) = (   0.5000000   0.2886751   1.0017346  )
         6           Pt  tau(   6) = (   0.8333333   0.2886751   1.0017346  )
         7           Pt  tau(   7) = (   0.3333333   0.5773503   1.0017346  )
         8           Pt  tau(   8) = (   0.6666667   0.5773503   1.0017346  )
         9           Pt  tau(   9) = (   1.0000000   0.5773503   1.0017346  )
        10           Pt  tau(  10) = (   0.1666667   0.0962250   1.2739001  )
        11           Pt  tau(  11) = (   0.5000000   0.0962250   1.2739001  )
        12           Pt  tau(  12) = (   0.8333333   0.0962250   1.2739001  )
        13           Pt  tau(  13) = (   0.3333333   0.3849002   1.2739001  )
        14           Pt  tau(  14) = (   0.6666667   0.3849002   1.2739001  )
        15           Pt  tau(  15) = (   1.0000000   0.3849002   1.2739001  )
        16           Pt  tau(  16) = (   0.5000000   0.6735753   1.2739001  )
        17           Pt  tau(  17) = (   0.8333333   0.6735753   1.2739001  )
        18           Pt  tau(  18) = (   1.1666667   0.6735753   1.2739001  )
        19           Pt  tau(  19) = (   0.0015259   0.1938461   1.5454801  )
        20           Pt  tau(  20) = (   0.3334222   0.1925084   1.5464090  )
        21           Pt  tau(  21) = (   0.6660795   0.1933380   1.5442191  )
        22           Pt  tau(  22) = (   0.1665087   0.4794994   1.5452376  )
        23           Pt  tau(  23) = (   0.5007629   0.4777723   1.5473804  )
        24           Pt  tau(  24) = (   0.8334255   0.4812133   1.5415540  )
        25           Pt  tau(  25) = (   0.3341346   0.7695964   1.5395292  )
        26           Pt  tau(  26) = (   0.6699981   0.7708014   1.5473761  )
        27           Pt  tau(  27) = (   0.9992585   0.7699462   1.5440468  )
        28           Pt  tau(  28) = (  -0.0048163  -0.0018275   1.8166836  )
        29           Pt  tau(  29) = (   0.3321450  -0.0098038   1.8311666  )
        30           Pt  tau(  30) = (   0.6717821  -0.0028211   1.8158224  )
        31           Pt  tau(  31) = (   0.1532023   0.2958226   1.8310038  )
        32           Pt  tau(  32) = (   0.5066107   0.2936560   1.8324010  )
        33           Pt  tau(  33) = (   0.8315113   0.2894011   1.8159051  )
        34           Pt  tau(  34) = (   0.3325907   0.5826090   1.8165898  )
        35           Pt  tau(  35) = (   0.6657944   0.5772233   1.8164475  )
        36           Pt  tau(  36) = (   0.9988114   0.5780246   1.8157864  )
        37           C   tau(  37) = (   0.4345917   0.1289801   2.0175568  )
        38           C   tau(  38) = (   0.3063578   0.2089096   1.9707758  )
        39           H   tau(  39) = (   0.4944973   0.0956129   2.1256695  )

     number of k points=    13  Marzari-Vanderbilt smearing, width (Ry)=  0.0200
                       cart. coord. in units 2pi/alat
        k(    1) = (   0.0000000   0.0000000   0.0000000), wk =   0.0800000
        k(    2) = (   0.0000000   0.2309401   0.0000000), wk =   0.1600000
        k(    3) = (   0.0000000   0.4618802   0.0000000), wk =   0.1600000
        k(    4) = (   0.2000000  -0.1154701   0.0000000), wk =   0.1600000
        k(    5) = (   0.2000000   0.1154701   0.0000000), wk =   0.1600000
        k(    6) = (   0.2000000   0.3464102   0.0000000), wk =   0.1600000
        k(    7) = (   0.2000000  -0.5773503   0.0000000), wk =   0.1600000
        k(    8) = (   0.2000000  -0.3464102   0.0000000), wk =   0.1600000
        k(    9) = (   0.4000000  -0.2309401   0.0000000), wk =   0.1600000
        k(   10) = (   0.4000000  -0.0000000   0.0000000), wk =   0.1600000
        k(   11) = (   0.4000000   0.2309401   0.0000000), wk =   0.1600000
        k(   12) = (   0.4000000  -0.6928203   0.0000000), wk =   0.1600000
        k(   13) = (   0.4000000  -0.4618802   0.0000000), wk =   0.1600000

     Dense  grid:   700465 G-vectors     FFT dimensions: (  80,  80, 250)

     Estimated max dynamical RAM per process >       8.41 GB

     Check: negative core charge=   -0.000001

     Initial potential from superposition of free atoms

     starting charge  368.99380, renormalised to  369.00000

     negative rho (up, down):  1.189E-02 0.000E+00


     %%%%%%%%%%%%%%%%%%%%%%%%%%%%%%%%%%%%%%%%%%%%%%%%%%%%%%%%%%%%%%%%%%%%%%%%
     %                                                                      %
     % You are using vdW-DF, which was implemented by the Thonhauser group. %
     % Please cite the following two papers that made this development      %
     % possible and the two reviews that describe the various versions:     %
     %                                                                      %
     %   T. Thonhauser et al., PRL 115, 136402 (2015).                      %
     %   T. Thonhauser et al., PRB 76, 125112 (2007).                       %
     %   K. Berland et al., Rep. Prog. Phys. 78, 066501 (2015).             %
     %   D.C. Langreth et al., J. Phys.: Condens. Matter 21, 084203 (2009). %
     %                                                                      %
     %                                                                      %
     % If you are calculating the stress with vdW-DF, please also cite:     %
     %                                                                      %
     %   R. Sabatini et al., J. Phys.: Condens. Matter 24, 424209 (2012).   %
     %                                                                      %
     %%%%%%%%%%%%%%%%%%%%%%%%%%%%%%%%%%%%%%%%%%%%%%%%%%%%%%%%%%%%%%%%%%%%%%%%


     Starting wfcs are  333 randomized atomic wfcs
     Checking if some PAW data can be deallocated... 

     total cpu time spent up to now is      334.2 secs

     Self-consistent Calculation

     iteration #  1     ecut=    60.00 Ry     beta= 0.70
     Davidson diagonalization with overlap
     ethr =  1.00E-02,  avg # of iterations =  2.0

     Threshold (ethr) on eigenvalues was too large:
     Diagonalizing with lowered threshold

     Davidson diagonalization with overlap
     ethr =  6.50E-04,  avg # of iterations =  3.5

     negative rho (up, down):  1.501E-02 0.000E+00

     total cpu time spent up to now is     1651.3 secs

     total energy              =  -27792.99649422 Ry
     estimated scf accuracy    <       2.66225673 Ry

     iteration #  2     ecut=    60.00 Ry     beta= 0.70
     Davidson diagonalization with overlap
     ethr =  7.21E-04,  avg # of iterations =  2.0

     negative rho (up, down):  1.298E-02 0.000E+00

     total cpu time spent up to now is     2236.4 secs

     total energy              =  -27793.23367167 Ry
     estimated scf accuracy    <       1.04761862 Ry

     iteration #  3     ecut=    60.00 Ry     beta= 0.70
     Davidson diagonalization with overlap
     ethr =  2.84E-04,  avg # of iterations =  2.0

     negative rho (up, down):  1.071E-02 0.000E+00

     total cpu time spent up to now is     2827.4 secs

     total energy              =  -27793.30725833 Ry
     estimated scf accuracy    <       0.41074870 Ry

     iteration #  4     ecut=    60.00 Ry     beta= 0.70
     Davidson diagonalization with overlap
     ethr =  1.11E-04,  avg # of iterations = 12.2

     negative rho (up, down):  8.514E-03 0.000E+00

     total cpu time spent up to now is     3571.3 secs

     total energy              =  -27793.34097973 Ry
     estimated scf accuracy    <       0.09953592 Ry

     iteration #  5     ecut=    60.00 Ry     beta= 0.70
     Davidson diagonalization with overlap
     ethr =  2.70E-05,  avg # of iterations =  7.1

     negative rho (up, down):  6.678E-03 0.000E+00

     total cpu time spent up to now is     4362.8 secs

     total energy              =  -27793.36285880 Ry
     estimated scf accuracy    <       0.08054713 Ry

     iteration #  6     ecut=    60.00 Ry     beta= 0.70
     Davidson diagonalization with overlap
     ethr =  2.18E-05,  avg # of iterations =  1.7

     negative rho (up, down):  5.402E-03 0.000E+00

     total cpu time spent up to now is     4856.7 secs

     total energy              =  -27793.36517894 Ry
     estimated scf accuracy    <       0.01001219 Ry

     iteration #  7     ecut=    60.00 Ry     beta= 0.70
     Davidson diagonalization with overlap
     c_bands:  1 eigenvalues not converged
     c_bands:  1 eigenvalues not converged
     c_bands:  1 eigenvalues not converged
     ethr =  2.71E-06,  avg # of iterations = 17.3

     negative rho (up, down):  4.895E-03 0.000E+00

     total cpu time spent up to now is     5689.9 secs

     total energy              =  -27793.36700756 Ry
     estimated scf accuracy    <       0.00372009 Ry

     iteration #  8     ecut=    60.00 Ry     beta= 0.70
     Davidson diagonalization with overlap
     ethr =  1.01E-06,  avg # of iterations =  2.8

     negative rho (up, down):  4.853E-03 0.000E+00

     total cpu time spent up to now is     6223.6 secs

     total energy              =  -27793.36730456 Ry
     estimated scf accuracy    <       0.00147601 Ry

     iteration #  9     ecut=    60.00 Ry     beta= 0.70
     Davidson diagonalization with overlap
     ethr =  4.00E-07,  avg # of iterations =  2.3

     negative rho (up, down):  5.301E-03 0.000E+00

     total cpu time spent up to now is     6755.4 secs

     total energy              =  -27793.36741653 Ry
     estimated scf accuracy    <       0.00117322 Ry

     iteration # 10     ecut=    60.00 Ry     beta= 0.70
     Davidson diagonalization with overlap
     c_bands:  3 eigenvalues not converged
     ethr =  3.18E-07,  avg # of iterations =  5.4

     negative rho (up, down):  5.790E-03 0.000E+00

     total cpu time spent up to now is     7300.2 secs

     total energy              =  -27793.36745149 Ry
     estimated scf accuracy    <       0.00072752 Ry

     iteration # 11     ecut=    60.00 Ry     beta= 0.70
     Davidson diagonalization with overlap
     c_bands:  1 eigenvalues not converged
     ethr =  1.97E-07,  avg # of iterations =  4.3

     negative rho (up, down):  7.490E-03 0.000E+00

     total cpu time spent up to now is     7834.5 secs

     total energy              =  -27793.36746501 Ry
     estimated scf accuracy    <       0.00043581 Ry

     iteration # 12     ecut=    60.00 Ry     beta= 0.70
     Davidson diagonalization with overlap
     ethr =  1.18E-07,  avg # of iterations =  3.2

     negative rho (up, down):  7.895E-03 0.000E+00

     total cpu time spent up to now is     8366.2 secs

     total energy              =  -27793.36749598 Ry
     estimated scf accuracy    <       0.00019894 Ry

     iteration # 13     ecut=    60.00 Ry     beta= 0.70
     Davidson diagonalization with overlap
     ethr =  5.39E-08,  avg # of iterations =  2.0

     negative rho (up, down):  1.031E-02 0.000E+00

     total cpu time spent up to now is     8892.6 secs

     total energy              =  -27793.36751222 Ry
     estimated scf accuracy    <       0.00010012 Ry

     iteration # 14     ecut=    60.00 Ry     beta= 0.70
     Davidson diagonalization with overlap
     ethr =  2.71E-08,  avg # of iterations =  2.0

     negative rho (up, down):  1.141E-02 0.000E+00

     total cpu time spent up to now is     9432.2 secs

     total energy              =  -27793.36752016 Ry
     estimated scf accuracy    <       0.00006488 Ry

     iteration # 15     ecut=    60.00 Ry     beta= 0.70
     Davidson diagonalization with overlap
     ethr =  1.76E-08,  avg # of iterations =  2.0

     negative rho (up, down):  1.228E-02 0.000E+00

     total cpu time spent up to now is     9954.7 secs

     total energy              =  -27793.36752058 Ry
     estimated scf accuracy    <       0.00002490 Ry

     iteration # 16     ecut=    60.00 Ry     beta= 0.70
     Davidson diagonalization with overlap
     ethr =  6.75E-09,  avg # of iterations =  3.8

     negative rho (up, down):  1.271E-02 0.000E+00

     total cpu time spent up to now is    10548.9 secs

     total energy              =  -27793.36752390 Ry
     estimated scf accuracy    <       0.00000537 Ry

     iteration # 17     ecut=    60.00 Ry     beta= 0.70
     Davidson diagonalization with overlap
     ethr =  1.45E-09,  avg # of iterations =  5.0

     negative rho (up, down):  1.289E-02 0.000E+00

     total cpu time spent up to now is    11466.3 secs

     total energy              =  -27793.36752639 Ry
     estimated scf accuracy    <       0.00000317 Ry

     iteration # 18     ecut=    60.00 Ry     beta= 0.70
     Davidson diagonalization with overlap
     c_bands:  1 eigenvalues not converged
     ethr =  8.59E-10,  avg # of iterations =  3.4

     negative rho (up, down):  1.302E-02 0.000E+00

     total cpu time spent up to now is    11987.8 secs

     total energy              =  -27793.36752627 Ry
     estimated scf accuracy    <       0.00000166 Ry

     iteration # 19     ecut=    60.00 Ry     beta= 0.70
     Davidson diagonalization with overlap
     ethr =  4.50E-10,  avg # of iterations =  1.6

     negative rho (up, down):  1.292E-02 0.000E+00

     total cpu time spent up to now is    12447.7 secs

     End of self-consistent calculation

          k = 0.0000 0.0000 0.0000 ( 87663 PWs)   bands (ev):

   -14.0700  -8.0690  -6.7568  -5.6808  -5.4262  -4.7449  -4.7162  -4.3789
    -4.3592  -4.3403  -4.3396  -4.3082  -4.2527  -4.1872  -3.9245  -3.8001
    -3.7991  -3.7840  -3.7371  -3.6860  -3.6730  -3.4066  -3.3829  -3.3703
    -3.2682  -3.2333  -3.2095  -3.1484  -3.1276  -3.1192  -3.0325  -3.0276
    -3.0189  -2.9968  -2.9691  -2.9370  -2.9304  -2.9290  -2.8706  -2.8548
    -2.8353  -2.8185  -2.7679  -2.7240  -2.5531  -2.3606  -2.3559  -2.2895
    -2.2644  -2.2500  -2.2383  -2.2166  -2.2085  -2.1873  -2.0555  -2.0175
    -2.0112  -1.9460  -1.9058  -1.5971  -1.5747  -1.5318  -1.5186  -1.4714
    -1.4539  -1.4400  -1.3778  -1.3587  -1.3234  -1.2902  -1.2647  -1.2622
    -1.2469  -1.2453  -1.2339  -1.2278  -1.2121  -1.2055  -1.1864  -1.1514
    -1.1404  -1.1062  -1.1032  -1.0736  -1.0486  -1.0396  -1.0192  -1.0016
    -0.8925  -0.8682  -0.8620  -0.8556  -0.8362  -0.8179  -0.8029  -0.7824
    -0.7576  -0.7398  -0.7348  -0.7187  -0.7104  -0.6068  -0.6067  -0.5669
    -0.5645  -0.5278  -0.4768  -0.4455  -0.4287  -0.4217  -0.3913  -0.3352
    -0.2310  -0.0501  -0.0122  -0.0015   0.0015   0.0614   0.0726   0.0795
     0.0860   0.1582   0.2144   0.2294   0.2474   0.2858   0.2916   0.3294
     0.3469   0.3526   0.3598   0.4095   0.4738   0.5574   0.5793   0.5826
     0.5876   0.7331   0.7671   0.7783   0.7895   0.7993   0.8104   0.8709
     0.8728   0.8939   0.9625   1.0376   1.0411   1.0556   1.0634   1.0767
     1.1545   1.1710   1.1909   1.2302   1.2460   1.2648   1.2673   1.2739
     1.2817   1.3020   1.3060   1.3101   1.3241   1.3290   1.3763   1.3810
     1.3956   1.4224   1.4396   1.4915   1.4994   1.5084   1.5434   1.5489
     1.5809   1.5927   1.6307   1.6332   1.6456   1.6592   1.6605   1.6861
     1.7056   1.7117   1.7423   1.7606   1.7851   1.7860   1.8545   1.9207
     2.0075   2.0194   2.0435   2.0723   2.0751   2.1035   2.1272   2.1886
     2.5303   2.8585   2.9375   2.9529   2.9659   3.3784   3.3847   4.7489
     5.2084   5.2498   5.2764   5.3680   5.5520   5.7059   6.0217   6.3452
     6.7246   6.8233   6.8765   6.8810   6.8917   6.9783

          k = 0.0000 0.2309 0.0000 ( 87474 PWs)   bands (ev):

   -14.0695  -8.0669  -6.6140  -5.6341  -5.3366  -4.9100  -4.6503  -4.5958
    -4.4346  -4.3747  -4.2198  -4.1297  -4.0984  -4.0593  -3.9009  -3.8797
    -3.7692  -3.7278  -3.7162  -3.6453  -3.6060  -3.4369  -3.3463  -3.3143
    -3.2939  -3.2405  -3.2097  -3.1733  -3.1675  -3.1264  -3.1068  -3.0908
    -3.0236  -2.9997  -2.9898  -2.9339  -2.9157  -2.8964  -2.8210  -2.7855
    -2.7648  -2.6945  -2.6642  -2.6435  -2.5414  -2.4280  -2.4030  -2.3740
    -2.3518  -2.3129  -2.2877  -2.2442  -2.1608  -2.0960  -2.0586  -2.0364
    -1.9943  -1.9580  -1.9216  -1.7518  -1.6781  -1.6450  -1.6124  -1.6001
    -1.5780  -1.5597  -1.5201  -1.4840  -1.4700  -1.4321  -1.4146  -1.3421
    -1.3126  -1.2969  -1.2800  -1.2650  -1.2242  -1.1781  -1.1598  -1.1393
    -1.1053  -1.0937  -1.0702  -1.0596  -1.0424  -1.0136  -0.9721  -0.9460
    -0.9201  -0.8951  -0.8840  -0.8707  -0.8476  -0.8196  -0.8083  -0.7758
    -0.7554  -0.7258  -0.7074  -0.6964  -0.6834  -0.6640  -0.6324  -0.6231
    -0.6128  -0.5879  -0.5641  -0.4913  -0.4595  -0.4313  -0.3855  -0.3534
    -0.3299  -0.3237  -0.3204  -0.2835  -0.1580  -0.0741  -0.0215   0.0013
     0.0341   0.0747   0.0933   0.1077   0.1286   0.1937   0.2260   0.3081
     0.3222   0.3838   0.4159   0.4637   0.4800   0.4961   0.5067   0.5292
     0.5607   0.6188   0.6597   0.6878   0.7042   0.7098   0.7470   0.8138
     0.8363   0.8650   0.9048   0.9131   0.9294   0.9851   1.0227   1.0681
     1.0746   1.0947   1.1174   1.1481   1.1838   1.2295   1.2650   1.2859
     1.2945   1.3152   1.3445   1.3649   1.4166   1.4339   1.4881   1.5105
     1.5151   1.5600   1.5883   1.6122   1.6432   1.6588   1.6831   1.7039
     1.7203   1.7434   1.7646   1.7760   1.7965   1.8218   1.8664   1.9202
     1.9527   1.9674   2.0003   2.0099   2.0361   2.0447   2.0569   2.0859
     2.1436   2.1750   2.1899   2.2123   2.2472   2.3467   2.3838   2.4619
     2.6344   2.7951   3.0193   3.3896   3.5220   3.6283   3.7393   4.5794
     4.8649   5.1290   5.3776   5.4861   5.7323   5.7883   5.9212   5.9756
     6.2492   6.4967   6.6802   6.8347   6.9220   7.0891

          k = 0.0000 0.4619 0.0000 ( 87490 PWs)   bands (ev):

   -14.0686  -8.0638  -6.2058  -5.6598  -5.4750  -5.0181  -4.6993  -4.5068
    -4.4563  -4.3493  -4.1966  -4.0318  -3.9601  -3.8348  -3.7731  -3.7515
    -3.6903  -3.5803  -3.5652  -3.5488  -3.5366  -3.5094  -3.4063  -3.3688
    -3.3547  -3.3428  -3.3082  -3.2888  -3.2314  -3.2029  -3.1865  -3.0861
    -2.9802  -2.9628  -2.9291  -2.9213  -2.8855  -2.8244  -2.7570  -2.7005
    -2.6727  -2.6558  -2.6254  -2.5570  -2.5346  -2.4646  -2.4328  -2.4007
    -2.3262  -2.3051  -2.2538  -2.2390  -2.2000  -2.1890  -2.1654  -2.0832
    -2.0225  -1.9996  -1.9790  -1.9119  -1.8595  -1.8298  -1.8111  -1.7805
    -1.7475  -1.6831  -1.6338  -1.6109  -1.5875  -1.5472  -1.5000  -1.4648
    -1.4478  -1.4234  -1.3767  -1.3218  -1.2956  -1.2426  -1.2198  -1.1810
    -1.1635  -1.1411  -1.1290  -1.1039  -1.0860  -1.0728  -1.0481  -1.0225
    -1.0107  -0.9854  -0.9623  -0.9398  -0.9129  -0.8935  -0.8726  -0.8440
    -0.8299  -0.7620  -0.7364  -0.6932  -0.6709  -0.6458  -0.6364  -0.6281
    -0.5577  -0.5508  -0.5288  -0.4979  -0.4573  -0.3947  -0.3739  -0.3606
    -0.3380  -0.3282  -0.2890  -0.1973  -0.1337  -0.1143  -0.0890  -0.0526
    -0.0345   0.0031   0.0314   0.0671   0.0748   0.0999   0.1067   0.1339
     0.1692   0.1899   0.2093   0.2251   0.2809   0.3433   0.3585   0.3824
     0.4173   0.4683   0.5716   0.5944   0.6262   0.6615   0.7116   0.7750
     0.8121   0.8506   0.8718   0.8957   0.9467   0.9674   0.9962   1.0125
     1.0627   1.0757   1.1062   1.1344   1.1709   1.1896   1.2181   1.2390
     1.2472   1.3136   1.3612   1.3937   1.4704   1.4859   1.5084   1.5572
     1.5833   1.6369   1.6395   1.6854   1.7123   1.7251   1.7694   1.7979
     1.8237   1.8651   1.9261   1.9305   1.9465   1.9551   1.9780   2.0144
     2.0518   2.1060   2.1428   2.2039   2.2312   2.2363   2.2781   2.2990
     2.3721   2.4721   2.6166   2.7830   2.9990   3.0953   3.2458   3.2916
     3.4957   3.6313   3.7759   3.9949   4.2034   4.3961   4.4787   4.5555
     4.6205   4.7186   4.8607   4.9791   5.0384   5.2314   5.5908   5.6770
     5.9115   6.0645   6.3434   6.5806   6.7821   6.8874

          k = 0.2000-0.1155 0.0000 ( 87474 PWs)   bands (ev):

   -14.0696  -8.0663  -6.6123  -5.6328  -5.3325  -4.8398  -4.7252  -4.6081
    -4.4342  -4.3503  -4.2196  -4.1401  -4.0820  -4.0445  -3.9711  -3.8786
    -3.7985  -3.7278  -3.7179  -3.6155  -3.6075  -3.4146  -3.3287  -3.3232
    -3.3206  -3.2493  -3.2168  -3.1645  -3.1410  -3.1275  -3.0945  -3.0861
    -3.0250  -2.9994  -2.9934  -2.9407  -2.9334  -2.8898  -2.8090  -2.7854
    -2.7749  -2.6966  -2.6624  -2.6264  -2.5122  -2.4015  -2.3935  -2.3826
    -2.3443  -2.3000  -2.2924  -2.2712  -2.1712  -2.1571  -2.0617  -2.0372
    -1.9692  -1.9594  -1.9160  -1.7461  -1.6708  -1.6670  -1.6133  -1.5999
    -1.5638  -1.5569  -1.5221  -1.4792  -1.4606  -1.4361  -1.3902  -1.3603
    -1.3204  -1.3137  -1.2813  -1.2672  -1.2234  -1.1837  -1.1660  -1.1309
    -1.1172  -1.0719  -1.0537  -1.0320  -1.0220  -1.0099  -1.0040  -0.9531
    -0.9322  -0.8968  -0.8829  -0.8637  -0.8594  -0.8346  -0.8202  -0.8005
    -0.7619  -0.7327  -0.7150  -0.7004  -0.6938  -0.6695  -0.6313  -0.6248
    -0.5929  -0.5904  -0.5668  -0.5286  -0.4581  -0.4001  -0.3989  -0.3660
    -0.3395  -0.3258  -0.3198  -0.3188  -0.0834  -0.0796  -0.0132  -0.0115
     0.0550   0.0762   0.0885   0.1077   0.1399   0.1716   0.2247   0.3130
     0.3227   0.3870   0.4069   0.4641   0.4834   0.5016   0.5043   0.5495
     0.5773   0.5863   0.6653   0.6956   0.7098   0.7157   0.7786   0.8138
     0.8287   0.8574   0.8993   0.9085   0.9479   0.9831   1.0225   1.0709
     1.0738   1.0917   1.1408   1.1462   1.2054   1.2135   1.2793   1.2911
     1.3122   1.3137   1.3584   1.3722   1.3961   1.4393   1.4932   1.5050
     1.5367   1.5605   1.5945   1.6052   1.6503   1.6611   1.6863   1.7060
     1.7185   1.7399   1.7657   1.7949   1.7993   1.8659   1.8753   1.9011
     1.9429   1.9647   1.9963   1.9991   2.0359   2.0451   2.0559   2.0789
     2.1642   2.1778   2.1877   2.2184   2.2373   2.3335   2.3932   2.3958
     2.6069   2.7863   3.0391   3.3834   3.5454   3.6648   3.6897   4.5406
     4.7772   5.1621   5.4242   5.5289   5.6276   5.8609   5.8817   6.0980
     6.1640   6.4690   6.7797   6.8006   6.9174   6.9382

          k = 0.2000 0.1155 0.0000 ( 87474 PWs)   bands (ev):

   -14.0695  -8.0666  -6.6140  -5.6318  -5.3378  -4.9182  -4.6427  -4.5960
    -4.4331  -4.3787  -4.2198  -4.1302  -4.0983  -4.0598  -3.8985  -3.8788
    -3.7635  -3.7283  -3.7166  -3.6482  -3.6090  -3.4404  -3.3460  -3.3121
    -3.2929  -3.2403  -3.2092  -3.1767  -3.1674  -3.1269  -3.1059  -3.0911
    -3.0239  -2.9998  -2.9907  -2.9323  -2.9152  -2.8967  -2.8209  -2.7841
    -2.7650  -2.6986  -2.6620  -2.6416  -2.5466  -2.4275  -2.4044  -2.3729
    -2.3508  -2.3083  -2.2894  -2.2414  -2.1585  -2.0932  -2.0598  -2.0401
    -1.9969  -1.9568  -1.9256  -1.7522  -1.6769  -1.6438  -1.6115  -1.6016
    -1.5801  -1.5600  -1.5197  -1.4838  -1.4674  -1.4321  -1.4122  -1.3418
    -1.3135  -1.2950  -1.2797  -1.2622  -1.2317  -1.1768  -1.1603  -1.1397
    -1.1074  -1.0936  -1.0697  -1.0597  -1.0432  -1.0133  -0.9704  -0.9459
    -0.9236  -0.8939  -0.8845  -0.8717  -0.8457  -0.8170  -0.8069  -0.7743
    -0.7536  -0.7244  -0.7105  -0.6942  -0.6813  -0.6655  -0.6314  -0.6245
    -0.6124  -0.5890  -0.5632  -0.4910  -0.4550  -0.4314  -0.3858  -0.3533
    -0.3298  -0.3233  -0.3202  -0.2850  -0.1596  -0.0701  -0.0213   0.0029
     0.0321   0.0741   0.0937   0.1092   0.1278   0.1920   0.2257   0.3064
     0.3195   0.3847   0.4184   0.4633   0.4764   0.4962   0.5069   0.5285
     0.5605   0.6187   0.6521   0.6880   0.7034   0.7103   0.7472   0.8132
     0.8380   0.8681   0.9065   0.9131   0.9333   0.9870   1.0255   1.0683
     1.0748   1.0938   1.1179   1.1475   1.1830   1.2308   1.2636   1.2856
     1.2951   1.3154   1.3455   1.3632   1.4152   1.4337   1.4868   1.5096
     1.5146   1.5598   1.5879   1.6125   1.6430   1.6591   1.6830   1.7047
     1.7205   1.7416   1.7647   1.7760   1.7956   1.8193   1.8664   1.9200
     1.9530   1.9672   2.0001   2.0090   2.0361   2.0445   2.0561   2.0864
     2.1455   2.1727   2.1922   2.2129   2.2457   2.3478   2.3848   2.4607
     2.6378   2.7956   3.0205   3.3894   3.5174   3.6338   3.7348   4.5840
     4.8721   5.1148   5.3842   5.4860   5.7147   5.7806   5.9158   5.9884
     6.2441   6.5039   6.6878   6.8480   6.9148   6.9376

          k = 0.2000 0.3464 0.0000 ( 87490 PWs)   bands (ev):

   -14.0687  -8.0640  -6.3396  -5.5954  -5.1858  -5.1383  -5.0248  -4.5579
    -4.4366  -4.0530  -4.0375  -3.9996  -3.9557  -3.9522  -3.9056  -3.8516
    -3.8310  -3.7848  -3.6160  -3.4870  -3.4537  -3.4512  -3.4374  -3.3623
    -3.3516  -3.2819  -3.2437  -3.2134  -3.1416  -3.1266  -3.1065  -3.0832
    -3.0554  -3.0472  -2.9726  -2.9643  -2.9348  -2.9017  -2.8458  -2.7787
    -2.7552  -2.6037  -2.5448  -2.5321  -2.5106  -2.4835  -2.4052  -2.3802
    -2.3478  -2.3052  -2.2920  -2.2134  -2.1979  -2.0873  -2.0606  -2.0219
    -1.9948  -1.9900  -1.9713  -1.9111  -1.8979  -1.7667  -1.7288  -1.7217
    -1.6777  -1.6578  -1.6374  -1.5999  -1.5788  -1.5659  -1.5113  -1.4488
    -1.4326  -1.3564  -1.3447  -1.3301  -1.3193  -1.2814  -1.2022  -1.1758
    -1.1463  -1.1433  -1.0916  -1.0749  -1.0593  -1.0512  -1.0088  -0.9925
    -0.9848  -0.9545  -0.9252  -0.9138  -0.9063  -0.8680  -0.8260  -0.7990
    -0.7821  -0.7560  -0.7415  -0.7179  -0.6843  -0.6555  -0.6351  -0.6212
    -0.6021  -0.5934  -0.5730  -0.5539  -0.5268  -0.5075  -0.4180  -0.3940
    -0.3620  -0.3372  -0.3134  -0.2594  -0.2080  -0.1536  -0.0929  -0.0306
    -0.0188   0.0099   0.0607   0.0726   0.1092   0.1250   0.1347   0.2019
     0.2329   0.2469   0.2675   0.3211   0.3491   0.4085   0.4343   0.4619
     0.4969   0.5070   0.5688   0.6135   0.6432   0.7011   0.7298   0.7436
     0.7573   0.7875   0.8444   0.8817   0.9114   0.9233   0.9897   0.9980
     1.0333   1.0658   1.0803   1.0925   1.1279   1.1503   1.1907   1.2185
     1.2414   1.3113   1.3822   1.4656   1.4938   1.5724   1.5880   1.6157
     1.6482   1.6719   1.7045   1.7369   1.7465   1.7884   1.8069   1.8318
     1.8430   1.8520   1.8915   1.9010   1.9078   1.9461   1.9667   2.0085
     2.0404   2.0542   2.1039   2.1605   2.2205   2.2344   2.2650   2.2981
     2.3234   2.3676   2.4484   2.4875   2.6187   2.9239   2.9960   3.0310
     3.3797   3.5323   3.5669   3.7129   3.9590   4.2899   4.3500   4.4715
     4.5216   4.6347   5.1813   5.2074   5.5964   5.7082   5.7583   6.0397
     6.1022   6.2090   6.4169   6.4960   6.6130   6.7152

          k = 0.2000-0.5774 0.0000 ( 87504 PWs)   bands (ev):

   -14.0684  -8.0622  -5.8691  -5.7976  -5.5124  -5.1772  -4.7789  -4.6982
    -4.3391  -4.2081  -3.9880  -3.9516  -3.8833  -3.8381  -3.7324  -3.7076
    -3.6405  -3.6183  -3.5537  -3.5235  -3.4973  -3.4820  -3.4608  -3.4438
    -3.3729  -3.3268  -3.3051  -3.2961  -3.2591  -3.2450  -3.1716  -3.1226
    -3.0591  -3.0236  -2.9371  -2.9235  -2.8875  -2.8402  -2.8162  -2.7716
    -2.6792  -2.6485  -2.6099  -2.5262  -2.4907  -2.4649  -2.4418  -2.3465
    -2.3140  -2.2609  -2.1913  -2.1704  -2.1249  -2.1118  -2.0806  -2.0352
    -1.9849  -1.9604  -1.9465  -1.9184  -1.8726  -1.8498  -1.8429  -1.8038
    -1.7904  -1.7566  -1.7279  -1.6806  -1.6528  -1.6232  -1.5797  -1.5547
    -1.5013  -1.4347  -1.4080  -1.3983  -1.3745  -1.3399  -1.3224  -1.3134
    -1.2276  -1.2039  -1.1850  -1.1540  -1.1473  -1.1041  -1.0317  -1.0119
    -0.9995  -0.9906  -0.9812  -0.9707  -0.8671  -0.8434  -0.8067  -0.7772
    -0.7517  -0.7261  -0.7115  -0.6855  -0.6766  -0.6647  -0.6513  -0.6386
    -0.6030  -0.5829  -0.5545  -0.5291  -0.5168  -0.5132  -0.4960  -0.4773
    -0.4420  -0.3266  -0.2787  -0.2530  -0.1806  -0.1441  -0.0810  -0.0723
    -0.0474  -0.0216  -0.0037   0.0271   0.0364   0.0872   0.1183   0.1407
     0.1732   0.1943   0.2360   0.2866   0.3192   0.3409   0.3727   0.4223
     0.4507   0.5071   0.5700   0.6101   0.6464   0.6666   0.6881   0.7290
     0.7590   0.7682   0.7952   0.8206   0.8596   0.8920   0.9408   0.9502
     0.9767   0.9913   1.0345   1.0496   1.1150   1.1647   1.2335   1.2765
     1.3505   1.3936   1.4274   1.4680   1.5027   1.5597   1.5910   1.6298
     1.6490   1.7130   1.7337   1.7681   1.7781   1.8007   1.8236   1.8601
     1.9161   1.9226   1.9325   1.9674   1.9736   2.0076   2.0184   2.0912
     2.1101   2.1586   2.2000   2.2347   2.2512   2.2626   2.2990   2.3185
     2.4011   2.4883   2.6089   3.0390   3.3740   3.4065   3.5685   3.6213
     3.6894   3.7961   3.8701   4.1406   4.2373   4.3807   4.4766   4.6510
     4.7900   4.8909   5.0197   5.0943   5.2470   5.2974   5.4539   5.5109
     5.6365   5.7946   6.1487   6.3905   6.4169   6.4636

          k = 0.2000-0.3464 0.0000 ( 87490 PWs)   bands (ev):

   -14.0690  -8.0636  -6.3344  -5.6019  -5.1599  -5.1210  -5.0208  -4.5671
    -4.4609  -4.0508  -4.0371  -4.0139  -3.9597  -3.9528  -3.9161  -3.8624
    -3.8435  -3.7921  -3.6631  -3.4706  -3.4486  -3.4333  -3.4228  -3.3691
    -3.3321  -3.2772  -3.2464  -3.2025  -3.1664  -3.1247  -3.1081  -3.0743
    -3.0627  -3.0127  -2.9941  -2.9657  -2.9602  -2.8966  -2.8425  -2.7714
    -2.6803  -2.5951  -2.5604  -2.5171  -2.4962  -2.4544  -2.4201  -2.3892
    -2.3480  -2.3023  -2.2813  -2.2419  -2.1773  -2.1709  -2.0718  -2.0297
    -2.0159  -1.9786  -1.9696  -1.9136  -1.8700  -1.7814  -1.7352  -1.7213
    -1.6706  -1.6427  -1.6156  -1.6003  -1.5861  -1.5552  -1.5044  -1.4586
    -1.4163  -1.3592  -1.3487  -1.3312  -1.3021  -1.2753  -1.2416  -1.1756
    -1.1428  -1.1239  -1.1043  -1.0778  -1.0636  -1.0357  -1.0171  -0.9970
    -0.9813  -0.9667  -0.9347  -0.9200  -0.9012  -0.8824  -0.8501  -0.7976
    -0.7778  -0.7368  -0.7176  -0.7112  -0.7052  -0.6666  -0.6529  -0.6204
    -0.6107  -0.6001  -0.5833  -0.5664  -0.5383  -0.5167  -0.4466  -0.4166
    -0.3833  -0.3393  -0.2858  -0.2758  -0.2033  -0.1656  -0.0953  -0.0535
    -0.0146   0.0338   0.0609   0.0812   0.1242   0.1299   0.1498   0.2011
     0.2253   0.2443   0.2764   0.3221   0.3556   0.3802   0.4573   0.4724
     0.4997   0.5475   0.5772   0.6386   0.6638   0.6928   0.7308   0.7427
     0.7752   0.8064   0.8410   0.8742   0.9104   0.9350   0.9829   0.9976
     1.0312   1.0622   1.0776   1.0876   1.1249   1.1435   1.1557   1.2358
     1.2817   1.3273   1.3886   1.4672   1.5057   1.5648   1.5884   1.6363
     1.6675   1.6817   1.7118   1.7392   1.7525   1.7923   1.8124   1.8282
     1.8425   1.8620   1.8848   1.8940   1.9107   1.9522   1.9745   2.0101
     2.0415   2.0462   2.1002   2.1557   2.2037   2.2373   2.2661   2.2944
     2.3637   2.3938   2.4394   2.4914   2.6616   2.8717   2.9571   3.0400
     3.3501   3.4785   3.5483   3.7586   4.0353   4.2566   4.3378   4.3729
     4.5010   4.6252   5.0722   5.2996   5.6364   5.6848   5.8281   5.9432
     6.1258   6.2017   6.4846   6.5171   6.5717   6.6638

          k = 0.4000-0.2309 0.0000 ( 87490 PWs)   bands (ev):

   -14.0690  -8.0618  -6.2014  -5.6600  -5.4498  -4.9844  -4.6932  -4.5378
    -4.4475  -4.3274  -4.2665  -4.0755  -3.9681  -3.8367  -3.7726  -3.7512
    -3.7446  -3.5714  -3.5643  -3.5365  -3.5219  -3.4919  -3.4323  -3.3699
    -3.3663  -3.3323  -3.3025  -3.2963  -3.2438  -3.1996  -3.1966  -3.0223
    -2.9849  -2.9521  -2.9356  -2.9310  -2.8729  -2.7669  -2.7539  -2.7436
    -2.6657  -2.6547  -2.5687  -2.5381  -2.4739  -2.4661  -2.4523  -2.3827
    -2.3677  -2.2976  -2.2726  -2.2234  -2.2181  -2.1727  -2.1616  -2.1368
    -2.0309  -2.0057  -2.0004  -1.9550  -1.8362  -1.8031  -1.7946  -1.7800
    -1.7511  -1.7234  -1.6329  -1.6154  -1.5869  -1.5305  -1.5264  -1.4499
    -1.4486  -1.4369  -1.3646  -1.3126  -1.2657  -1.2445  -1.2228  -1.1781
    -1.1615  -1.1395  -1.1325  -1.0941  -1.0911  -1.0612  -1.0521  -1.0272
    -1.0067  -1.0016  -0.9712  -0.9473  -0.9151  -0.9099  -0.8821  -0.8647
    -0.8337  -0.7932  -0.7350  -0.7159  -0.6824  -0.6642  -0.6552  -0.6316
    -0.5673  -0.5588  -0.5358  -0.5311  -0.4422  -0.4288  -0.3762  -0.3718
    -0.3607  -0.3210  -0.2108  -0.2009  -0.1352  -0.1113  -0.0774  -0.0281
    -0.0149  -0.0029   0.0390   0.0608   0.0874   0.0936   0.0966   0.1334
     0.1594   0.1925   0.2092   0.2151   0.3110   0.3559   0.3765   0.3788
     0.4538   0.4836   0.5308   0.6220   0.6366   0.6744   0.7440   0.7676
     0.8089   0.8485   0.8713   0.8937   0.9354   0.9601   0.9917   0.9948
     1.0508   1.0890   1.1146   1.1408   1.1922   1.1997   1.2175   1.2411
     1.2487   1.3095   1.3804   1.3839   1.4801   1.5019   1.5396   1.5825
     1.5997   1.6352   1.6428   1.7075   1.7227   1.7315   1.7731   1.8168
     1.8185   1.8985   1.9062   1.9449   1.9493   1.9540   1.9772   2.0187
     2.0507   2.1436   2.1507   2.1755   2.2360   2.2426   2.2949   2.3016
     2.3672   2.4727   2.5991   2.7383   3.0732   3.1005   3.2456   3.2558
     3.4994   3.5910   3.8277   3.8898   4.2033   4.2969   4.4163   4.5462
     4.6279   4.6619   4.8263   4.9692   5.1637   5.1726   5.5471   5.7181
     5.9318   6.0883   6.2779   6.6434   6.7467   6.9268

          k = 0.4000-0.0000 0.0000 ( 87490 PWs)   bands (ev):

   -14.0690  -8.0630  -6.3343  -5.5990  -5.1613  -5.1220  -5.0262  -4.5666
    -4.4596  -4.0515  -4.0372  -4.0135  -3.9593  -3.9528  -3.9141  -3.8621
    -3.8413  -3.7923  -3.6630  -3.4705  -3.4498  -3.4343  -3.4249  -3.3677
    -3.3347  -3.2762  -3.2463  -3.2022  -3.1676  -3.1265  -3.1083  -3.0748
    -3.0648  -3.0111  -2.9938  -2.9657  -2.9590  -2.8952  -2.8406  -2.7728
    -2.6940  -2.5920  -2.5620  -2.5112  -2.4945  -2.4501  -2.4191  -2.3908
    -2.3508  -2.2965  -2.2813  -2.2398  -2.1796  -2.1715  -2.0699  -2.0304
    -2.0193  -1.9783  -1.9696  -1.9139  -1.8726  -1.7821  -1.7364  -1.7233
    -1.6682  -1.6431  -1.6126  -1.5994  -1.5883  -1.5532  -1.5025  -1.4590
    -1.4140  -1.3572  -1.3487  -1.3318  -1.3029  -1.2707  -1.2431  -1.1759
    -1.1469  -1.1268  -1.1033  -1.0771  -1.0648  -1.0353  -1.0161  -0.9971
    -0.9805  -0.9647  -0.9330  -0.9213  -0.9008  -0.8776  -0.8496  -0.7999
    -0.7779  -0.7373  -0.7189  -0.7099  -0.7053  -0.6674  -0.6500  -0.6191
    -0.6121  -0.5990  -0.5833  -0.5637  -0.5380  -0.5170  -0.4441  -0.4168
    -0.3833  -0.3409  -0.2868  -0.2778  -0.2016  -0.1659  -0.0976  -0.0550
    -0.0145   0.0314   0.0630   0.0828   0.1241   0.1298   0.1499   0.2006
     0.2253   0.2426   0.2749   0.3212   0.3503   0.3846   0.4565   0.4711
     0.5002   0.5482   0.5759   0.6375   0.6628   0.6924   0.7308   0.7443
     0.7744   0.8049   0.8455   0.8765   0.9107   0.9374   0.9832   0.9978
     1.0315   1.0616   1.0775   1.0885   1.1253   1.1458   1.1561   1.2353
     1.2843   1.3249   1.3885   1.4675   1.5066   1.5629   1.5905   1.6332
     1.6661   1.6814   1.7106   1.7389   1.7523   1.7917   1.8124   1.8278
     1.8426   1.8616   1.8848   1.8944   1.9113   1.9507   1.9747   2.0098
     2.0406   2.0457   2.1002   2.1588   2.2058   2.2342   2.2664   2.2948
     2.3634   2.3896   2.4395   2.4916   2.6630   2.8740   2.9520   3.0428
     3.3507   3.4807   3.5504   3.7580   4.0273   4.2631   4.3459   4.3735
     4.4986   4.6227   5.0533   5.2988   5.6268   5.6845   5.8387   5.9439
     6.1193   6.1953   6.4857   6.5243   6.5728   6.6579

          k = 0.4000 0.2309 0.0000 ( 87490 PWs)   bands (ev):

   -14.0686  -8.0628  -6.2055  -5.6526  -5.4819  -5.0257  -4.6987  -4.5070
    -4.4528  -4.3529  -4.1954  -4.0286  -3.9578  -3.8348  -3.7747  -3.7499
    -3.6876  -3.5801  -3.5656  -3.5509  -3.5371  -3.5134  -3.4046  -3.3689
    -3.3561  -3.3420  -3.3091  -3.2893  -3.2332  -3.2018  -3.1870  -3.0944
    -2.9799  -2.9628  -2.9280  -2.9212  -2.8857  -2.8260  -2.7568  -2.6991
    -2.6721  -2.6538  -2.6276  -2.5600  -2.5369  -2.4587  -2.4208  -2.4032
    -2.3253  -2.3065  -2.2511  -2.2399  -2.2009  -2.1894  -2.1671  -2.0832
    -2.0205  -2.0005  -1.9786  -1.9060  -1.8658  -1.8292  -1.8105  -1.7806
    -1.7448  -1.6915  -1.6313  -1.6132  -1.5878  -1.5455  -1.5021  -1.4646
    -1.4481  -1.4244  -1.3777  -1.3208  -1.2957  -1.2423  -1.2200  -1.1794
    -1.1615  -1.1426  -1.1295  -1.1025  -1.0884  -1.0732  -1.0486  -1.0215
    -1.0112  -0.9849  -0.9627  -0.9389  -0.9123  -0.8920  -0.8726  -0.8436
    -0.8299  -0.7558  -0.7373  -0.6943  -0.6697  -0.6449  -0.6343  -0.6274
    -0.5560  -0.5509  -0.5261  -0.4986  -0.4550  -0.3915  -0.3738  -0.3616
    -0.3392  -0.3264  -0.2848  -0.1965  -0.1337  -0.1140  -0.0895  -0.0504
    -0.0356   0.0021   0.0302   0.0651   0.0764   0.0996   0.1070   0.1333
     0.1662   0.1899   0.2081   0.2227   0.2795   0.3427   0.3565   0.3831
     0.4151   0.4680   0.5712   0.5914   0.6252   0.6607   0.7134   0.7751
     0.8135   0.8535   0.8736   0.8959   0.9474   0.9686   0.9981   1.0137
     1.0631   1.0758   1.1060   1.1359   1.1700   1.1901   1.2195   1.2382
     1.2478   1.3139   1.3612   1.3932   1.4713   1.4832   1.5063   1.5560
     1.5806   1.6372   1.6389   1.6840   1.7117   1.7242   1.7706   1.7970
     1.8240   1.8642   1.9267   1.9305   1.9452   1.9545   1.9778   2.0138
     2.0522   2.1077   2.1426   2.2044   2.2312   2.2361   2.2767   2.2960
     2.3726   2.4721   2.6106   2.7944   2.9986   3.0986   3.2443   3.2916
     3.4930   3.6307   3.7743   4.0002   4.2039   4.4038   4.4754   4.5603
     4.6160   4.7151   4.8631   4.9740   5.0219   5.2285   5.5938   5.6949
     5.9047   6.0287   6.3248   6.5984   6.8015   6.8955

          k = 0.4000-0.6928 0.0000 ( 87504 PWs)   bands (ev):

   -14.0684  -8.0616  -5.8663  -5.7971  -5.5184  -5.1714  -4.7852  -4.7052
    -4.3256  -4.2108  -3.9880  -3.9530  -3.8827  -3.8389  -3.7319  -3.7075
    -3.6410  -3.6184  -3.5519  -3.5261  -3.4972  -3.4823  -3.4597  -3.4439
    -3.3726  -3.3269  -3.3057  -3.2962  -3.2608  -3.2465  -3.1706  -3.1249
    -3.0604  -3.0229  -2.9354  -2.9252  -2.8894  -2.8385  -2.8152  -2.7662
    -2.6844  -2.6528  -2.6147  -2.5281  -2.4831  -2.4618  -2.4390  -2.3456
    -2.3133  -2.2613  -2.1853  -2.1703  -2.1246  -2.1123  -2.0911  -2.0330
    -1.9866  -1.9617  -1.9453  -1.9195  -1.8711  -1.8463  -1.8377  -1.8051
    -1.7893  -1.7572  -1.7299  -1.6850  -1.6539  -1.6208  -1.5800  -1.5566
    -1.4973  -1.4359  -1.4081  -1.3977  -1.3766  -1.3387  -1.3222  -1.3155
    -1.2264  -1.2025  -1.1853  -1.1543  -1.1473  -1.1034  -1.0295  -1.0109
    -0.9998  -0.9919  -0.9805  -0.9727  -0.8654  -0.8430  -0.8064  -0.7780
    -0.7522  -0.7254  -0.7106  -0.6850  -0.6770  -0.6661  -0.6517  -0.6393
    -0.6031  -0.5795  -0.5533  -0.5272  -0.5175  -0.5130  -0.4945  -0.4764
    -0.4426  -0.3252  -0.2809  -0.2520  -0.1809  -0.1439  -0.0804  -0.0712
    -0.0504  -0.0218  -0.0061   0.0286   0.0368   0.0874   0.1174   0.1408
     0.1723   0.1950   0.2367   0.2891   0.3200   0.3418   0.3739   0.4182
     0.4493   0.5088   0.5693   0.6085   0.6453   0.6683   0.6876   0.7271
     0.7588   0.7679   0.7961   0.8212   0.8583   0.8925   0.9394   0.9509
     0.9762   0.9916   1.0374   1.0522   1.1136   1.1655   1.2350   1.2758
     1.3494   1.3926   1.4282   1.4675   1.5045   1.5599   1.5893   1.6280
     1.6486   1.7124   1.7343   1.7677   1.7790   1.7994   1.8244   1.8597
     1.9159   1.9222   1.9322   1.9676   1.9730   2.0071   2.0182   2.0909
     2.1112   2.1581   2.2015   2.2346   2.2509   2.2613   2.2989   2.3232
     2.3985   2.4871   2.6129   3.0298   3.3749   3.4063   3.5793   3.6241
     3.6901   3.7920   3.8688   4.1438   4.2349   4.3776   4.4779   4.6550
     4.7712   4.8925   5.0179   5.0957   5.2566   5.2994   5.4476   5.5077
     5.6380   5.7933   6.1382   6.3804   6.4109   6.4633

          k = 0.4000-0.4619 0.0000 ( 87504 PWs)   bands (ev):

   -14.0686  -8.0610  -5.8759  -5.7750  -5.5100  -5.1896  -4.7670  -4.5480
    -4.5238  -4.2399  -3.9779  -3.9269  -3.8859  -3.8492  -3.7280  -3.7060
    -3.6376  -3.6165  -3.5822  -3.5064  -3.4993  -3.4747  -3.4632  -3.4426
    -3.4152  -3.3364  -3.3054  -3.2975  -3.2568  -3.2331  -3.1700  -3.1060
    -3.0621  -3.0277  -2.9469  -2.8988  -2.8751  -2.8512  -2.8338  -2.7256
    -2.6801  -2.6087  -2.5713  -2.5291  -2.4893  -2.4600  -2.4389  -2.3689
    -2.3039  -2.2587  -2.2168  -2.1554  -2.1369  -2.1095  -2.0972  -2.0080
    -1.9849  -1.9713  -1.9612  -1.9216  -1.8749  -1.8697  -1.8471  -1.8177
    -1.7913  -1.7571  -1.7357  -1.7121  -1.6510  -1.6250  -1.5928  -1.5539
    -1.4541  -1.4418  -1.3955  -1.3906  -1.3617  -1.3496  -1.3301  -1.2928
    -1.2542  -1.2104  -1.1884  -1.1694  -1.1477  -1.0902  -1.0363  -1.0220
    -1.0028  -0.9917  -0.9814  -0.9287  -0.8596  -0.8412  -0.8160  -0.7784
    -0.7544  -0.7455  -0.7090  -0.6867  -0.6819  -0.6696  -0.6512  -0.6351
    -0.5998  -0.5872  -0.5585  -0.5273  -0.5227  -0.5143  -0.4935  -0.4880
    -0.4704  -0.3774  -0.2892  -0.2374  -0.2137  -0.1336  -0.0909  -0.0640
    -0.0352  -0.0133   0.0122   0.0256   0.0477   0.0727   0.1369   0.1483
     0.1613   0.1765   0.2258   0.3018   0.3349   0.3524   0.3821   0.4216
     0.4644   0.5474   0.5846   0.5996   0.6592   0.6770   0.6961   0.7028
     0.7509   0.7827   0.7914   0.8059   0.8461   0.8956   0.9506   0.9524
     0.9759   0.9977   1.0421   1.0648   1.1214   1.1474   1.2416   1.2797
     1.3328   1.4040   1.4351   1.4724   1.5094   1.5521   1.5903   1.6535
     1.6742   1.7216   1.7399   1.7682   1.7930   1.8178   1.8242   1.8535
     1.9049   1.9267   1.9445   1.9691   1.9835   1.9988   2.0188   2.0861
     2.1205   2.1309   2.2085   2.2296   2.2527   2.2605   2.2833   2.3079
     2.4211   2.4996   2.6696   3.0868   3.3685   3.4105   3.5400   3.6230
     3.6461   3.7350   3.7993   4.1536   4.3031   4.3614   4.4612   4.6508
     4.7472   4.8925   4.9727   5.0604   5.2412   5.3006   5.4186   5.5563
     5.5968   5.8451   6.1178   6.3639   6.4194   6.4731

     the Fermi energy is     2.0299 ev

!    total energy              =  -27793.36752641 Ry

     total all-electron energy =  -1326795.661137 Ry
     estimated scf accuracy    <       0.00000027 Ry
     smearing contrib. (-TS)   =       0.00204234 Ry
     internal energy E=F+TS    =  -27793.36956875 Ry

     The total energy is F=E-TS. E is the sum of the following terms:
     one-electron contribution =  -26163.06864117 Ry
     hartree contribution      =   13384.51551645 Ry
     xc contribution           =    -900.33794262 Ry
     ewald contribution        =   11372.64789102 Ry
     one-center paw contrib.   =  -25487.12639243 Ry

     convergence has been achieved in  19 iterations

     negative rho (up, down):  1.292E-02 0.000E+00

     Forces acting on atoms (cartesian axes, Ry/au):

     atom    1 type  1   force =     0.00059692    0.00216452   -0.00535972
     atom    2 type  1   force =    -0.00029628    0.00002047   -0.00409570
     atom    3 type  1   force =    -0.00106778    0.00050174   -0.00589557
     atom    4 type  1   force =    -0.00019569    0.00015309   -0.00494154
     atom    5 type  1   force =    -0.00016579    0.00026295   -0.00403650
     atom    6 type  1   force =     0.00023828   -0.00058949   -0.00381748
     atom    7 type  1   force =    -0.00174605   -0.00160019   -0.00547187
     atom    8 type  1   force =     0.00006940   -0.00003549   -0.00249988
     atom    9 type  1   force =     0.00058363    0.00004841   -0.00392673
     atom   10 type  1   force =    -0.00092347   -0.00211623    0.00790476
     atom   11 type  1   force =     0.00111050   -0.00041275    0.00617490
     atom   12 type  1   force =     0.00044237   -0.00052240   -0.00070147
     atom   13 type  1   force =     0.00151480    0.00187542    0.00772479
     atom   14 type  1   force =    -0.00256527    0.00019905    0.00544179
     atom   15 type  1   force =     0.00214718   -0.00118850    0.00575410
     atom   16 type  1   force =     0.00149672   -0.00094013    0.00452130
     atom   17 type  1   force =    -0.00147507    0.00231677    0.00534168
     atom   18 type  1   force =     0.00097543    0.00019934   -0.00106568
     atom   19 type  1   force =    -0.00025992    0.00021407   -0.00035104
     atom   20 type  1   force =    -0.00007824   -0.00009781    0.00023994
     atom   21 type  1   force =    -0.00008050   -0.00015987   -0.00051445
     atom   22 type  1   force =    -0.00041423   -0.00014752   -0.00028125
     atom   23 type  1   force =    -0.00008582   -0.00002449   -0.00024468
     atom   24 type  1   force =    -0.00005999   -0.00009123   -0.00043993
     atom   25 type  1   force =    -0.00017004   -0.00003505    0.00011200
     atom   26 type  1   force =    -0.00017207   -0.00011585   -0.00033663
     atom   27 type  1   force =    -0.00002957   -0.00005548   -0.00050032
     atom   28 type  1   force =    -0.00000714   -0.00012801    0.00014734
     atom   29 type  1   force =    -0.00011520    0.00037199    0.00041729
     atom   30 type  1   force =     0.00019906   -0.00033616    0.00018134
     atom   31 type  1   force =    -0.00012247   -0.00003277   -0.00017435
     atom   32 type  1   force =    -0.00014136   -0.00009564    0.00033749
     atom   33 type  1   force =     0.00036839    0.00002599    0.00031951
     atom   34 type  1   force =    -0.00012208   -0.00026465    0.00009138
     atom   35 type  1   force =     0.00001762   -0.00004145    0.00049754
     atom   36 type  1   force =    -0.00003103   -0.00052147    0.00028520
     atom   37 type  2   force =     0.00670394   -0.00180350    0.00899424
     atom   38 type  2   force =    -0.00057970    0.00047050    0.00022607
     atom   39 type  3   force =    -0.00555951    0.00253182   -0.01005786

     Total force =     0.016476     Total SCF correction =     0.000700

     negative rho (up, down):  1.292E-02 0.000E+00

     negative rho (up, down):  1.292E-02 0.000E+00

     negative rho (up, down):  1.292E-02 0.000E+00

     negative rho (up, down):  1.292E-02 0.000E+00

     negative rho (up, down):  1.292E-02 0.000E+00

     negative rho (up, down):  1.292E-02 0.000E+00

     negative rho (up, down):  1.292E-02 0.000E+00

     negative rho (up, down):  1.292E-02 0.000E+00

     negative rho (up, down):  1.292E-02 0.000E+00

     negative rho (up, down):  1.292E-02 0.000E+00

     negative rho (up, down):  1.292E-02 0.000E+00

     negative rho (up, down):  1.292E-02 0.000E+00

     negative rho (up, down):  1.292E-02 0.000E+00

     negative rho (up, down):  1.292E-02 0.000E+00

     negative rho (up, down):  1.292E-02 0.000E+00

     negative rho (up, down):  1.292E-02 0.000E+00

     negative rho (up, down):  1.292E-02 0.000E+00

     negative rho (up, down):  1.292E-02 0.000E+00

     negative rho (up, down):  1.292E-02 0.000E+00

     negative rho (up, down):  1.292E-02 0.000E+00

     negative rho (up, down):  1.292E-02 0.000E+00

     negative rho (up, down):  1.292E-02 0.000E+00

     negative rho (up, down):  1.292E-02 0.000E+00

     negative rho (up, down):  1.292E-02 0.000E+00

     negative rho (up, down):  1.292E-02 0.000E+00

     negative rho (up, down):  1.292E-02 0.000E+00

     negative rho (up, down):  1.292E-02 0.000E+00

     negative rho (up, down):  1.292E-02 0.000E+00

     negative rho (up, down):  1.292E-02 0.000E+00

     negative rho (up, down):  1.292E-02 0.000E+00

     negative rho (up, down):  1.292E-02 0.000E+00

     negative rho (up, down):  1.292E-02 0.000E+00

     negative rho (up, down):  1.292E-02 0.000E+00

     negative rho (up, down):  1.292E-02 0.000E+00
 BEEFens 2000 ensemble energies
             -0.601963528008851E+02
             -0.359612282846422E+01
             -0.157468137018746E+02
              0.426127979774402E+02
             -0.219587380995857E+02
             -0.204277120699323E+02
             -0.348597558633660E+02
             -0.857796552629323E+02
             -0.462929664320106E+02
             -0.470350948752269E+02
             -0.366624133025351E+02
              0.220854670765307E+01
              0.404379879622539E+01
              0.768278909617865E+01
              0.262470436931329E+01
              0.471490121611446E+02
             -0.207549688368214E+02
             -0.229968792470101E+02
              0.191230655966530E+02
             -0.111582329404813E+03
              0.532218146718212E+02
             -0.288550761932851E+02
             -0.329396558458524E+01
             -0.113453415817403E+02
             -0.889119955089689E+01
             -0.463042165612765E+01
              0.876464390366485E+02
             -0.184852511442423E+02
             -0.895932582485671E+01
             -0.514315930650646E+02
              0.811120410188516E+02
             -0.187415393884926E+02
             -0.372031933947319E+02
              0.248208218828721E+02
             -0.281604167197457E+01
              0.161716806167282E+02
             -0.488319748874636E+01
              0.108299727782357E+02
              0.285192585832462E+02
             -0.102580936410819E+03
              0.554271719844452E+02
              0.141418914246214E+02
             -0.158822223288064E+01
             -0.359536231351118E+02
              0.122261913489393E+02
             -0.145055100095035E+02
              0.394647226166642E+02
              0.362410705870496E+02
             -0.307010690258684E+02
             -0.272834288585793E+02
             -0.326125710586821E+02
             -0.349270408508633E+02
              0.134307100102509E+02
             -0.487178238352332E+02
              0.114212780019039E+02
              0.618615454131829E+02
              0.629563574135282E+02
              0.353513941347383E+02
              0.153039469468468E+02
              0.267862099307650E+02
              0.884657589285649E+02
              0.211864030841169E+02
             -0.544620362014436E+02
             -0.156597831765765E+02
             -0.233706205540728E+02
              0.625479622376102E+02
             -0.768506772169599E+02
             -0.667536579016347E+02
             -0.256611442143380E+02
             -0.627457177088604E+01
             -0.468454661416633E+02
              0.268637784623084E+02
              0.791889087291668E+01
              0.855452112464769E+01
             -0.394327458727089E+02
             -0.344229179568613E+02
             -0.537410784201069E+02
              0.388363423612509E+02
             -0.293281721493388E+02
              0.262627564241762E+02
             -0.707500353845775E+01
             -0.316188252785899E+02
             -0.572944164697118E+02
             -0.175736611550934E+02
             -0.894257620785174E+01
             -0.123857870131524E+02
              0.409321145473978E+02
              0.676714901499677E+02
             -0.382146336624877E+02
             -0.788998879905880E+02
             -0.218378790444361E+02
              0.110738191688544E+03
             -0.588190961867245E+02
              0.353985537659029E+02
             -0.948032034689504E+01
             -0.659158667993686E+02
              0.252484039903987E+02
              0.396091815369687E+02
             -0.197679250636843E+02
              0.398364885403572E+02
             -0.294484235235072E+02
             -0.473331811087879E+02
              0.858234667768832E+02
              0.450746897542205E+02
              0.335115636659579E+02
              0.145579763767831E+02
              0.203637965966912E+02
              0.850720875999458E+02
             -0.254734765379864E+02
              0.785347981456712E+01
             -0.141426569803112E+03
              0.180045566543803E+02
             -0.711594822425024E+02
              0.149956991165438E+02
              0.202929742958781E+02
             -0.330069348862037E+02
             -0.553668297178453E+02
              0.654734977498833E+01
             -0.301884731102652E+02
              0.304549996065189E+02
             -0.526554278472767E+02
              0.178989654309009E+01
             -0.354201872837372E+02
             -0.421241863788435E+01
             -0.109208814707057E+01
              0.179087478325351E+02
              0.143157107459729E+01
             -0.648053631676726E+01
              0.585205005983412E+02
              0.901500479743854E+02
              0.480480430269553E+02
              0.826035422525084E+02
             -0.114152136426959E+02
              0.142651526868191E+02
              0.537291211099143E+02
             -0.111584562498862E+02
             -0.730031702792540E+02
             -0.380572078236541E+02
             -0.518099538972868E+02
             -0.274594556105116E+02
              0.325375311638439E+02
             -0.115897662174907E+03
             -0.186297581167020E+02
              0.410587555829759E+02
             -0.383398468431906E+02
             -0.363500579923248E+02
              0.539572309162751E+02
              0.397219927737768E+02
             -0.351813076942095E+02
              0.134791557820902E+02
             -0.271276157622420E+02
              0.340419328629338E+02
              0.442144200618674E+01
              0.210654029975952E+02
             -0.878818394583939E+02
             -0.476782387509942E+02
             -0.987915846341252E+01
              0.326804548259855E+01
             -0.363475994058847E+02
              0.105212010680744E+03
             -0.230215128122519E+02
             -0.396745943023310E+02
              0.386185845622390E+02
             -0.491135072574558E+02
             -0.360419360429867E+02
              0.322462051541080E+02
              0.123573724458851E+02
              0.163644158802977E+02
              0.115140086668898E+02
             -0.132108574511302E+02
              0.224638890759203E+02
              0.586045738578142E+02
             -0.309885346152768E+02
              0.160887953928481E+02
              0.927952971874682E+02
              0.338383504394995E+02
             -0.725880841599758E+01
             -0.186950573230465E+02
              0.152199052081379E+03
             -0.162075462727051E+02
              0.360285065768321E+02
              0.191995786262537E+02
              0.359965610065080E+02
              0.885423336826334E+02
              0.539738991184570E+02
             -0.237079639435805E+01
              0.225762774911221E+02
              0.481033089912146E+02
              0.360695546541785E+02
             -0.520850984174168E+02
              0.929089221459641E+02
             -0.819251348312013E+02
             -0.197576121097329E+02
              0.578912879746296E+02
              0.659244132138018E+01
              0.786292120018891E+01
              0.339119846321065E+02
              0.298123629289904E+02
              0.351274315451822E+02
             -0.633189889512059E+02
              0.286051937535285E+01
             -0.295884863056068E+02
             -0.868230219031153E+01
             -0.142978505857536E+01
             -0.711404210842451E+01
             -0.409402650816247E+01
              0.853201374340441E+02
             -0.100767100199005E+02
             -0.274318485093395E+02
             -0.496046013014436E+01
              0.138899197077255E+02
             -0.559267215732496E+02
             -0.402769716595506E+02
             -0.379687094836027E+02
             -0.625614603869377E+02
             -0.168355180380601E+02
             -0.444581845518758E+02
              0.162009012292341E+02
             -0.242509304021920E+01
             -0.103336095899039E+02
             -0.928431974550068E+01
              0.804741872397506E+01
             -0.242231085892166E+02
              0.684499440564095E+02
             -0.800470309163863E+02
             -0.140057627060706E+02
             -0.173233524085937E+02
              0.180902971140394E+02
              0.212599800130691E+02
             -0.460136924376170E+02
             -0.201217342530021E+02
              0.437586243322158E+02
             -0.274882704209116E+02
              0.185894684581188E+02
              0.380528051511439E+02
             -0.321634022286935E+01
              0.113310600628579E+03
             -0.229693175069984E+02
             -0.338613996973012E+02
              0.578964386193672E+01
             -0.226075483743518E+02
              0.523544890874423E+02
             -0.333463681269918E+02
              0.105492769677371E+02
              0.637189117445309E+02
             -0.125344762510701E+02
              0.119371536229715E+03
              0.124923303997721E+03
             -0.644669768983636E+02
              0.586315953499774E+02
              0.164618688603866E+02
             -0.513516611187059E+02
              0.215109599617586E+02
              0.350374801533422E+02
              0.359039796209159E+02
              0.132145448190050E+01
              0.158259852160838E+02
              0.689979093426618E+02
             -0.245297819354084E+02
              0.180675985970980E+02
              0.734205291584186E+02
             -0.369971151149626E+02
             -0.127597714654335E+02
              0.504020736025672E+02
              0.295130085544863E+02
              0.774931721589833E+02
              0.220038272660559E+02
              0.612602665360674E+01
              0.278662144710620E+02
              0.380099594139133E+02
             -0.467479179544920E+02
              0.324014807868758E+01
              0.127291798630119E+02
              0.112788956770162E+02
              0.218649182210750E+02
             -0.570104643880382E+02
              0.363948763339913E+02
             -0.440853194758947E+02
             -0.345018748255708E+02
              0.176321240610221E+02
             -0.181019053265633E+02
              0.550527505831176E+02
             -0.255475472515948E+02
              0.264549425867232E+02
              0.366228551488492E+02
              0.823682347315550E+02
              0.570861548793070E+02
              0.457873889676149E+02
             -0.105837909204652E+02
             -0.381721409026642E+01
             -0.329809234774863E+02
              0.744501147966762E+02
              0.791179371887811E+02
              0.358883932020933E+02
             -0.189734755711776E+02
              0.508295138839445E+02
             -0.163069116151250E+02
              0.213774083863669E+02
              0.609257357863781E+02
              0.216447013418900E+01
             -0.103678390399776E+02
             -0.281834259659801E+02
             -0.506745152890709E+02
              0.938263350573616E+02
              0.435611244256189E+02
             -0.554188056892298E+02
             -0.946183106841642E+01
              0.248156156620826E+02
             -0.989605695507032E+01
              0.587266048708707E+02
              0.151162351513874E+02
              0.793394646606940E+02
              0.276953172929503E+02
             -0.262576270625575E+02
              0.247901706514882E+02
             -0.496884088591003E+01
             -0.322040778410075E+02
              0.132079162543581E+02
              0.204835733938153E+02
              0.925996783792525E+02
              0.791830699959870E+02
              0.546743137892329E+02
              0.726162450561039E+02
              0.794891510606303E+01
             -0.271846274695353E+02
              0.162227873535872E+02
             -0.365697844586713E+02
             -0.471929021463032E+02
             -0.559548545253423E+02
             -0.264103303654706E+02
             -0.108916205545722E+03
             -0.288506263028495E+02
             -0.830726610715820E+02
              0.208391022557859E+02
             -0.473722833546800E+02
              0.392945509293813E+02
             -0.933897356371480E+02
             -0.327989363747553E+02
              0.546111540933085E+02
              0.206141264245177E+02
             -0.823831948937985E+02
              0.627455354301212E+02
             -0.254619089009249E+02
              0.508377946383237E+02
             -0.240869130919090E+02
             -0.745451919668939E+02
              0.110767476541753E+02
             -0.606438224080025E+02
             -0.168235258953671E+02
             -0.146076294516031E+01
              0.415346725990990E+02
              0.126090364801482E+03
             -0.458721792270014E+02
             -0.359983513971870E+02
             -0.929775014177210E+00
             -0.129737144363568E+02
             -0.816725080826670E+02
             -0.592776994054480E+02
              0.513748113949163E+02
             -0.287824292308609E+02
              0.167481802533231E+02
             -0.485887292612761E+02
             -0.130667916957222E+02
             -0.434311370320373E+02
              0.562114842064004E+02
              0.150507346419020E+02
             -0.229872904444053E+02
             -0.125410676284504E+02
              0.656298093711600E+01
             -0.613517786775850E+01
              0.438656767016751E+02
             -0.250174325067039E+02
              0.265304693551252E+01
              0.336633020301437E+02
              0.170624838982545E+02
             -0.157816567681036E+02
              0.155152400473406E+03
              0.533360908395087E+02
              0.108998050492232E+01
              0.161409301145198E+02
             -0.610216623185154E+02
              0.312579678828569E+02
             -0.715980051523184E+02
             -0.249581746782899E+02
             -0.518267279809849E+02
             -0.218704858409739E+02
              0.564818224581617E+02
             -0.532728185143813E+02
              0.158654790909518E+02
             -0.404417435061976E+01
              0.387851868527562E+01
             -0.431719013924620E+02
             -0.475397055343141E+02
             -0.394634786055735E+01
             -0.422902453054371E+02
             -0.215674823377150E+02
             -0.435509453352475E+02
             -0.118932101991916E+02
             -0.356665610159856E+02
             -0.512960258393942E+02
              0.211262153978469E+02
             -0.208620084732454E+02
              0.185955840929553E+02
              0.969017193897902E+01
             -0.732350409019284E+02
             -0.544516997809659E+02
             -0.394244550564201E+02
              0.352012055984933E+02
              0.276329461148157E+01
             -0.622310474348055E+02
              0.581402756555835E+02
             -0.398067304321072E+02
              0.540332559796609E+02
             -0.287169264818818E+02
             -0.442463004575561E+02
              0.296978622790142E+02
             -0.652411339637258E+02
             -0.377621886769971E+02
              0.668603102403834E+02
              0.202500975231842E+02
             -0.356584965152142E+02
              0.485243188060162E+02
             -0.172688820500716E+02
             -0.319893465932001E+02
             -0.299599187140734E+02
             -0.496877081940861E+02
              0.247344054280657E+02
             -0.926699459622301E+02
             -0.834817762472265E+02
             -0.727184216772321E+01
             -0.304739226822563E+02
             -0.571116303490508E+02
              0.716324924395875E+02
              0.130524665663898E+03
             -0.359555785436883E+02
             -0.252498445270709E+01
             -0.632769365338183E+02
              0.645807389710886E+02
              0.169046077209431E+02
             -0.179790745393834E+02
             -0.407507675923358E+02
              0.147641919091531E+02
             -0.581943048888563E+02
             -0.196838919732072E+02
             -0.898550680026267E+02
              0.334346366983631E+02
              0.168365380527294E+02
              0.188844366055059E+01
             -0.695586595585360E+01
             -0.326230310404803E+02
             -0.748030917609020E+01
              0.124504011879286E+03
             -0.197968572182668E+02
             -0.433614325611884E+02
             -0.678816005766381E+02
              0.108092348610267E+02
             -0.339195625659736E+02
              0.581468090566480E+01
              0.258981314033238E+02
              0.101738132382619E+02
              0.275161933700532E+02
              0.118417575258632E+02
              0.625424716393070E+02
              0.315193387248974E+02
             -0.323795547854957E+02
              0.351269823741401E+02
              0.377139531476849E+02
              0.120011923999742E+02
              0.484348729651564E+02
             -0.222273185313965E+02
              0.760652866922178E+02
              0.170355860935517E+02
             -0.269590134906834E+02
             -0.718936850979357E+01
             -0.185130492227767E+02
              0.260891826311112E+02
             -0.232818742318476E+02
             -0.177892895895582E-01
             -0.838307743278278E+01
              0.803920879100639E+02
              0.495740309033486E+02
             -0.682715565504493E+02
             -0.468829686081025E+01
             -0.552002984095644E+02
             -0.158759636656267E+02
             -0.266717340438851E+02
              0.366662653198307E+01
              0.603504036360436E+00
             -0.255361202420740E+02
              0.799792427263259E+01
             -0.595786278888050E+01
             -0.128135281710966E+02
              0.852732575066100E+02
              0.180886885076843E+02
             -0.800692372447517E+02
             -0.455752991870172E+02
              0.937762258232527E+02
              0.275974293144284E+02
             -0.106249865778256E+02
              0.103747618448322E+03
             -0.193897552129972E+02
             -0.122592584564405E+02
             -0.529902688372306E+01
              0.106152936484162E+02
              0.269784765667792E+02
              0.779322680126776E+01
              0.303343119083357E+02
             -0.187334284375962E+02
             -0.300623727633094E+02
             -0.414838637266973E+02
             -0.473309187480307E+02
              0.461195077919498E+02
              0.125854067674242E+02
              0.384813062759211E+02
              0.132313632536496E+02
              0.848991003653537E+02
              0.154977242840894E+02
             -0.840473522566940E+02
             -0.332084574957245E+02
              0.133727466259844E+02
             -0.300871199399329E+02
              0.621898643465914E+02
             -0.873230216538423E+01
              0.147567099434112E+02
              0.493174634269471E+02
             -0.701404446157782E+02
              0.148668975910639E+03
              0.207245504201989E+02
              0.269734649551082E+02
              0.344785783093766E+02
              0.103448822615584E+02
             -0.156531987826298E+01
              0.356221067384292E+02
             -0.354409962098227E+02
              0.766788024639182E+02
              0.679168378441620E+02
             -0.403083791376007E+02
              0.148217676473656E+02
              0.664886155862145E+02
             -0.222507362059566E+02
              0.152854724392240E+02
              0.432921677505681E+02
              0.419391534839075E+02
             -0.779364166148118E+02
             -0.152310436690548E+02
             -0.354371719885874E+02
             -0.143536800203560E+01
             -0.759836124960398E+01
             -0.552669073571587E+01
             -0.180002232816902E+02
             -0.291313937100276E+02
              0.619397100553766E+01
              0.111409831521643E+02
              0.531779730106263E+02
             -0.386769194425267E+02
              0.370749166475215E+02
              0.434770470739887E+02
             -0.186209520719676E+02
              0.866898652961201E+02
             -0.693006716800843E+02
             -0.102432223555899E+03
             -0.652159037615699E+01
             -0.262223895284740E+01
              0.387605623371553E+01
              0.783670010772665E+02
             -0.107082524202009E+02
              0.413489017402069E+02
              0.439065176434078E+02
              0.382594269936268E+02
             -0.989598032740059E+01
              0.623567306453951E+02
             -0.132404780689372E+02
             -0.304416430557937E+02
             -0.477041556958495E+02
              0.578979027033051E+01
              0.367262727472108E+02
             -0.602252028225246E+01
              0.390820660100547E+02
             -0.176360248246979E+01
              0.651343938009735E+02
              0.186311308914957E+02
              0.992828384858875E+01
             -0.121985830414701E+02
              0.330054621643004E+02
              0.359746302891666E+02
              0.231778960171839E+02
             -0.489282878654052E+00
             -0.546576633713929E+02
              0.258482844101855E+02
              0.173674598528305E+02
              0.400352146050824E+02
              0.270100529818933E+02
              0.369893716149967E+02
             -0.598168291107217E+01
              0.248367873748877E+02
             -0.296520520460542E+02
             -0.195923715924300E+01
             -0.565481428774674E+02
             -0.305586689564840E+02
              0.375686444943520E+02
             -0.929238719627464E+02
              0.292744068241396E+02
              0.183053922319973E+02
              0.833882946750720E+02
             -0.299946690339379E+02
              0.326919026491969E+02
             -0.137063224911328E+02
             -0.460414312689619E+02
             -0.757164873857355E+02
             -0.513006058569680E+01
             -0.853287571415402E+02
              0.199380240587980E+02
             -0.246002497104630E+02
              0.303427544104636E+02
              0.235077490548566E+02
             -0.238800250435812E+02
             -0.262961752532642E+02
              0.387886991850093E+02
             -0.583904039254771E+02
             -0.115570593176588E+02
             -0.194908737560498E+02
              0.210579342959552E+02
             -0.897976313641533E+01
              0.360102408717648E+01
             -0.199604344368982E+02
              0.554909950667178E+02
             -0.434868396296291E+02
              0.782427413486403E+01
              0.580799057586791E+02
             -0.320529770328162E+02
              0.356921045529674E+01
             -0.885217194761674E+01
             -0.664831632877015E+02
             -0.480157343666866E+02
             -0.860760929407057E+01
              0.238449923889571E+02
              0.299790373504316E+02
              0.855537873329780E+01
             -0.405658377642180E+01
              0.150719841116612E+02
             -0.437160784861409E+02
              0.337416551123118E+01
             -0.527347092595389E+02
             -0.322880980204535E+02
              0.471005796498944E+02
             -0.293008521946585E+02
              0.617162039441071E+02
             -0.212811852558085E+02
              0.351438846868738E+02
              0.239839071522773E+02
             -0.639682593430993E+02
             -0.278771812552922E+02
              0.926413507033359E+01
             -0.368552172534418E+02
             -0.336697235586521E+02
             -0.823565998583674E+02
             -0.535375530480087E+02
             -0.506791396868326E+02
             -0.412231170086183E+02
             -0.993654450244321E+00
              0.976579867296277E+01
              0.934892186739319E+00
              0.151041785617631E+02
             -0.545149824644893E+02
              0.140709702543826E+02
              0.254374273755704E+02
             -0.661880745381958E+02
             -0.697994836191375E+02
             -0.428403695313858E+02
             -0.169348455165929E+02
              0.177507854096372E+02
              0.458334213242313E+01
             -0.423122887156387E+02
              0.364430953341519E+02
             -0.214418149767435E+02
              0.513813396029989E+02
             -0.880825769191499E+02
              0.592856283448594E+02
             -0.201785934299982E+01
             -0.365210188663682E+02
             -0.214473257492835E+02
              0.472002651195682E+01
              0.371039752040479E+02
             -0.751210093650317E+02
             -0.119931236973546E+02
             -0.215381551619553E+02
              0.508239942969777E+02
              0.858997318812089E+02
             -0.957863353774374E+02
              0.937500183841981E+02
              0.465158822817803E+02
             -0.720018053941656E+02
             -0.364428958766281E+02
              0.746149328016564E+02
              0.628035088950073E+02
             -0.179402971350470E+02
             -0.458838581269828E+01
              0.718053545060087E+01
              0.643321028224203E+02
             -0.504004816422715E+02
              0.157580271187597E+02
             -0.465860609899677E+01
              0.346065957873175E+02
             -0.741876589251445E+02
             -0.647262719838497E+01
             -0.349265746048357E+02
              0.457179129476831E+02
              0.466105054088077E+02
             -0.855379058401754E+02
             -0.483620981676059E+02
             -0.254859485165529E+02
             -0.336039195159235E+02
             -0.108474184204621E+02
             -0.241716402625659E+02
              0.424079816321695E+02
              0.398077296470705E+02
             -0.564932452285717E+01
             -0.412983122118934E+02
             -0.844217656854514E+02
              0.439517188908941E+02
             -0.520049436352582E+02
             -0.310201122978539E+02
              0.541726769185613E+01
             -0.319733775082495E+02
             -0.395082516556132E+02
             -0.237811667628622E+02
             -0.381438200403620E+02
             -0.269125112798082E+02
             -0.478915671257807E+02
              0.559958368402463E+02
              0.634037023357793E+02
             -0.163756407229391E+01
             -0.259811566504941E+02
             -0.629017808551021E+01
              0.438043354782521E+02
             -0.861840346068767E+02
             -0.144516394188510E+02
              0.520306499631419E+02
              0.658256126389223E+02
             -0.243930692338236E+02
              0.907232482921688E+01
              0.519569123102598E+02
              0.197062978231693E+02
             -0.831636559990670E+01
             -0.450229393066862E+02
              0.279492869440610E+02
             -0.350171644438467E+02
             -0.164304258428679E+02
             -0.151449398035901E+02
             -0.199241783455652E+02
              0.193046381210469E+02
              0.794670152984145E+02
              0.193565014118650E+01
              0.533553174086330E+01
             -0.880792249045741E+02
             -0.174392469510532E+02
             -0.350082816857094E+02
              0.277635299579003E+01
             -0.406226167194156E+02
              0.723798023617883E+02
              0.778547855546366E+02
              0.122746749313755E+02
             -0.139667447488647E+02
              0.142683092749357E+02
              0.259101357643735E+02
             -0.478657630480431E+02
             -0.866678310655766E+01
              0.136423658538728E+02
              0.163838652986879E+02
              0.559715192758038E+02
              0.419009626216363E+02
             -0.196400234310829E+02
[...]
              0.282062933667287E+02
              0.140830649125521E+03
              0.239844674827102E+02
              0.121237881662671E+02
             -0.461055188608234E+02
             -0.633625645769616E+02
             -0.188033649109573E+02
              0.327350548087611E+02
             -0.422120204224962E+01
              0.187803769266767E+02
              0.333545313243746E+02
             -0.582253868986600E+02
              0.220289058297628E+02
              0.579953766037482E+02
              0.548924191050492E+02
             -0.412927325434191E+01
             -0.142381232066202E+01
             -0.988512058885925E+01
             -0.479108541295548E+02
             -0.669592756190432E+02
              0.779936479633588E+02
             -0.515372548263159E+01
             -0.583980692269769E+02
              0.163911573755291E+01
             -0.203004804276505E+02
              0.932177072748629E+02
             -0.214814584203228E+02
             -0.350800544739700E+02
              0.332400456689254E+02
             -0.144419130768558E+02
              0.386084859834343E+02
             -0.242129678608404E+01
              0.100415449166523E+03
              0.485634246223369E+02
             -0.521698518173285E+01
             -0.318972491585557E+02
              0.230058288907313E+02
             -0.524496078362811E+02
             -0.127637917406419E+02
              0.580988377484836E+02
             -0.285737425245073E+02
             -0.435210114746379E+02
             -0.221450487879276E+02
              0.515063241559791E+02
              0.124041370017462E+02
             -0.842932081860055E+02
              0.301310895322671E+02
              0.151646757477509E+02
              0.567499266693218E+01
             -0.509913855549438E+02
             -0.384190277781215E+01
              0.320624162766341E+02
              0.509583913816458E+02
              0.627567587393169E+02
              0.226317045972348E+02
              0.712816225134560E+00
             -0.493815341328719E+02
             -0.506888228889699E+02
             -0.743331547275820E+02
             -0.601276228691086E+01
              0.306455886795913E+02
             -0.379439846979810E+01
              0.543164120946318E+02
             -0.315512515818046E+02
              0.165331788729816E+02
             -0.100792653858726E+02
             -0.287433213051581E+02
              0.581156916194026E+02
              0.788828964310636E+01
              0.599399755833703E+02
              0.504157144201008E+01
              0.263644269720290E+02
             -0.191602732055724E+02
              0.581723912623763E+02
             -0.109976115801497E+02
             -0.135990287142354E+00
             -0.784389365132790E+02
             -0.127876310143671E+02
              0.714021160480413E+02
              0.668585230824100E+02
              0.249819979857476E+02
             -0.129149096128048E+02
              0.338538305542818E+01
             -0.171661451816387E+02
             -0.188613546140706E+01
              0.900940449286652E+02
              0.119008563417276E+01
             -0.188065362282180E+02
             -0.109969150786670E+03
             -0.549735228566103E+02
             -0.372116949847905E+02
             -0.654099483729635E+02
             -0.550952158931423E+02
             -0.677478819899586E+02
             -0.443679940363137E+02
             -0.409030855351948E+02
             -0.448248938189930E+02
              0.480187904710411E+02
             -0.293137314021125E+02
             -0.989698150766260E+02
              0.415827178996605E+02
             -0.257347735705227E+02
             -0.784966235621263E+02
              0.936494085505354E+02
             -0.217711172675318E+02
              0.227111697533017E+02
              0.452463390742943E+02
             -0.147797045923699E+01
              0.252381000069360E+02
              0.469444571193566E+01
              0.409639763588430E+00
             -0.149511789134410E+02
             -0.709951493382113E+02
              0.132408407688077E+02
             -0.128513883576589E+03
              0.618458990134809E+02
             -0.437574363226339E+02
             -0.161478389972060E+02
             -0.156657411020897E+02
              0.695885181542031E+01
             -0.226649177697130E+02
              0.295175920108010E+02
             -0.516154670520532E+02
              0.364619815607651E+02
              0.367379580691218E+02
              0.168003099696457E+02
              0.996986871967209E+01
              0.196135612462138E+02
              0.612943200760202E+01
              0.308309435443687E+02
             -0.795356040964418E+01
             -0.586310959112913E+02
              0.750078525717987E+01
             -0.150021453490396E+02
             -0.189244502261533E+01
              0.501782146528946E+02
             -0.820944226896394E+02
             -0.153082951702947E+01
              0.543310877527574E+00
              0.988799429692295E+01
              0.316174004377353E+02
             -0.122655321994923E+02
              0.829584341080049E+02
              0.485132077357913E+02
             -0.182297131837702E+02
             -0.952120863001329E+01
              0.101456475922456E+01
              0.763830290306975E+02
             -0.582723844730804E+02
             -0.105022129864591E+03
              0.306986806393509E+02
             -0.162350153877024E+02
             -0.138116722158754E+02
              0.129059268628068E+02
              0.762886063587202E+02
              0.461064190193810E+02
             -0.152218598189909E+02
             -0.498846279836994E+02
             -0.539519469944436E+01
              0.304367011267820E+02
             -0.110154967118343E+02
             -0.750097213917732E+02
             -0.262807888196633E+01
             -0.882421076315399E+02
             -0.471686206463074E+02
              0.761734902114621E+02
             -0.479513397664707E+02
             -0.630968851943043E+02
             -0.510368599671636E+02
             -0.346682292467549E+02
              0.338204484279047E+02
              0.815119918226601E+02
             -0.348304332853763E+01
              0.274596972013541E+02
             -0.182090896415413E+02
             -0.688740971740211E+02
              0.461172650336395E+02
             -0.441207924308924E+02
              0.320069158705898E+02
              0.374210166731272E+02
             -0.643029697483007E+01
              0.387861630153201E+02
              0.435585027384725E+02
              0.997239746858081E+02
             -0.155432468483699E+02
             -0.451513781886249E+02
             -0.607817587410477E+02
             -0.122403502528149E+02
             -0.229555785709909E+02
              0.102336050416113E+03
             -0.445574045937890E+02
              0.104395858168653E+02
              0.971553956369240E+01
             -0.263260473449427E+02
             -0.792000042364918E+02
             -0.694094308165438E+01
              0.972209649302709E+02
              0.920066965860438E+01
              0.804135718202127E+01
             -0.522287298846877E+02
             -0.601350400614592E+02
             -0.548554536758577E+01
              0.497022968969200E+02
             -0.219764235742740E+02
              0.107222328383265E+03
             -0.431671875316832E+02
              0.144775628679642E+02
             -0.223455860279555E+02
             -0.713901596765461E+02
              0.162350995603305E+01
             -0.497460705265612E+02
             -0.755078611851703E+02
              0.605169513492308E+01
              0.235111718648770E+01
              0.510331383714880E+02
              0.185109213305150E+02
             -0.320879332577860E+02
              0.228389020666823E+02
             -0.803918561879010E+02
             -0.518378528124115E+02
              0.894783308675198E+02
              0.142232111321606E+02
             -0.187858489902549E+02
             -0.350566315594145E+02
             -0.267679539541473E+01
             -0.577643623262270E+01
              0.822869510700543E+02
              0.414484978316984E+02
             -0.165580991469867E+02
             -0.122142079766443E+02
             -0.424864932370269E+02
             -0.199850349219374E+02
             -0.665464427644348E+02
              0.455617966019994E+02
              0.540753888657045E+01
              0.144408315415933E+02
              0.154556340343374E+02
             -0.454200253069853E+00
             -0.166628329139157E+02
             -0.317779625474695E+01
             -0.995696996349837E+02
             -0.229051881186978E+02
             -0.755684802532295E+01
             -0.943890937357148E+01
              0.543013613985204E+02
              0.618746771796600E+02
              0.163490345533816E+02
             -0.963529525801766E+02
              0.642802628847776E+02
             -0.213181964036216E+02
             -0.374152139574080E+02
             -0.857480743715915E+02
             -0.385031996826331E+02
              0.559471522478551E+02
              0.241449873252675E+02
              0.500449227608573E+01
              0.289464407134431E+02
             -0.560669075380273E+02
             -0.418464610900213E+02
              0.510446624310637E+02
              0.384058454140556E+02
              0.515426615784744E+02
             -0.131414175344122E+01
              0.675541823441199E+01
              0.565482252473794E+02
              0.955211933319732E+02
             -0.299058720627319E+02
              0.319550151859492E+02
             -0.115853974278866E+02
             -0.408724149617201E+02
             -0.311490302099461E+02
             -0.297362481734318E+02
             -0.130297431406473E+02
             -0.519902058696603E+02
             -0.215915633379018E+02
             -0.140176063676366E+03
              0.366526490093202E+02
              0.204671684903797E+02
             -0.390501151016093E+01
             -0.377111157225813E+02
             -0.202888346609657E+02
             -0.522421441590870E+02
              0.150760608742197E+02
              0.813984525579484E+02
             -0.250822323215654E+02
             -0.161500324408782E+02
              0.236479099366164E+02
             -0.485377103426757E+02
              0.874064738440807E+02
              0.153310165142085E+02
              0.226054339139552E+02
              0.486344970574675E+02
              0.327440851887690E+01
              0.537666879605470E+02
              0.141346199673215E+02
             -0.106556360388419E+02
              0.722334650120786E+01
              0.895153968024829E+00
              0.722387982295118E+02
              0.100489153743296E+02
              0.118716172184790E+02
             -0.129234091025434E+02
              0.131433479079396E+02
             -0.904112490416684E+02
             -0.323068887742689E+02
             -0.453542705320082E+02
              0.481614786632005E+02
             -0.288377407279594E+02
             -0.654410128508279E+02
              0.533738058801569E+02
             -0.121087795118947E+02
              0.436991276501159E+02
             -0.891874143291592E+02
              0.230801178727623E+02
              0.855463060504431E+01
              0.577433933551345E+01
             -0.822059735020105E+01
             -0.897968433191295E+01
              0.475591742795337E+02
              0.198058269447171E+01
             -0.470881506656395E+02
             -0.174429893703978E+02
              0.275383379190613E+02
             -0.117053335078117E+03
             -0.923211794530957E+02
              0.396885583410750E+01
              0.116327482751338E+02
             -0.409116539551945E+02
             -0.389714111004997E+01
              0.111348414827507E+03
              0.304459356790253E+02
             -0.567541736556414E+02
              0.919076601464229E+01
             -0.956752111970185E+01
              0.104540562240042E+02
             -0.334744514343436E+02
              0.193497440828362E+02
              0.282775202396676E+02
             -0.292830216226236E+01
              0.107309328847701E+03
             -0.140094745066742E+02
             -0.313604509845542E+02
              0.140425647814241E+02
              0.463441868675640E+02
             -0.353421316975584E+02
             -0.316949910766238E+01
              0.957217938145329E+02
             -0.465140060349745E+01
              0.617572209484783E+02
              0.134156977479630E+02
             -0.898466460545913E+01
             -0.304207155749926E+02
              0.563013780879616E+02
             -0.509679578832437E+02
             -0.220330772641114E+01
             -0.168488141006849E+02
             -0.402197370281082E+02
              0.183966759774157E+02
              0.237069549417064E+02
              0.116233050803635E+02
              0.739251981784150E+00
             -0.381222555724891E+02
              0.214405543037171E+02
             -0.673859338636333E+01
             -0.244993012381150E+02
             -0.209145680447817E+02
              0.202309613755114E+02
             -0.595388252388364E+01
             -0.346167745059341E+02
             -0.105785010535462E+03
              0.102278726446295E+02
              0.247784504596026E+02
             -0.383351234254316E+02
             -0.209009734117959E+02
              0.800629109786042E+02
              0.639837716276776E+01
              0.307195144413269E+02
              0.380905195956058E+01
              0.318637743656251E+02
              0.644027657397027E+01
             -0.369910622759273E+02
             -0.220161363211409E+01
              0.872974993513827E+01
              0.271313221076766E+02
              0.776379028783330E+02
              0.503762149243062E+02
              0.149157632131448E+00
              0.168022047608234E+02
              0.608522119991251E+02
              0.233668645780089E+02
             -0.747760867633096E+02
             -0.271636749704020E+02
              0.150299617006521E+02
              0.554197155988572E+01
              0.253151120460150E+02
             -0.543980684973687E+02
              0.896581753410007E+01
              0.382492118180728E+02
              0.494411406272742E+02
             -0.431749088540369E+02
             -0.694665285833776E+01
             -0.205636914668412E+01
             -0.132181377253931E+02
             -0.363842450427104E+02
             -0.214456891054577E+02
             -0.190479774536553E+01
              0.783794160135989E+01
              0.418122216079900E+02
             -0.305827162972266E+02
              0.819958521285254E+02
              0.324901629679186E+02
              0.217485071752295E+02
              0.330047472139509E+02
              0.321455091149519E+02
              0.343247342970838E+02
              0.532978516569549E+02
             -0.430230958516970E+02
              0.614788509129331E+02
             -0.111377138230738E+03
              0.305044805414546E+02
             -0.105731207285962E+03
              0.848601540693232E+02
              0.684515652640692E+02
             -0.109298322210371E+02
             -0.489805285305254E+02
             -0.426253069318226E+02
             -0.619571936305822E+02
             -0.623683009068429E+02
              0.547474173166687E+02
              0.402242955747018E+02
              0.234983917132121E+02
              0.372096221452026E+02
              0.399541257473695E+02
             -0.379039536119994E+02
             -0.196832675490836E+02
              0.582402884829351E+02
             -0.114978443639287E+02
              0.547872614799454E+02
              0.693409595667843E+02
             -0.550311924767880E+01
             -0.700489580366135E+02
             -0.968211919555756E+00
             -0.247373446371470E+01
             -0.874343157442104E+01
             -0.180844333872648E+01
             -0.648143156182938E+02
             -0.210409525724802E+02
              0.527944171999767E+01
              0.885737043355417E+01
              0.465009407361571E+02
             -0.394449944796993E+02
              0.653851362859117E+02
             -0.422387474831044E+02
              0.208097018238375E+02
              0.346994515429398E+02
 
 BEEF-vdW xc energy contributions
           1 :   -777.684807953319     
           2 :    715.053769435558     
           3 :   -606.313416918614     
           4 :    477.863356532137     
           5 :   -356.849473776546     
           6 :    263.055449661685     
           7 :   -204.280381540078     
           8 :    176.202284682120     
           9 :   -166.316629460851     
          10 :    160.051053983255     
          11 :   -146.546510577449     
          12 :    121.923348546376     
          13 :   -89.1838172612668     
          14 :    55.3437574428963     
          15 :   -27.4478129601283     
          16 :    9.28575294858354     
          17 :  -9.370851917333312E-002
          18 :   -4.50382012719558     
          19 :    10.0151891015779     
          20 :   -20.3707645906235     
          21 :    36.2247648244459     
          22 :   -54.9416565353221     
          23 :    72.1056832134302     
          24 :   -83.7280179540759     
          25 :    88.0648635488778     
          26 :   -86.2472281642158     
          27 :    81.5309541420959     
          28 :   -77.6225060182281     
          29 :    76.9160265195870     
          30 :   -79.4789598239112     
          31 :   -85.1673541513070     
          32 :   -65.4092347904340     

     Writing output data file ./pwscf.save/
 
     init_run     :    329.49s CPU    334.01s WALL (       1 calls)
     electrons    :  11993.97s CPU  12113.48s WALL (       1 calls)
     forces       :     93.17s CPU     94.46s WALL (       1 calls)

     Called by init_run:
     wfcinit      :    281.44s CPU    284.91s WALL (       1 calls)
     potinit      :     45.04s CPU     45.43s WALL (       1 calls)
     hinit0       :      1.13s CPU      1.20s WALL (       1 calls)

     Called by electrons:
     c_bands      :  10051.23s CPU  10144.99s WALL (      20 calls)
     sum_band     :   1342.92s CPU   1354.31s WALL (      20 calls)
     v_of_rho     :    103.81s CPU    107.80s WALL (      20 calls)
     newd         :     29.12s CPU     39.78s WALL (      20 calls)
     PAW_pot      :    139.22s CPU    139.22s WALL (      20 calls)
     mix_rho      :    373.50s CPU    374.09s WALL (      20 calls)
     vdW_kernel   :     33.93s CPU     33.94s WALL (       1 calls)

     Called by c_bands:
     init_us_2    :     75.75s CPU     76.00s WALL (     546 calls)
     cegterg      :   9267.86s CPU   9361.32s WALL (     260 calls)

     Called by *egterg:
     cdiaghg      :     96.84s CPU     96.90s WALL (    1359 calls)
     h_psi        :   5836.84s CPU   5869.25s WALL (    1385 calls)
     s_psi        :   1000.73s CPU   1000.76s WALL (    1385 calls)
     g_psi        :     16.38s CPU     16.39s WALL (    1112 calls)

     Called by h_psi:
     h_psi:calbec :    944.97s CPU    945.14s WALL (    1385 calls)
     vloc_psi     :   3865.04s CPU   3866.02s WALL (    1385 calls)
     add_vuspsi   :   1000.65s CPU   1000.72s WALL (    1385 calls)

     General routines
     calbec       :   1384.78s CPU   1385.10s WALL (    1697 calls)
     fft          :     45.08s CPU     45.12s WALL (    3220 calls)
     ffts         :    116.53s CPU    116.55s WALL (    9160 calls)
     fftw         :   3941.89s CPU   3942.50s WALL (  334528 calls)
 
     Parallel routines
 
     PWSCF        :      3h28m CPU      3h30m WALL

 
   This run was terminated on:  19:17:24  20Dec2022            

=------------------------------------------------------------------------------=
   JOB DONE.
=------------------------------------------------------------------------------=
