
     Program PWSCF v.6.7MaX starts on  4Jan2023 at 10:15: 8 

     This program is part of the open-source Quantum ESPRESSO suite
     for quantum simulation of materials; please cite
         "P. Giannozzi et al., J. Phys.:Condens. Matter 21 395502 (2009);
         "P. Giannozzi et al., J. Phys.:Condens. Matter 29 465901 (2017);
          URL http://www.quantum-espresso.org", 
     in publications or presentations arising from this work. More details at
     http://www.quantum-espresso.org/quote

     Parallel version (MPI), running on     1 processors

     MPI processes distributed on     1 nodes
     Reading input from chcch-bi-ensemble.in
Warning: card &CELL ignored
Warning: card / ignored

     Current dimensions of program PWSCF are:
     Max number of different atomic species (ntypx) = 10
     Max number of k-points (npk) =  40000
     Max angular momentum in pseudopotentials (lmaxx) =  3
     file Pt.pbe-n-kjpaw_psl.1.0.0.UPF: wavefunction(s)  6S 5D renormalized
     file C.pbe-n-kjpaw_psl.1.0.0.UPF: wavefunction(s)  2S 2P renormalized
     file H.pbe-kjpaw_psl.1.0.0.UPF: wavefunction(s)  1S renormalized

     **************************************************************************
     Initializing libbeef V0.1.2 with the BEEF-vdW functional.
     Citation: Wellendorff et al., PRB 85, 235149 (2012).
     **************************************************************************


     IMPORTANT: XC functional enforced from input :
     Exchange-correlation= BEEF-VDW
                           (   1   4  43  14   2   0   0)
     Any further DFT definition will be discarded
     Please, verify this is what you really want


     Subspace diagonalization in iterative solution of the eigenvalue problem:
     a serial algorithm will be used

 
     G-vector sticks info
     --------------------
     sticks:   dense  smooth     PW     G-vecs:    dense   smooth      PW
     Sum        4267    4267   1159               707067   707067   99711
 


     bravais-lattice index     =            0
     lattice parameter (alat)  =      16.0349  a.u.
     unit-cell volume          =   11255.2354 (a.u.)^3
     number of atoms/cell      =           41
     number of atomic types    =            3
     number of electrons       =       374.00
     number of Kohn-Sham states=          224
     kinetic-energy cutoff     =      60.0000  Ry
     charge density cutoff     =     240.0000  Ry
     scf convergence threshold =      1.0E-06
     mixing beta               =       0.7000
     number of iterations used =            8  local-TF  mixing
     Exchange-correlation= BEEF-VDW
                           (   1   4  43  14   2   0   0)

     celldm(1)=  16.034858  celldm(2)=   0.000000  celldm(3)=   0.000000
     celldm(4)=   0.000000  celldm(5)=   0.000000  celldm(6)=   0.000000

     crystal axes: (cart. coord. in units of alat)
               a(1) = (   1.000000   0.000000   0.000000 )  
               a(2) = (   0.500000   0.866025   0.000000 )  
               a(3) = (   0.000000   0.000000   3.152308 )  

     reciprocal axes: (cart. coord. in units 2 pi/alat)
               b(1) = (  1.000000 -0.577350  0.000000 )  
               b(2) = (  0.000000  1.154701  0.000000 )  
               b(3) = (  0.000000  0.000000  0.317228 )  


     PseudoPot. # 1 for Pt read from file:
     /users/bkreitz1/quantum-espresso/potentials/Pt.pbe-n-kjpaw_psl.1.0.0.UPF
     MD5 check sum: 04dc8a03c51ece93fc7b5889c2958091
     Pseudo is Projector augmented-wave + core cor, Zval = 10.0
     Generated using 'atomic' code by A. Dal Corso  v.6.7MaX
     Shape of augmentation charge: PSQ
     Using radial grid of 1277 points,  6 beta functions with: 
                l(1) =   0
                l(2) =   0
                l(3) =   1
                l(4) =   1
                l(5) =   2
                l(6) =   2
     Q(r) pseudized with 0 coefficients 


     PseudoPot. # 2 for C  read from file:
     /users/bkreitz1/quantum-espresso/potentials/C.pbe-n-kjpaw_psl.1.0.0.UPF
     MD5 check sum: a169b0ebad56f5ec0d79c4633f80bf22
     Pseudo is Projector augmented-wave + core cor, Zval =  4.0
     Generated using 'atomic' code by A. Dal Corso  v.6.7MaX
     Shape of augmentation charge: PSQ
     Using radial grid of 1073 points,  4 beta functions with: 
                l(1) =   0
                l(2) =   0
                l(3) =   1
                l(4) =   1
     Q(r) pseudized with 0 coefficients 


     PseudoPot. # 3 for H  read from file:
     /users/bkreitz1/quantum-espresso/potentials/H.pbe-kjpaw_psl.1.0.0.UPF
     MD5 check sum: ae98473e6dc62675f0d0baffdab24f65
     Pseudo is Projector augmented-wave, Zval =  1.0
     Generated using 'atomic' code by A. Dal Corso  v.6.7MaX
     Shape of augmentation charge: PSQ
     Using radial grid of  929 points,  2 beta functions with: 
                l(1) =   0
                l(2) =   0
     Q(r) pseudized with 0 coefficients 


     atomic species   valence    mass     pseudopotential
        Pt            10.00   195.08400     Pt( 1.00)
        C              4.00    12.01100     C ( 1.00)
        H              1.00     1.00800     H ( 1.00)

     No symmetry found



   Cartesian axes

     site n.     atom                  positions (alat units)
         1           Pt  tau(   1) = (   0.0000000   0.0000000   1.0017346  )
         2           Pt  tau(   2) = (   0.3333333   0.0000000   1.0017346  )
         3           Pt  tau(   3) = (   0.6666667   0.0000000   1.0017346  )
         4           Pt  tau(   4) = (   0.1666667   0.2886751   1.0017346  )
         5           Pt  tau(   5) = (   0.5000000   0.2886751   1.0017346  )
         6           Pt  tau(   6) = (   0.8333333   0.2886751   1.0017346  )
         7           Pt  tau(   7) = (   0.3333333   0.5773503   1.0017346  )
         8           Pt  tau(   8) = (   0.6666667   0.5773503   1.0017346  )
         9           Pt  tau(   9) = (   1.0000000   0.5773503   1.0017346  )
        10           Pt  tau(  10) = (   0.1666667   0.0962250   1.2739001  )
        11           Pt  tau(  11) = (   0.5000000   0.0962250   1.2739001  )
        12           Pt  tau(  12) = (   0.8333333   0.0962250   1.2739001  )
        13           Pt  tau(  13) = (   0.3333333   0.3849002   1.2739001  )
        14           Pt  tau(  14) = (   0.6666667   0.3849002   1.2739001  )
        15           Pt  tau(  15) = (   1.0000000   0.3849002   1.2739001  )
        16           Pt  tau(  16) = (   0.5000000   0.6735753   1.2739001  )
        17           Pt  tau(  17) = (   0.8333333   0.6735753   1.2739001  )
        18           Pt  tau(  18) = (   1.1666667   0.6735753   1.2739001  )
        19           Pt  tau(  19) = (   0.0005139   0.1916257   1.5395363  )
        20           Pt  tau(  20) = (   0.3354175   0.1931636   1.5465220  )
        21           Pt  tau(  21) = (   0.6638930   0.1932030   1.5471624  )
        22           Pt  tau(  22) = (   0.1666828   0.4800143   1.5408545  )
        23           Pt  tau(  23) = (   0.5023729   0.4796990   1.5496343  )
        24           Pt  tau(  24) = (   0.8309573   0.4813315   1.5475677  )
        25           Pt  tau(  25) = (   0.3335607   0.7692467   1.5401510  )
        26           Pt  tau(  26) = (   0.6666581   0.7668344   1.5451605  )
        27           Pt  tau(  27) = (   1.0000827   0.7686750   1.5423288  )
        28           Pt  tau(  28) = (  -0.0005122  -0.0005993   1.8155381  )
        29           Pt  tau(  29) = (   0.3335645  -0.0029958   1.8158023  )
        30           Pt  tau(  30) = (   0.6688604  -0.0054329   1.8156726  )
        31           Pt  tau(  31) = (   0.1645198   0.2856264   1.8173583  )
        32           Pt  tau(  32) = (   0.4944225   0.2777919   1.8382854  )
        33           Pt  tau(  33) = (   0.8386958   0.2830792   1.8135647  )
        34           Pt  tau(  34) = (   0.3307269   0.5763519   1.8115434  )
        35           Pt  tau(  35) = (   0.6746842   0.5803798   1.8380461  )
        36           Pt  tau(  36) = (   1.0038072   0.5743852   1.8172060  )
        37           C   tau(  37) = (   0.5285867   0.2867587   2.0704730  )
        38           C   tau(  38) = (   0.5815896   0.4301898   2.0985208  )
        39           C   tau(  39) = (   0.6358585   0.5732468   2.0689009  )
        40           H   tau(  40) = (   0.5170606   0.1861612   2.1477976  )
        41           H   tau(  41) = (   0.6476655   0.6738808   2.1474408  )

     number of k points=    13  Marzari-Vanderbilt smearing, width (Ry)=  0.0200
                       cart. coord. in units 2pi/alat
        k(    1) = (   0.0000000   0.0000000   0.0000000), wk =   0.0800000
        k(    2) = (   0.0000000   0.2309401   0.0000000), wk =   0.1600000
        k(    3) = (   0.0000000   0.4618802   0.0000000), wk =   0.1600000
        k(    4) = (   0.2000000  -0.1154701   0.0000000), wk =   0.1600000
        k(    5) = (   0.2000000   0.1154701   0.0000000), wk =   0.1600000
        k(    6) = (   0.2000000   0.3464102   0.0000000), wk =   0.1600000
        k(    7) = (   0.2000000  -0.5773503   0.0000000), wk =   0.1600000
        k(    8) = (   0.2000000  -0.3464102   0.0000000), wk =   0.1600000
        k(    9) = (   0.4000000  -0.2309401   0.0000000), wk =   0.1600000
        k(   10) = (   0.4000000  -0.0000000   0.0000000), wk =   0.1600000
        k(   11) = (   0.4000000   0.2309401   0.0000000), wk =   0.1600000
        k(   12) = (   0.4000000  -0.6928203   0.0000000), wk =   0.1600000
        k(   13) = (   0.4000000  -0.4618802   0.0000000), wk =   0.1600000

     Dense  grid:   707067 G-vectors     FFT dimensions: (  80,  80, 250)

     Estimated max dynamical RAM per process >       8.54 GB

     Check: negative core charge=   -0.000002

     Initial potential from superposition of free atoms

     starting charge  373.99375, renormalised to  374.00000

     negative rho (up, down):  1.149E-02 0.000E+00


     %%%%%%%%%%%%%%%%%%%%%%%%%%%%%%%%%%%%%%%%%%%%%%%%%%%%%%%%%%%%%%%%%%%%%%%%
     %                                                                      %
     % You are using vdW-DF, which was implemented by the Thonhauser group. %
     % Please cite the following two papers that made this development      %
     % possible and the two reviews that describe the various versions:     %
     %                                                                      %
     %   T. Thonhauser et al., PRL 115, 136402 (2015).                      %
     %   T. Thonhauser et al., PRB 76, 125112 (2007).                       %
     %   K. Berland et al., Rep. Prog. Phys. 78, 066501 (2015).             %
     %   D.C. Langreth et al., J. Phys.: Condens. Matter 21, 084203 (2009). %
     %                                                                      %
     %                                                                      %
     % If you are calculating the stress with vdW-DF, please also cite:     %
     %                                                                      %
     %   R. Sabatini et al., J. Phys.: Condens. Matter 24, 424209 (2012).   %
     %                                                                      %
     %%%%%%%%%%%%%%%%%%%%%%%%%%%%%%%%%%%%%%%%%%%%%%%%%%%%%%%%%%%%%%%%%%%%%%%%


     Starting wfcs are  338 randomized atomic wfcs
     Checking if some PAW data can be deallocated... 

     total cpu time spent up to now is      328.5 secs

     Self-consistent Calculation

     iteration #  1     ecut=    60.00 Ry     beta= 0.70
     Davidson diagonalization with overlap
     ethr =  1.00E-02,  avg # of iterations =  2.0

     negative rho (up, down):  1.509E-02 0.000E+00

     total cpu time spent up to now is      914.3 secs

     total energy              =  -27812.67217140 Ry
     estimated scf accuracy    <       5.23443267 Ry

     iteration #  2     ecut=    60.00 Ry     beta= 0.70
     Davidson diagonalization with overlap
     ethr =  1.40E-03,  avg # of iterations =  2.2

     negative rho (up, down):  1.216E-02 0.000E+00

     total cpu time spent up to now is     1504.0 secs

     total energy              =  -27813.29838160 Ry
     estimated scf accuracy    <       1.04242843 Ry

     iteration #  3     ecut=    60.00 Ry     beta= 0.70
     Davidson diagonalization with overlap
     c_bands:  1 eigenvalues not converged
     ethr =  2.79E-04,  avg # of iterations = 13.4

     negative rho (up, down):  9.718E-03 0.000E+00

     total cpu time spent up to now is     2271.9 secs

     total energy              =  -27813.46746909 Ry
     estimated scf accuracy    <       0.36666853 Ry

     iteration #  4     ecut=    60.00 Ry     beta= 0.70
     Davidson diagonalization with overlap
     ethr =  9.80E-05,  avg # of iterations =  5.4

     negative rho (up, down):  5.824E-03 0.000E+00

     total cpu time spent up to now is     2954.3 secs

     total energy              =  -27813.51225609 Ry
     estimated scf accuracy    <       0.14330450 Ry

     iteration #  5     ecut=    60.00 Ry     beta= 0.70
     Davidson diagonalization with overlap
     c_bands:  1 eigenvalues not converged
     c_bands:  1 eigenvalues not converged
     ethr =  3.83E-05,  avg # of iterations = 10.2

     negative rho (up, down):  3.657E-03 0.000E+00

     total cpu time spent up to now is     3712.0 secs

     total energy              =  -27813.53015253 Ry
     estimated scf accuracy    <       0.16714799 Ry

     iteration #  6     ecut=    60.00 Ry     beta= 0.70
     Davidson diagonalization with overlap
     ethr =  3.83E-05,  avg # of iterations =  1.2

     negative rho (up, down):  3.199E-03 0.000E+00

     total cpu time spent up to now is     4230.3 secs

     total energy              =  -27813.53528860 Ry
     estimated scf accuracy    <       0.01354007 Ry

     iteration #  7     ecut=    60.00 Ry     beta= 0.70
     Davidson diagonalization with overlap
     c_bands:  2 eigenvalues not converged
     c_bands:  1 eigenvalues not converged
     c_bands:  1 eigenvalues not converged
     c_bands:  1 eigenvalues not converged
     c_bands:  1 eigenvalues not converged
     c_bands:  1 eigenvalues not converged
     ethr =  3.62E-06,  avg # of iterations = 17.8

     negative rho (up, down):  2.988E-03 0.000E+00

     total cpu time spent up to now is     5270.7 secs

     total energy              =  -27813.54020438 Ry
     estimated scf accuracy    <       0.01076381 Ry

     iteration #  8     ecut=    60.00 Ry     beta= 0.70
     Davidson diagonalization with overlap
     c_bands:  2 eigenvalues not converged
     c_bands:  1 eigenvalues not converged
     c_bands:  1 eigenvalues not converged
     ethr =  2.88E-06,  avg # of iterations =  6.2

     negative rho (up, down):  2.939E-03 0.000E+00

     total cpu time spent up to now is     5867.1 secs

     total energy              =  -27813.54040641 Ry
     estimated scf accuracy    <       0.00572995 Ry

     iteration #  9     ecut=    60.00 Ry     beta= 0.70
     Davidson diagonalization with overlap
     c_bands:  1 eigenvalues not converged
     c_bands:  1 eigenvalues not converged
     c_bands:  1 eigenvalues not converged
     ethr =  1.53E-06,  avg # of iterations =  8.1

     negative rho (up, down):  3.019E-03 0.000E+00

     total cpu time spent up to now is     6481.9 secs

     total energy              =  -27813.54045569 Ry
     estimated scf accuracy    <       0.00239666 Ry

     iteration # 10     ecut=    60.00 Ry     beta= 0.70
     Davidson diagonalization with overlap
     ethr =  6.41E-07,  avg # of iterations =  8.6

     negative rho (up, down):  3.545E-03 0.000E+00

     total cpu time spent up to now is     7111.2 secs

     total energy              =  -27813.54056422 Ry
     estimated scf accuracy    <       0.00107243 Ry

     iteration # 11     ecut=    60.00 Ry     beta= 0.70
     Davidson diagonalization with overlap
     ethr =  2.87E-07,  avg # of iterations =  4.5

     negative rho (up, down):  5.552E-03 0.000E+00

     total cpu time spent up to now is     7706.8 secs

     total energy              =  -27813.54066332 Ry
     estimated scf accuracy    <       0.00061728 Ry

     iteration # 12     ecut=    60.00 Ry     beta= 0.70
     Davidson diagonalization with overlap
     ethr =  1.65E-07,  avg # of iterations =  6.5

     negative rho (up, down):  7.432E-03 0.000E+00

     total cpu time spent up to now is     8310.9 secs

     total energy              =  -27813.54071194 Ry
     estimated scf accuracy    <       0.00038370 Ry

     iteration # 13     ecut=    60.00 Ry     beta= 0.70
     Davidson diagonalization with overlap
     ethr =  1.03E-07,  avg # of iterations =  2.0

     negative rho (up, down):  8.873E-03 0.000E+00

     total cpu time spent up to now is     8870.7 secs

     total energy              =  -27813.54076588 Ry
     estimated scf accuracy    <       0.00027978 Ry

     iteration # 14     ecut=    60.00 Ry     beta= 0.70
     Davidson diagonalization with overlap
     ethr =  7.48E-08,  avg # of iterations =  1.2

     negative rho (up, down):  1.019E-02 0.000E+00

     total cpu time spent up to now is     9388.5 secs

     total energy              =  -27813.54081858 Ry
     estimated scf accuracy    <       0.00014267 Ry

     iteration # 15     ecut=    60.00 Ry     beta= 0.70
     Davidson diagonalization with overlap
     ethr =  3.81E-08,  avg # of iterations =  3.4

     negative rho (up, down):  1.142E-02 0.000E+00

     total cpu time spent up to now is     9967.3 secs

     total energy              =  -27813.54082722 Ry
     estimated scf accuracy    <       0.00009827 Ry

     iteration # 16     ecut=    60.00 Ry     beta= 0.70
     Davidson diagonalization with overlap
     ethr =  2.63E-08,  avg # of iterations =  1.5

     negative rho (up, down):  1.238E-02 0.000E+00

     total cpu time spent up to now is    10511.7 secs

     total energy              =  -27813.54082648 Ry
     estimated scf accuracy    <       0.00002150 Ry

     iteration # 17     ecut=    60.00 Ry     beta= 0.70
     Davidson diagonalization with overlap
     ethr =  5.75E-09,  avg # of iterations =  4.3

     negative rho (up, down):  1.247E-02 0.000E+00

     total cpu time spent up to now is    11233.2 secs

     total energy              =  -27813.54083186 Ry
     estimated scf accuracy    <       0.00001173 Ry

     iteration # 18     ecut=    60.00 Ry     beta= 0.70
     Davidson diagonalization with overlap
     ethr =  3.14E-09,  avg # of iterations =  2.0

     negative rho (up, down):  1.260E-02 0.000E+00

     total cpu time spent up to now is    11795.0 secs

     total energy              =  -27813.54083219 Ry
     estimated scf accuracy    <       0.00000494 Ry

     iteration # 19     ecut=    60.00 Ry     beta= 0.70
     Davidson diagonalization with overlap
     ethr =  1.32E-09,  avg # of iterations =  2.0

     negative rho (up, down):  1.250E-02 0.000E+00

     total cpu time spent up to now is    12378.2 secs

     total energy              =  -27813.54083283 Ry
     estimated scf accuracy    <       0.00000123 Ry

     iteration # 20     ecut=    60.00 Ry     beta= 0.70
     Davidson diagonalization with overlap
     ethr =  3.29E-10,  avg # of iterations =  4.6

     negative rho (up, down):  1.246E-02 0.000E+00

     total cpu time spent up to now is    13182.6 secs

     End of self-consistent calculation

          k = 0.0000 0.0000 0.0000 ( 88397 PWs)   bands (ev):

   -13.9814 -11.3274  -6.9090  -6.6230  -5.4262  -5.3121  -4.6232  -4.2913
    -4.2586  -4.2254  -4.2094  -4.2081  -4.1871  -4.1695  -4.0812  -3.8078
    -3.6663  -3.6561  -3.6497  -3.6408  -3.5874  -3.3980  -3.2449  -3.2164
    -3.2134  -3.1911  -3.1638  -3.1420  -3.0508  -2.9747  -2.9731  -2.9674
    -2.8904  -2.8887  -2.8408  -2.7834  -2.7753  -2.7632  -2.7420  -2.7376
    -2.7237  -2.7160  -2.7102  -2.6700  -2.6330  -2.6102  -2.5545  -2.1988
    -2.1243  -2.1187  -2.1041  -2.0900  -2.0800  -2.0635  -2.0457  -2.0188
    -1.9446  -1.8792  -1.8605  -1.8043  -1.6306  -1.4595  -1.3787  -1.3542
    -1.3231  -1.3097  -1.2491  -1.2345  -1.2230  -1.1592  -1.1235  -1.1210
    -1.1162  -1.1091  -1.1004  -1.0886  -1.0713  -1.0590  -1.0399  -1.0350
    -1.0117  -1.0003  -0.9931  -0.9314  -0.9157  -0.9079  -0.8940  -0.8596
    -0.7964  -0.7593  -0.7286  -0.7236  -0.7147  -0.7074  -0.6873  -0.6694
    -0.6658  -0.6453  -0.6159  -0.5816  -0.5711  -0.5646  -0.4653  -0.4585
    -0.4482  -0.4171  -0.4160  -0.3667  -0.3250  -0.2929  -0.2635  -0.2410
    -0.1790  -0.0730   0.0100   0.1161   0.1539   0.1716   0.1822   0.2074
     0.2235   0.2375   0.2517   0.2787   0.3150   0.3699   0.3936   0.4093
     0.4589   0.4887   0.5098   0.5265   0.5769   0.5923   0.6045   0.7021
     0.7148   0.7263   0.7368   0.7677   0.8653   0.8993   0.9394   0.9575
     0.9616   0.9836   1.0266   1.0459   1.1954   1.2033   1.2133   1.2243
     1.2251   1.2609   1.2781   1.3018   1.3680   1.3937   1.3952   1.4097
     1.4110   1.4299   1.4434   1.4460   1.4578   1.4707   1.4796   1.5010
     1.5244   1.5409   1.5518   1.5567   1.5819   1.6347   1.6394   1.6452
     1.6591   1.6773   1.7000   1.7163   1.7355   1.7863   1.7907   1.7964
     1.8130   1.8233   1.8359   1.8457   1.8790   1.9011   1.9062   1.9425
     1.9480   2.0843   2.1025   2.1627   2.2060   2.2292   2.2415   2.2495
     2.2616   2.3016   2.4179   2.4987   3.0129   3.0886   3.1134   3.1827
     3.2282   3.6982   4.0822   5.0299   5.3583   5.4046   5.4204   5.4575
     5.9342   6.1750   6.7335   6.8726   6.9475   7.0266   7.0429   7.0586

          k = 0.0000 0.2309 0.0000 ( 88306 PWs)   bands (ev):

   -13.9812 -11.3279  -6.9028  -6.4804  -5.3304  -5.2788  -4.7570  -4.5708
    -4.3317  -4.2727  -4.1290  -4.0712  -4.0397  -3.9774  -3.9384  -3.8213
    -3.7401  -3.6745  -3.5851  -3.5794  -3.5108  -3.3857  -3.2611  -3.2175
    -3.1636  -3.1552  -3.1378  -3.0813  -3.0570  -3.0302  -2.9943  -2.9831
    -2.9537  -2.9142  -2.8611  -2.8426  -2.8087  -2.7723  -2.7569  -2.7285
    -2.6980  -2.6541  -2.5602  -2.5336  -2.5214  -2.4964  -2.4452  -2.2784
    -2.2388  -2.2115  -2.1964  -2.1586  -2.1217  -2.0860  -1.9802  -1.9143
    -1.8769  -1.8721  -1.8369  -1.8273  -1.6980  -1.5699  -1.5227  -1.4800
    -1.4528  -1.4350  -1.4041  -1.3744  -1.3208  -1.2963  -1.2834  -1.2661
    -1.2433  -1.1992  -1.1599  -1.1462  -1.1336  -1.0923  -1.0654  -1.0389
    -1.0121  -0.9749  -0.9321  -0.9223  -0.8982  -0.8653  -0.8551  -0.8382
    -0.8177  -0.8103  -0.7688  -0.7363  -0.7301  -0.6976  -0.6867  -0.6674
    -0.6314  -0.6188  -0.5809  -0.5711  -0.5483  -0.5210  -0.5086  -0.4960
    -0.4718  -0.4457  -0.4212  -0.3994  -0.3514  -0.3324  -0.2995  -0.2503
    -0.2277  -0.1954  -0.1883  -0.1671  -0.1643  -0.1073  -0.0207   0.0380
     0.1134   0.1397   0.1922   0.2148   0.2559   0.2671   0.2755   0.3045
     0.3460   0.4340   0.5031   0.5473   0.5877   0.5930   0.6206   0.6499
     0.6716   0.6840   0.7077   0.7540   0.7840   0.8180   0.8395   0.8626
     0.8746   0.9790   0.9940   1.0230   1.0558   1.0799   1.0909   1.1340
     1.1689   1.2025   1.2232   1.2421   1.2766   1.3010   1.3324   1.3616
     1.3882   1.4297   1.4556   1.4748   1.4927   1.5391   1.5759   1.5994
     1.6120   1.6410   1.6520   1.7132   1.7452   1.7724   1.7834   1.8142
     1.8217   1.8535   1.8738   1.8844   1.9043   1.9137   1.9464   1.9538
     1.9634   2.0588   2.0893   2.1092   2.1182   2.1506   2.1644   2.2010
     2.2096   2.2364   2.2490   2.3082   2.3415   2.3675   2.3838   2.4673
     2.5224   2.5461   2.6130   2.7863   2.8807   3.1168   3.3551   3.7078
     3.7961   3.8423   4.3420   4.7962   5.0398   5.2705   5.7823   5.8699
     5.8792   6.0844   6.0954   6.4214   6.7142   6.8137   6.9045   7.0110

          k = 0.0000 0.4619 0.0000 ( 88298 PWs)   bands (ev):

   -13.9810 -11.3286  -6.8954  -6.0636  -5.4384  -5.3222  -4.9483  -4.5725
    -4.3677  -4.3208  -4.1414  -4.0025  -3.8267  -3.7614  -3.7243  -3.6841
    -3.6126  -3.5822  -3.4406  -3.4257  -3.3969  -3.3800  -3.3148  -3.3006
    -3.2623  -3.2219  -3.1936  -3.1648  -3.1397  -3.1051  -3.0780  -3.0421
    -3.0078  -2.8357  -2.7954  -2.7860  -2.7780  -2.7493  -2.7405  -2.6858
    -2.5571  -2.5369  -2.5165  -2.5018  -2.4498  -2.4288  -2.3289  -2.2524
    -2.2283  -2.2129  -2.1693  -2.1593  -2.1052  -2.0608  -2.0425  -2.0269
    -2.0075  -1.9426  -1.8719  -1.8435  -1.8259  -1.7979  -1.6858  -1.6657
    -1.6255  -1.6096  -1.5880  -1.4790  -1.4577  -1.4261  -1.4192  -1.3958
    -1.3492  -1.3259  -1.2839  -1.2665  -1.1764  -1.1631  -1.1384  -1.0951
    -1.0639  -1.0345  -1.0184  -0.9841  -0.9730  -0.9631  -0.9195  -0.9048
    -0.8910  -0.8796  -0.8517  -0.8380  -0.8254  -0.8105  -0.7471  -0.7318
    -0.7168  -0.6968  -0.6806  -0.6205  -0.5724  -0.5622  -0.5482  -0.5082
    -0.4761  -0.4645  -0.4307  -0.4047  -0.3717  -0.3106  -0.2645  -0.2291
    -0.2120  -0.1839  -0.1662  -0.1212  -0.0534  -0.0481   0.0004   0.0500
     0.0781   0.0992   0.1324   0.1662   0.1889   0.2109   0.2263   0.2602
     0.2848   0.2895   0.3070   0.3295   0.3644   0.3853   0.4457   0.4935
     0.5131   0.5262   0.5807   0.6159   0.6735   0.7209   0.7517   0.7972
     0.8282   0.9291   0.9582   0.9781   0.9958   1.0380   1.0720   1.1073
     1.1206   1.1617   1.1809   1.2133   1.2540   1.2646   1.3161   1.3697
     1.3732   1.3828   1.4064   1.4175   1.5343   1.5543   1.6033   1.6216
     1.6498   1.6704   1.6824   1.7768   1.8016   1.8091   1.8758   1.8916
     1.9296   1.9351   1.9687   1.9822   2.0027   2.0845   2.1003   2.1182
     2.1337   2.1477   2.1761   2.1963   2.2251   2.3373   2.3550   2.3781
     2.3899   2.4191   2.5128   2.6063   2.6285   2.8132   2.9838   3.0677
     3.2776   3.4240   3.4517   3.5687   3.8268   3.8941   4.1036   4.2153
     4.5878   4.6583   4.6690   4.7920   4.9404   4.9767   5.0276   5.2991
     5.3110   5.4172   5.7652   5.9869   6.3453   6.4908   6.6001   6.7239

          k = 0.2000-0.1155 0.0000 ( 88306 PWs)   bands (ev):

   -13.9813 -11.3274  -6.9060  -6.4801  -5.3159  -5.2947  -4.7816  -4.5000
    -4.3525  -4.2992  -4.1371  -4.0710  -4.0128  -3.9845  -3.9496  -3.7660
    -3.7357  -3.7074  -3.5894  -3.5863  -3.5459  -3.3459  -3.2845  -3.1764
    -3.1627  -3.1480  -3.1392  -3.1071  -3.0701  -3.0367  -2.9983  -2.9656
    -2.9503  -2.9408  -2.8755  -2.8390  -2.8252  -2.7825  -2.7564  -2.7295
    -2.6961  -2.6513  -2.5471  -2.5266  -2.5158  -2.4963  -2.4651  -2.2525
    -2.2381  -2.1883  -2.1771  -2.1448  -2.1295  -2.0943  -1.9713  -1.9345
    -1.9179  -1.8611  -1.8411  -1.7909  -1.7107  -1.5888  -1.5143  -1.4799
    -1.4529  -1.4363  -1.4127  -1.3432  -1.3208  -1.3008  -1.2799  -1.2740
    -1.2613  -1.1975  -1.1636  -1.1348  -1.1157  -1.0949  -1.0560  -1.0157
    -1.0117  -0.9859  -0.9379  -0.9318  -0.8871  -0.8716  -0.8410  -0.8180
    -0.8079  -0.7932  -0.7807  -0.7513  -0.7312  -0.7168  -0.6921  -0.6568
    -0.6308  -0.6200  -0.5664  -0.5541  -0.5468  -0.5325  -0.5001  -0.4939
    -0.4690  -0.4592  -0.4381  -0.3918  -0.3599  -0.3387  -0.2568  -0.2442
    -0.2350  -0.2120  -0.1825  -0.1701  -0.1668  -0.1415  -0.0450   0.0383
     0.1153   0.1572   0.1788   0.2134   0.2360   0.2509   0.2875   0.2980
     0.3535   0.4362   0.4516   0.5475   0.5864   0.6170   0.6367   0.6490
     0.6625   0.6829   0.7135   0.7274   0.7701   0.8190   0.8303   0.8650
     0.8805   0.9832   0.9877   1.0200   1.0329   1.0708   1.1425   1.1532
     1.1698   1.2131   1.2234   1.2482   1.2923   1.3055   1.3328   1.3729
     1.3847   1.4302   1.4630   1.4732   1.4907   1.5186   1.5728   1.5988
     1.6239   1.6410   1.6820   1.6967   1.7536   1.7601   1.7771   1.8080
     1.8352   1.8548   1.8750   1.8889   1.9021   1.9085   1.9392   1.9566
     1.9784   2.0649   2.0846   2.1077   2.1309   2.1569   2.1766   2.1911
     2.2121   2.2236   2.2282   2.2778   2.3404   2.3731   2.4178   2.5047
     2.5262   2.5528   2.5937   2.6789   2.8877   3.0968   3.4020   3.7143
     3.8067   3.9833   4.2543   4.6773   5.0036   5.4878   5.6286   5.8767
     5.8831   6.0267   6.2286   6.3974   6.7143   6.7760   6.8918   6.9407

          k = 0.2000 0.1155 0.0000 ( 88306 PWs)   bands (ev):

   -13.9812 -11.3278  -6.9031  -6.4800  -5.3236  -5.2851  -4.7502  -4.5871
    -4.3227  -4.2690  -4.1277  -4.0714  -4.0382  -3.9813  -3.9443  -3.8267
    -3.7398  -3.6510  -3.5873  -3.5742  -3.5115  -3.4023  -3.2523  -3.1986
    -3.1670  -3.1497  -3.1326  -3.0836  -3.0653  -3.0510  -2.9885  -2.9713
    -2.9509  -2.9190  -2.8808  -2.8525  -2.8075  -2.7835  -2.7596  -2.7315
    -2.7050  -2.6395  -2.5621  -2.5352  -2.5247  -2.4954  -2.4419  -2.2879
    -2.2388  -2.1996  -2.1816  -2.1579  -2.1160  -2.0909  -1.9778  -1.9298
    -1.8843  -1.8666  -1.8378  -1.8063  -1.7040  -1.5721  -1.5341  -1.4791
    -1.4545  -1.4418  -1.4073  -1.3512  -1.3268  -1.3160  -1.2943  -1.2629
    -1.2400  -1.1949  -1.1815  -1.1430  -1.1242  -1.0871  -1.0369  -1.0193
    -1.0102  -0.9578  -0.9361  -0.9248  -0.9075  -0.8738  -0.8542  -0.8484
    -0.8119  -0.8054  -0.7668  -0.7410  -0.7148  -0.7068  -0.6971  -0.6792
    -0.6384  -0.6148  -0.5821  -0.5586  -0.5438  -0.5250  -0.5157  -0.4834
    -0.4727  -0.4480  -0.4115  -0.3976  -0.3427  -0.3175  -0.3008  -0.2487
    -0.2257  -0.2080  -0.1906  -0.1749  -0.1635  -0.1522  -0.0033   0.0420
     0.1095   0.1278   0.1930   0.2098   0.2585   0.2687   0.2843   0.3178
     0.3972   0.4330   0.5083   0.5421   0.5651   0.6024   0.6348   0.6467
     0.6693   0.6890   0.7078   0.7602   0.7815   0.8253   0.8363   0.8623
     0.8729   0.9556   0.9949   1.0100   1.0345   1.0669   1.0978   1.1425
     1.1681   1.2000   1.2212   1.2479   1.2806   1.2980   1.3317   1.3688
     1.3817   1.4057   1.4555   1.4673   1.4978   1.5423   1.5809   1.5962
     1.6121   1.6363   1.6490   1.7070   1.7462   1.7742   1.7843   1.8069
     1.8288   1.8519   1.8724   1.8859   1.8999   1.9118   1.9400   1.9576
     1.9794   2.0692   2.0930   2.1047   2.1256   2.1481   2.1607   2.1965
     2.2086   2.2307   2.2441   2.3105   2.3399   2.3631   2.3979   2.4255
     2.5344   2.5460   2.6574   2.7645   2.8594   3.1781   3.3600   3.6944
     3.7898   3.8837   4.3190   4.8173   5.0140   5.2727   5.7504   5.8709
     5.8798   6.0731   6.0988   6.4433   6.6822   6.8204   6.9075   6.9999

          k = 0.2000 0.3464 0.0000 ( 88376 PWs)   bands (ev):

   -13.9810 -11.3286  -6.8960  -6.1986  -5.3241  -5.0807  -4.9779  -4.9623
    -4.4971  -3.9991  -3.9058  -3.9033  -3.8816  -3.8610  -3.8103  -3.8005
    -3.7177  -3.7043  -3.6841  -3.4767  -3.3266  -3.3035  -3.2907  -3.2625
    -3.2157  -3.1616  -3.1359  -3.0920  -3.0695  -3.0602  -3.0321  -2.9537
    -2.9214  -2.9166  -2.8933  -2.8770  -2.8236  -2.7978  -2.7861  -2.7549
    -2.6917  -2.6751  -2.6068  -2.4107  -2.3629  -2.3207  -2.3137  -2.2860
    -2.2680  -2.2421  -2.1929  -2.1766  -2.1101  -2.0435  -2.0169  -1.9730
    -1.9145  -1.8969  -1.8388  -1.8235  -1.8020  -1.7450  -1.7237  -1.6115
    -1.5747  -1.5339  -1.5025  -1.4801  -1.4414  -1.4269  -1.3998  -1.3770
    -1.3499  -1.2455  -1.2246  -1.1997  -1.1842  -1.1717  -1.1545  -1.1318
    -1.0760  -1.0325  -1.0208  -0.9793  -0.9388  -0.9202  -0.8956  -0.8623
    -0.8520  -0.8363  -0.8322  -0.8011  -0.7750  -0.7582  -0.7263  -0.7210
    -0.6644  -0.6293  -0.6112  -0.6005  -0.5704  -0.5560  -0.5112  -0.5046
    -0.4818  -0.4717  -0.4501  -0.4232  -0.4011  -0.3657  -0.3565  -0.3348
    -0.3077  -0.2546  -0.2321  -0.2163  -0.1520  -0.1331  -0.1111  -0.0064
     0.0783   0.0941   0.1187   0.1443   0.2162   0.2439   0.2707   0.2905
     0.3321   0.3422   0.3616   0.3888   0.4378   0.4450   0.4984   0.5743
     0.5913   0.6228   0.6394   0.6803   0.7411   0.7662   0.7978   0.8224
     0.8594   0.9015   0.9172   0.9710   0.9962   1.0264   1.0834   1.1006
     1.1372   1.1484   1.1755   1.2003   1.2101   1.2348   1.2476   1.2898
     1.2999   1.3426   1.3882   1.4320   1.5429   1.5607   1.5835   1.6859
     1.7504   1.7678   1.7958   1.8120   1.8693   1.8898   1.9127   1.9363
     1.9496   1.9679   1.9812   1.9914   2.0148   2.0311   2.0550   2.0943
     2.1249   2.1522   2.1740   2.1929   2.2131   2.2388   2.3119   2.3649
     2.4220   2.4571   2.4695   2.5229   2.5369   2.6019   2.6915   2.7319
     3.0887   3.1992   3.2372   3.4304   3.6737   3.7749   3.7945   3.9607
     4.4119   4.4746   4.5500   4.6930   4.7472   5.0560   5.4077   5.6878
     5.8553   5.8833   6.0927   6.1810   6.5094   6.5444   6.5858   6.6227

          k = 0.2000-0.5774 0.0000 ( 88328 PWs)   bands (ev):

   -13.9810 -11.3286  -6.8951  -5.6762  -5.6656  -5.3215  -5.0874  -4.7560
    -4.4690  -4.2330  -3.9300  -3.8731  -3.7443  -3.7212  -3.6540  -3.5897
    -3.5254  -3.4927  -3.4598  -3.4444  -3.4013  -3.3518  -3.3387  -3.3301
    -3.3153  -3.2655  -3.1858  -3.1644  -3.1419  -3.1190  -3.0933  -3.0035
    -2.9962  -2.9315  -2.8756  -2.8178  -2.8069  -2.7588  -2.7395  -2.7149
    -2.6679  -2.6397  -2.5974  -2.5085  -2.4450  -2.3311  -2.3207  -2.2805
    -2.2377  -2.1671  -2.1255  -2.1037  -2.0090  -1.9825  -1.9590  -1.9207
    -1.8997  -1.8585  -1.8208  -1.8175  -1.7670  -1.7390  -1.7137  -1.6938
    -1.6762  -1.6513  -1.6411  -1.6087  -1.5837  -1.5120  -1.4698  -1.4252
    -1.4086  -1.3720  -1.3498  -1.2642  -1.2582  -1.2352  -1.2112  -1.1937
    -1.1755  -1.1449  -1.0837  -1.0275  -1.0143  -0.9912  -0.9831  -0.9502
    -0.9261  -0.8543  -0.8300  -0.8173  -0.7938  -0.7333  -0.7110  -0.6920
    -0.6572  -0.6317  -0.6211  -0.5829  -0.5692  -0.5513  -0.5329  -0.5227
    -0.5010  -0.4852  -0.4540  -0.4056  -0.4010  -0.3866  -0.3755  -0.3667
    -0.3622  -0.3501  -0.2925  -0.2463  -0.0998  -0.0555  -0.0399  -0.0026
     0.0314   0.0798   0.0867   0.1267   0.1494   0.1916   0.2115   0.2427
     0.2566   0.2784   0.3169   0.3654   0.3740   0.4434   0.4775   0.4880
     0.5304   0.6000   0.6228   0.6459   0.7141   0.7709   0.7883   0.8265
     0.8570   0.8764   0.9028   0.9204   0.9519   0.9783   0.9990   1.0623
     1.0760   1.0939   1.1250   1.1434   1.1797   1.1935   1.2435   1.2795
     1.3141   1.4261   1.4508   1.5296   1.5838   1.6133   1.6230   1.6647
     1.7111   1.7551   1.7859   1.8465   1.8822   1.9030   1.9250   1.9453
     1.9734   1.9880   2.0092   2.0430   2.0997   2.1161   2.1281   2.1517
     2.1655   2.1824   2.2265   2.2575   2.3199   2.3649   2.3807   2.4069
     2.4211   2.4626   2.4970   2.5984   2.7169   2.7911   3.0998   3.5372
     3.5503   3.7477   3.7874   3.8958   3.9133   3.9918   4.1644   4.4476
     4.5580   4.5924   4.9338   5.0645   5.1413   5.1741   5.2107   5.3203
     5.4251   5.5386   5.5873   5.7892   5.9903   6.0861   6.3474   6.5754

          k = 0.2000-0.3464 0.0000 ( 88376 PWs)   bands (ev):

   -13.9812 -11.3279  -6.9006  -6.1997  -5.3189  -5.1011  -4.9782  -4.9506
    -4.4739  -4.0093  -3.9176  -3.8967  -3.8799  -3.8368  -3.8131  -3.7984
    -3.7217  -3.6957  -3.6750  -3.5431  -3.3274  -3.3073  -3.2869  -3.2563
    -3.2149  -3.1613  -3.1238  -3.0930  -3.0712  -3.0527  -3.0417  -2.9602
    -2.9274  -2.9154  -2.9050  -2.8814  -2.8250  -2.8109  -2.7959  -2.7443
    -2.6926  -2.6542  -2.5995  -2.4230  -2.3409  -2.3321  -2.3056  -2.2703
    -2.2548  -2.2154  -2.1881  -2.1678  -2.1119  -2.0379  -2.0183  -2.0029
    -1.9216  -1.8911  -1.8445  -1.8209  -1.7921  -1.7508  -1.7082  -1.6222
    -1.5821  -1.5337  -1.4900  -1.4679  -1.4310  -1.4161  -1.3853  -1.3725
    -1.3570  -1.2678  -1.2394  -1.2007  -1.1735  -1.1605  -1.1463  -1.1214
    -1.0956  -1.0410  -1.0269  -0.9858  -0.9364  -0.9266  -0.8890  -0.8737
    -0.8585  -0.8381  -0.8173  -0.7779  -0.7685  -0.7528  -0.7352  -0.7066
    -0.6459  -0.6319  -0.6192  -0.6028  -0.5814  -0.5532  -0.5310  -0.5137
    -0.4967  -0.4651  -0.4416  -0.4257  -0.3907  -0.3835  -0.3606  -0.3447
    -0.2947  -0.2583  -0.2509  -0.2064  -0.1791  -0.1179  -0.0827  -0.0183
     0.0477   0.1034   0.1178   0.1603   0.2057   0.2308   0.2666   0.2775
     0.2976   0.3337   0.3546   0.3863   0.4051   0.4435   0.4822   0.5629
     0.6165   0.6282   0.6604   0.6963   0.7219   0.7656   0.7833   0.8239
     0.8795   0.8919   0.9145   0.9666   1.0067   1.0314   1.0901   1.1089
     1.1453   1.1548   1.1979   1.2026   1.2285   1.2418   1.2492   1.2670
     1.2944   1.3638   1.4270   1.4571   1.5244   1.5554   1.6277   1.6705
     1.7032   1.7561   1.7828   1.8162   1.8529   1.8995   1.9186   1.9375
     1.9546   1.9758   1.9870   1.9953   2.0104   2.0300   2.0482   2.1031
     2.1162   2.1564   2.1691   2.1950   2.2143   2.2585   2.3257   2.3462
     2.4152   2.4420   2.4628   2.5257   2.5629   2.6138   2.6874   2.7808
     3.0885   3.1557   3.2152   3.3406   3.7149   3.7416   3.8218   4.0277
     4.3733   4.5120   4.5493   4.6759   4.6974   5.0745   5.3958   5.6416
     5.8520   6.0195   6.1156   6.1337   6.5061   6.5480   6.5791   6.5919

          k = 0.4000-0.2309 0.0000 ( 88298 PWs)   bands (ev):

   -13.9813 -11.3275  -6.9033  -6.0643  -5.4449  -5.3132  -4.9582  -4.5313
    -4.3899  -4.3375  -4.1148  -3.9380  -3.8310  -3.7889  -3.7502  -3.6854
    -3.6152  -3.5908  -3.4672  -3.4248  -3.3978  -3.3779  -3.3095  -3.2966
    -3.2293  -3.2225  -3.1993  -3.1562  -3.1412  -3.1158  -3.0887  -3.0322
    -3.0039  -2.9070  -2.8060  -2.7926  -2.7796  -2.7710  -2.7330  -2.7146
    -2.5511  -2.5420  -2.5236  -2.4949  -2.4792  -2.4143  -2.2680  -2.2324
    -2.2104  -2.1916  -2.1675  -2.1375  -2.1104  -2.0603  -2.0436  -2.0269
    -1.9827  -1.9458  -1.8857  -1.8313  -1.8252  -1.7857  -1.6979  -1.6748
    -1.6491  -1.6199  -1.5936  -1.4576  -1.4268  -1.4071  -1.3958  -1.3770
    -1.3501  -1.2964  -1.2839  -1.2338  -1.1948  -1.1578  -1.1444  -1.0848
    -1.0662  -1.0485  -1.0124  -1.0086  -0.9790  -0.9539  -0.9296  -0.9122
    -0.8972  -0.8923  -0.8768  -0.8576  -0.8352  -0.7997  -0.7533  -0.7258
    -0.7205  -0.7018  -0.6810  -0.6446  -0.5669  -0.5465  -0.5261  -0.5060
    -0.4868  -0.4659  -0.4091  -0.3910  -0.3496  -0.3186  -0.2729  -0.2470
    -0.2390  -0.2065  -0.1674  -0.1645  -0.0589  -0.0326   0.0234   0.0455
     0.0976   0.1221   0.1346   0.1686   0.1878   0.2111   0.2279   0.2598
     0.2689   0.2883   0.3079   0.3296   0.3588   0.3809   0.4538   0.4872
     0.4962   0.5349   0.5531   0.5998   0.6393   0.7112   0.7531   0.7719
     0.8371   0.9350   0.9481   0.9802   1.0149   1.0814   1.0833   1.0960
     1.1162   1.1720   1.1933   1.2001   1.2505   1.2615   1.3257   1.3652
     1.3749   1.3958   1.4084   1.4195   1.4997   1.5410   1.6144   1.6233
     1.6627   1.6821   1.7024   1.7828   1.7875   1.8076   1.8335   1.8949
     1.9288   1.9525   1.9846   1.9925   2.0391   2.0708   2.1062   2.1243
     2.1317   2.1351   2.1864   2.1949   2.2650   2.3442   2.3559   2.3731
     2.3840   2.3977   2.5023   2.5850   2.6239   2.7024   3.0022   3.0751
     3.3592   3.4342   3.4642   3.6421   3.8402   3.8967   4.0664   4.1718
     4.6010   4.6578   4.6689   4.7997   4.8778   4.9734   4.9998   5.2920
     5.3282   5.6360   5.6966   5.9263   6.0854   6.4589   6.5668   6.7721

          k = 0.4000-0.0000 0.0000 ( 88376 PWs)   bands (ev):

   -13.9812 -11.3278  -6.9010  -6.1987  -5.3166  -5.1020  -4.9758  -4.9543
    -4.4778  -4.0035  -3.9142  -3.8950  -3.8815  -3.8354  -3.8157  -3.8023
    -3.7213  -3.6961  -3.6736  -3.5259  -3.3244  -3.3100  -3.2812  -3.2552
    -3.2130  -3.1595  -3.1153  -3.0788  -3.0715  -3.0505  -3.0409  -2.9869
    -2.9358  -2.9199  -2.9029  -2.8934  -2.8379  -2.8071  -2.7968  -2.7713
    -2.7014  -2.6787  -2.5748  -2.4195  -2.3466  -2.3340  -2.2986  -2.2686
    -2.2639  -2.2223  -2.1912  -2.1458  -2.1026  -2.0384  -2.0136  -1.9819
    -1.9220  -1.8877  -1.8387  -1.8198  -1.8010  -1.7509  -1.7076  -1.6151
    -1.5892  -1.5659  -1.5082  -1.4805  -1.4322  -1.4130  -1.3892  -1.3696
    -1.3512  -1.2715  -1.2243  -1.1957  -1.1679  -1.1521  -1.1294  -1.1148
    -1.0900  -1.0573  -1.0224  -0.9809  -0.9455  -0.9286  -0.8977  -0.8612
    -0.8572  -0.8242  -0.8043  -0.7943  -0.7727  -0.7527  -0.7363  -0.6883
    -0.6397  -0.6321  -0.6095  -0.6028  -0.5613  -0.5506  -0.5313  -0.5200
    -0.4962  -0.4688  -0.4480  -0.4280  -0.4010  -0.3799  -0.3681  -0.3442
    -0.3146  -0.2578  -0.2388  -0.2198  -0.1799  -0.1138  -0.0769  -0.0233
     0.0490   0.0951   0.1355   0.1720   0.2020   0.2422   0.2609   0.2738
     0.3049   0.3344   0.3511   0.3982   0.4095   0.4404   0.4756   0.5625
     0.6199   0.6276   0.6545   0.6962   0.7188   0.7479   0.7808   0.8268
     0.8811   0.8888   0.9200   0.9698   1.0091   1.0193   1.0783   1.1067
     1.1411   1.1567   1.1953   1.2001   1.2289   1.2388   1.2539   1.2673
     1.3076   1.3522   1.4181   1.4439   1.5067   1.5589   1.6232   1.6619
     1.7429   1.7625   1.7835   1.8262   1.8717   1.8942   1.9072   1.9390
     1.9539   1.9757   1.9879   2.0014   2.0079   2.0341   2.0513   2.0959
     2.1320   2.1565   2.1639   2.1926   2.2192   2.2632   2.2953   2.3529
     2.4164   2.4471   2.4761   2.4847   2.5321   2.6136   2.6843   2.7465
     3.0754   3.1970   3.2647   3.3312   3.7307   3.7684   3.8151   4.0745
     4.3808   4.5503   4.5989   4.6663   4.6826   4.9924   5.3306   5.5976
     5.8570   5.9987   6.1285   6.1682   6.4594   6.5359   6.5539   6.6151

          k = 0.4000 0.2309 0.0000 ( 88298 PWs)   bands (ev):

   -13.9810 -11.3285  -6.8959  -6.0625  -5.4356  -5.3201  -4.9527  -4.5906
    -4.3540  -4.3179  -4.1435  -3.9960  -3.8240  -3.7601  -3.7102  -3.6813
    -3.6143  -3.5647  -3.4538  -3.4243  -3.3957  -3.3820  -3.3154  -3.2930
    -3.2533  -3.2105  -3.2020  -3.1740  -3.1386  -3.1071  -3.0666  -3.0454
    -2.9950  -2.9014  -2.8128  -2.7849  -2.7821  -2.7592  -2.7428  -2.7049
    -2.5584  -2.5404  -2.5196  -2.5034  -2.4755  -2.4110  -2.3429  -2.2499
    -2.2240  -2.1878  -2.1732  -2.1377  -2.1089  -2.0619  -2.0529  -2.0165
    -1.9925  -1.9361  -1.8585  -1.8420  -1.8246  -1.7998  -1.6838  -1.6603
    -1.6372  -1.6123  -1.5796  -1.5137  -1.4601  -1.4217  -1.4013  -1.3870
    -1.3247  -1.3113  -1.2882  -1.2743  -1.1759  -1.1513  -1.1388  -1.0805
    -1.0636  -1.0376  -1.0242  -0.9910  -0.9757  -0.9559  -0.9231  -0.9114
    -0.8895  -0.8797  -0.8621  -0.8516  -0.8260  -0.7994  -0.7509  -0.7337
    -0.7180  -0.7008  -0.6812  -0.6198  -0.5728  -0.5496  -0.5444  -0.5065
    -0.4845  -0.4642  -0.4247  -0.4091  -0.3730  -0.3276  -0.2621  -0.2361
    -0.2117  -0.1932  -0.1568  -0.1161  -0.0736  -0.0590   0.0137   0.0602
     0.0735   0.1066   0.1505   0.1724   0.2007   0.2078   0.2256   0.2623
     0.2839   0.2933   0.3148   0.3244   0.3560   0.3929   0.4632   0.4995
     0.5132   0.5387   0.5746   0.6070   0.6879   0.7204   0.7514   0.7962
     0.8258   0.9349   0.9587   0.9707   0.9964   1.0378   1.0812   1.1063
     1.1247   1.1695   1.1822   1.2174   1.2530   1.2592   1.3119   1.3528
     1.3671   1.3820   1.4086   1.4190   1.4904   1.5541   1.5987   1.6276
     1.6464   1.6791   1.7011   1.7805   1.7991   1.8130   1.8170   1.8958
     1.9090   1.9407   1.9722   1.9912   2.0129   2.0786   2.0911   2.1072
     2.1315   2.1506   2.1805   2.1929   2.2552   2.3278   2.3500   2.3595
     2.3813   2.4173   2.4920   2.5269   2.6232   2.7647   3.0749   3.1711
     3.3192   3.4270   3.4474   3.6040   3.8222   3.8834   4.1532   4.2306
     4.6202   4.6558   4.7183   4.7876   4.8180   4.9705   5.0011   5.2803
     5.3225   5.3963   5.8007   5.9996   6.1963   6.4872   6.5411   6.7065

          k = 0.4000-0.6928 0.0000 ( 88328 PWs)   bands (ev):

   -13.9810 -11.3285  -6.8954  -5.6715  -5.6674  -5.3212  -5.0920  -4.7507
    -4.4804  -4.2347  -3.9152  -3.8616  -3.7407  -3.7110  -3.6636  -3.5876
    -3.5311  -3.4917  -3.4704  -3.4411  -3.3956  -3.3520  -3.3394  -3.3310
    -3.3173  -3.2592  -3.1749  -3.1567  -3.1339  -3.1230  -3.1036  -3.0120
    -2.9567  -2.9465  -2.8958  -2.8695  -2.8045  -2.7724  -2.7495  -2.7128
    -2.6799  -2.6464  -2.5677  -2.5089  -2.4519  -2.3593  -2.3201  -2.2688
    -2.2171  -2.1657  -2.1311  -2.0867  -2.0065  -1.9847  -1.9604  -1.9154
    -1.8967  -1.8540  -1.8307  -1.8189  -1.7530  -1.7443  -1.7177  -1.6915
    -1.6743  -1.6489  -1.6279  -1.6113  -1.5862  -1.5379  -1.4698  -1.4257
    -1.3888  -1.3681  -1.3129  -1.2786  -1.2494  -1.2329  -1.2100  -1.1858
    -1.1728  -1.1363  -1.0824  -1.0561  -1.0377  -1.0137  -0.9896  -0.9379
    -0.9122  -0.8656  -0.8387  -0.8194  -0.7843  -0.7419  -0.7078  -0.6821
    -0.6552  -0.6252  -0.6010  -0.5837  -0.5691  -0.5495  -0.5307  -0.5139
    -0.5001  -0.4787  -0.4565  -0.4219  -0.4050  -0.3886  -0.3773  -0.3657
    -0.3619  -0.3487  -0.3071  -0.2269  -0.1228  -0.0580  -0.0300  -0.0133
     0.0307   0.0706   0.0837   0.1200   0.1467   0.1849   0.2267   0.2448
     0.2658   0.2881   0.3187   0.3713   0.3816   0.4270   0.4753   0.4911
     0.5350   0.6128   0.6365   0.6611   0.7232   0.7598   0.7895   0.8288
     0.8536   0.8895   0.9062   0.9279   0.9540   0.9832   1.0015   1.0348
     1.0772   1.1058   1.1214   1.1407   1.1809   1.2019   1.2356   1.2614
     1.3121   1.3821   1.4595   1.5206   1.5680   1.6000   1.6167   1.6289
     1.7413   1.7625   1.7903   1.8635   1.8838   1.9092   1.9284   1.9487
     1.9743   1.9919   2.0080   2.0509   2.0965   2.1042   2.1183   2.1571
     2.1705   2.1832   2.2472   2.2999   2.3209   2.3451   2.3800   2.4032
     2.4209   2.4411   2.4706   2.5703   2.6399   2.8544   3.1034   3.5428
     3.5549   3.7847   3.8169   3.9066   3.9410   4.0310   4.1649   4.4182
     4.5689   4.5915   4.9439   5.0627   5.1296   5.1489   5.1881   5.3712
     5.4237   5.4992   5.6017   5.7204   5.9285   6.0917   6.2993   6.5722

          k = 0.4000-0.4619 0.0000 ( 88328 PWs)   bands (ev):

   -13.9811 -11.3279  -6.8999  -5.6772  -5.6695  -5.3172  -5.0697  -4.7948
    -4.4484  -4.1884  -3.9658  -3.8284  -3.7569  -3.7387  -3.6715  -3.5958
    -3.5141  -3.4748  -3.4661  -3.4352  -3.4179  -3.3690  -3.3493  -3.3262
    -3.3117  -3.2861  -3.1711  -3.1543  -3.1238  -3.1137  -3.0691  -3.0357
    -2.9783  -2.9330  -2.9010  -2.8732  -2.7870  -2.7679  -2.7380  -2.7322
    -2.6882  -2.6359  -2.5900  -2.5316  -2.4344  -2.3220  -2.3103  -2.2301
    -2.2139  -2.1785  -2.1278  -2.1081  -2.0044  -1.9753  -1.9534  -1.9143
    -1.8964  -1.8636  -1.8418  -1.8226  -1.7589  -1.7378  -1.7186  -1.6961
    -1.6649  -1.6543  -1.6394  -1.6287  -1.5645  -1.4823  -1.4640  -1.4366
    -1.3687  -1.3476  -1.2993  -1.2685  -1.2557  -1.2231  -1.2042  -1.1814
    -1.1706  -1.1587  -1.1321  -1.0682  -1.0226  -1.0035  -0.9924  -0.9707
    -0.9193  -0.8640  -0.8470  -0.8348  -0.8100  -0.7343  -0.7034  -0.6734
    -0.6586  -0.6217  -0.6061  -0.6003  -0.5566  -0.5437  -0.5265  -0.5201
    -0.4902  -0.4771  -0.4441  -0.4335  -0.4166  -0.3959  -0.3785  -0.3668
    -0.3596  -0.3203  -0.3074  -0.2285  -0.1618  -0.0696  -0.0368   0.0035
     0.0268   0.0921   0.1060   0.1247   0.1526   0.1936   0.2197   0.2518
     0.2785   0.2858   0.3207   0.3422   0.3763   0.4266   0.4831   0.4887
     0.5294   0.6000   0.6430   0.6725   0.6992   0.7162   0.7542   0.8162
     0.8479   0.8843   0.9060   0.9223   0.9414   0.9667   0.9884   1.0464
     1.0863   1.1026   1.1310   1.1494   1.1666   1.2094   1.2726   1.2910
     1.3166   1.4138   1.4672   1.5165   1.5864   1.6048   1.6210   1.6870
     1.7064   1.7397   1.8000   1.8186   1.8938   1.9010   1.9399   1.9619
     1.9721   1.9864   2.0299   2.0759   2.0929   2.1163   2.1371   2.1560
     2.1627   2.1706   2.2459   2.2668   2.3391   2.3598   2.3688   2.3925
     2.4020   2.4508   2.4852   2.5821   2.6753   2.7517   3.2106   3.5394
     3.5575   3.6709   3.8049   3.9283   3.9566   3.9979   4.0803   4.5171
     4.5692   4.6221   5.0018   5.0170   5.0873   5.1816   5.2110   5.3185
     5.4423   5.4882   5.4952   5.8732   5.9897   6.0751   6.1802   6.5475

     the Fermi energy is     2.1794 ev

!    total energy              =  -27813.54083245 Ry

     total all-electron energy =  -1326873.598536 Ry
     estimated scf accuracy    <       0.00000099 Ry
     smearing contrib. (-TS)   =      -0.00013074 Ry
     internal energy E=F+TS    =  -27813.54070171 Ry

     The total energy is F=E-TS. E is the sum of the following terms:
     one-electron contribution =  -26607.79383832 Ry
     hartree contribution      =   13610.85547608 Ry
     xc contribution           =    -905.78589707 Ry
     ewald contribution        =   11582.83104947 Ry
     one-center paw contrib.   =  -25493.64749187 Ry

     convergence has been achieved in  20 iterations

     negative rho (up, down):  1.246E-02 0.000E+00

     Forces acting on atoms (cartesian axes, Ry/au):

     atom    1 type  1   force =     0.00079222    0.00043278   -0.00840153
     atom    2 type  1   force =    -0.00178081    0.00112522   -0.00310732
     atom    3 type  1   force =     0.00064453    0.00032412   -0.00280224
     atom    4 type  1   force =     0.00051767   -0.00109187   -0.00807763
     atom    5 type  1   force =    -0.00093866    0.00001946   -0.00314900
     atom    6 type  1   force =     0.00137887   -0.00073643   -0.00310452
     atom    7 type  1   force =     0.00018174   -0.00001487   -0.00324119
     atom    8 type  1   force =    -0.00063961    0.00086714   -0.00320788
     atom    9 type  1   force =     0.00029543   -0.00060196   -0.00229457
     atom   10 type  1   force =     0.00127637   -0.00004653   -0.00044866
     atom   11 type  1   force =     0.00031405    0.00180437    0.00824304
     atom   12 type  1   force =    -0.00123817    0.00084063   -0.00022820
     atom   13 type  1   force =     0.00228754   -0.00125148    0.00543405
     atom   14 type  1   force =    -0.00115573    0.00076007    0.01325940
     atom   15 type  1   force =    -0.00129049    0.00049840    0.00033043
     atom   16 type  1   force =     0.00219087   -0.00129162    0.00354740
     atom   17 type  1   force =    -0.00128312   -0.00153312    0.00811949
     atom   18 type  1   force =    -0.00095047    0.00002099   -0.00084868
     atom   19 type  1   force =    -0.00007735    0.00017801   -0.00030789
     atom   20 type  1   force =     0.00030220    0.00003594   -0.00001928
     atom   21 type  1   force =    -0.00017974   -0.00007987   -0.00003012
     atom   22 type  1   force =    -0.00000005   -0.00025770   -0.00035151
     atom   23 type  1   force =     0.00029607   -0.00018358    0.00036785
     atom   24 type  1   force =    -0.00028022    0.00014913   -0.00041970
     atom   25 type  1   force =     0.00027823    0.00016442   -0.00025637
     atom   26 type  1   force =     0.00018065   -0.00001974    0.00016550
     atom   27 type  1   force =    -0.00011526    0.00009358   -0.00028099
     atom   28 type  1   force =     0.00031161    0.00008069   -0.00005523
     atom   29 type  1   force =    -0.00025335    0.00029152   -0.00006613
     atom   30 type  1   force =    -0.00014271    0.00013582   -0.00002185
     atom   31 type  1   force =     0.00034408   -0.00001544    0.00004331
     atom   32 type  1   force =    -0.00023506   -0.00021313   -0.00108775
     atom   33 type  1   force =     0.00003185    0.00021973    0.00004392
     atom   34 type  1   force =     0.00001843   -0.00009745   -0.00013045
     atom   35 type  1   force =     0.00001817    0.00037357   -0.00081995
     atom   36 type  1   force =    -0.00011118    0.00014240    0.00013416
     atom   37 type  2   force =     0.00130017   -0.00056202    0.00179869
     atom   38 type  2   force =    -0.00033284   -0.00055674    0.00070808
     atom   39 type  2   force =    -0.00144445    0.00599262    0.00696177
     atom   40 type  3   force =     0.00023522    0.00013640   -0.00032019
     atom   41 type  3   force =    -0.00074670   -0.00613347   -0.00607826

     Total force =     0.013111     Total SCF correction =     0.003807
     SCF correction compared to forces is large: reduce conv_thr to get better values

     negative rho (up, down):  1.246E-02 0.000E+00

     negative rho (up, down):  1.246E-02 0.000E+00

     negative rho (up, down):  1.246E-02 0.000E+00

     negative rho (up, down):  1.246E-02 0.000E+00

     negative rho (up, down):  1.246E-02 0.000E+00

     negative rho (up, down):  1.246E-02 0.000E+00

     negative rho (up, down):  1.246E-02 0.000E+00

     negative rho (up, down):  1.246E-02 0.000E+00

     negative rho (up, down):  1.246E-02 0.000E+00

     negative rho (up, down):  1.246E-02 0.000E+00

     negative rho (up, down):  1.246E-02 0.000E+00

     negative rho (up, down):  1.246E-02 0.000E+00

     negative rho (up, down):  1.246E-02 0.000E+00

     negative rho (up, down):  1.246E-02 0.000E+00

     negative rho (up, down):  1.246E-02 0.000E+00

     negative rho (up, down):  1.246E-02 0.000E+00

     negative rho (up, down):  1.246E-02 0.000E+00

     negative rho (up, down):  1.246E-02 0.000E+00

     negative rho (up, down):  1.246E-02 0.000E+00

     negative rho (up, down):  1.246E-02 0.000E+00

     negative rho (up, down):  1.246E-02 0.000E+00

     negative rho (up, down):  1.246E-02 0.000E+00

     negative rho (up, down):  1.246E-02 0.000E+00

     negative rho (up, down):  1.246E-02 0.000E+00

     negative rho (up, down):  1.246E-02 0.000E+00

     negative rho (up, down):  1.246E-02 0.000E+00

     negative rho (up, down):  1.246E-02 0.000E+00

     negative rho (up, down):  1.246E-02 0.000E+00

     negative rho (up, down):  1.246E-02 0.000E+00

     negative rho (up, down):  1.246E-02 0.000E+00

     negative rho (up, down):  1.246E-02 0.000E+00

     negative rho (up, down):  1.246E-02 0.000E+00

     negative rho (up, down):  1.246E-02 0.000E+00

     negative rho (up, down):  1.246E-02 0.000E+00
 BEEFens 2000 ensemble energies
             -0.606417690824186E+02
             -0.361422632716759E+01
             -0.158266690683968E+02
              0.428960217938396E+02
             -0.220935740091592E+02
             -0.205144785394718E+02
             -0.351910382064383E+02
             -0.864228797560918E+02
             -0.464727133822271E+02
             -0.472162017041757E+02
             -0.369067551285059E+02
              0.228101497344446E+01
              0.408506370512129E+01
              0.761116992627896E+01
              0.265321040656423E+01
              0.474548428553642E+02
             -0.208534700297281E+02
             -0.230043128144840E+02
              0.192995708280498E+02
             -0.112295632711182E+03
              0.535876314282413E+02
             -0.289564925321317E+02
             -0.332896102292398E+01
             -0.113896762005239E+02
             -0.883562458073777E+01
             -0.462796311932516E+01
              0.882003835755858E+02
             -0.187018714759718E+02
             -0.899463837406654E+01
             -0.518135628430353E+02
              0.814822833809490E+02
             -0.187152034816646E+02
             -0.374639210934772E+02
              0.249038281764078E+02
             -0.283343245641640E+01
              0.164032263257827E+02
             -0.484337392867349E+01
              0.107969577984065E+02
              0.288297003057874E+02
             -0.103179657982020E+03
              0.557875918958829E+02
              0.142340378405012E+02
             -0.171655312615013E+01
             -0.361288033600336E+02
              0.123091816287871E+02
             -0.146567640904499E+02
              0.398041606885101E+02
              0.364509721416432E+02
             -0.307785311007069E+02
             -0.274951508960182E+02
             -0.328277229596426E+02
             -0.351895403205228E+02
              0.136356538141673E+02
             -0.490435654444072E+02
              0.115447954696001E+02
              0.622739618841817E+02
              0.634865245595026E+02
              0.355491007426382E+02
              0.153878033138585E+02
              0.270340017871276E+02
              0.890657938259765E+02
              0.212382281174395E+02
             -0.548016760550354E+02
             -0.156966121926728E+02
             -0.235719846049076E+02
              0.629366007936724E+02
             -0.772683176850829E+02
             -0.671309831800930E+02
             -0.259269031419176E+02
             -0.647592209847528E+01
             -0.470488537536077E+02
              0.270471069975113E+02
              0.799977875051866E+01
              0.866677869809422E+01
             -0.396899500063204E+02
             -0.346559832990876E+02
             -0.541475423961283E+02
              0.389929508921915E+02
             -0.295711320669134E+02
              0.265059578582500E+02
             -0.715640877509535E+01
             -0.317735508422739E+02
             -0.575644382940198E+02
             -0.176541136590580E+02
             -0.904741467933786E+01
             -0.124465203593585E+02
              0.411859568520913E+02
              0.682306065514596E+02
             -0.385317950746766E+02
             -0.793943070570531E+02
             -0.219486747484921E+02
              0.111405229253969E+03
             -0.591965264284811E+02
              0.355893409542970E+02
             -0.957441024116633E+01
             -0.662660985407076E+02
              0.254208664181400E+02
              0.397670987872875E+02
             -0.198763408746325E+02
              0.400055240823448E+02
             -0.295774651435083E+02
             -0.477862754329982E+02
              0.865205927956677E+02
              0.453628753985888E+02
              0.336096457135990E+02
              0.146417949238775E+02
              0.205573000970510E+02
              0.855894473321364E+02
             -0.256463824239484E+02
              0.787467257514079E+01
             -0.142290796396915E+03
              0.180816176976900E+02
             -0.715689865691450E+02
              0.150820307608646E+02
              0.204422244994819E+02
             -0.332689268239714E+02
             -0.556713728812068E+02
              0.653215383496126E+01
             -0.304004175341333E+02
              0.307635826882536E+02
             -0.529514947141499E+02
              0.171281897176493E+01
             -0.356694124097650E+02
             -0.424058479673272E+01
             -0.101469654585620E+01
              0.181218876548046E+02
              0.142470964698884E+01
             -0.650634218338541E+01
              0.589936447832515E+02
              0.907508311596062E+02
              0.483808221028201E+02
              0.829583238908852E+02
             -0.114936912162874E+02
              0.142974689197274E+02
              0.540518883361887E+02
             -0.110618724428189E+02
             -0.735027668011318E+02
             -0.383815473735280E+02
             -0.521365094062174E+02
             -0.276406039981584E+02
              0.327127411929391E+02
             -0.116692256083159E+03
             -0.186988976495474E+02
              0.413783579707088E+02
             -0.385964468112271E+02
             -0.364982904397216E+02
              0.543909839725226E+02
              0.400287121633134E+02
             -0.353637661295407E+02
              0.137660597678474E+02
             -0.273010399461933E+02
              0.342807933121432E+02
              0.444919461751346E+01
              0.211012819951761E+02
             -0.883941763425782E+02
             -0.479744515453629E+02
             -0.994219214458667E+01
              0.323310284169430E+01
             -0.366401099582741E+02
              0.105943477704878E+03
             -0.230647072896401E+02
             -0.398417922220219E+02
              0.388417827059786E+02
             -0.493789405215390E+02
             -0.363205115953536E+02
              0.324781056012717E+02
              0.124529970076395E+02
              0.164626764087674E+02
              0.116588363984432E+02
             -0.132790116122598E+02
              0.224954256485570E+02
              0.589633852989329E+02
             -0.311285372671836E+02
              0.162400496979919E+02
              0.933658455118023E+02
              0.340494374665326E+02
             -0.727693843865495E+01
             -0.188532869185406E+02
              0.153222993380884E+03
             -0.164019354773046E+02
              0.363024334939081E+02
              0.194282270789278E+02
              0.361220845362865E+02
              0.891231678385628E+02
              0.542584889652809E+02
             -0.239834965139404E+01
              0.227653087770594E+02
              0.484546263649187E+02
              0.363072167428866E+02
             -0.524985507517321E+02
              0.935263476900661E+02
             -0.824762454413442E+02
             -0.197833093380001E+02
              0.582323183998582E+02
              0.677585072393651E+01
              0.790987980035106E+01
              0.340473370596351E+02
              0.299002754417316E+02
              0.353238979674807E+02
             -0.637102688104162E+02
              0.286509894892424E+01
             -0.297366741271226E+02
             -0.869019119773033E+01
             -0.146626592341522E+01
             -0.722341463826535E+01
             -0.414419076530822E+01
              0.858606230711046E+02
             -0.101077454450302E+02
             -0.276047401670139E+02
             -0.496214116013298E+01
              0.139952687598312E+02
             -0.563512514103550E+02
             -0.407043252982187E+02
             -0.381845427673001E+02
             -0.629722562893577E+02
             -0.169614475990046E+02
             -0.447160925817967E+02
              0.163092401330296E+02
             -0.238450155824094E+01
             -0.104324511893601E+02
             -0.932992817207673E+01
              0.806843277459359E+01
             -0.242424419185480E+02
              0.688860183328769E+02
             -0.806499169342181E+02
             -0.140958655644688E+02
             -0.173868465635451E+02
              0.181788757095080E+02
              0.214550746565271E+02
             -0.463501551798615E+02
             -0.201726415640768E+02
              0.440529677202340E+02
             -0.275907612238342E+02
              0.186931602806886E+02
              0.382427689219759E+02
             -0.322074656404857E+01
              0.114040787712386E+03
             -0.229813082164388E+02
             -0.340611118648893E+02
              0.577093518041454E+01
             -0.228023511074203E+02
              0.527296656407001E+02
             -0.337050668482840E+02
              0.106568606640722E+02
              0.639939330735937E+02
             -0.126049275486019E+02
              0.120129244838964E+03
              0.125752397114506E+03
             -0.649187642782531E+02
              0.590103044787233E+02
              0.166539631401205E+02
             -0.517330472285962E+02
              0.215969718646417E+02
              0.353674250186038E+02
              0.362454085844233E+02
              0.134297521858309E+01
              0.159783010929008E+02
              0.695175752788613E+02
             -0.246827962050731E+02
              0.181205842360159E+02
              0.738208231586577E+02
             -0.372232458785742E+02
             -0.129656861970896E+02
              0.508179987387951E+02
              0.297226147280619E+02
              0.779685122524855E+02
              0.222555303790400E+02
              0.625075213626053E+01
              0.280252910473126E+02
              0.382952677088837E+02
             -0.471526183013395E+02
              0.332718096855837E+01
              0.129772231765750E+02
              0.113662508519675E+02
              0.220420720148401E+02
             -0.574356132635000E+02
              0.365781603452039E+02
             -0.443504482259090E+02
             -0.347187416075137E+02
              0.177982056522593E+02
             -0.181254691548479E+02
              0.554730426582697E+02
             -0.255622715321736E+02
              0.266537060065389E+02
              0.368110136050065E+02
              0.828499647520651E+02
              0.574148548679582E+02
              0.461268135474720E+02
             -0.105246575082680E+02
             -0.391446279500610E+01
             -0.331764506732021E+02
              0.750079226715135E+02
              0.796538010373412E+02
              0.361602501528850E+02
             -0.191814934357726E+02
              0.511427297642617E+02
             -0.162637320834931E+02
              0.214421404950199E+02
              0.614025885691390E+02
              0.214348586415957E+01
             -0.104301859838580E+02
             -0.282648269166458E+02
             -0.511282164389459E+02
              0.944467887302727E+02
              0.439541484575024E+02
             -0.558664093828160E+02
             -0.961735254173783E+01
              0.249572104674029E+02
             -0.994086940024809E+01
              0.591642688331912E+02
              0.152047811168073E+02
              0.798683022874033E+02
              0.279396170060184E+02
             -0.263604224552450E+02
              0.248650253794755E+02
             -0.502078047723319E+01
             -0.323340364623716E+02
              0.132995833602450E+02
              0.205432341272967E+02
              0.932222070742095E+02
              0.796730950609834E+02
              0.550670707102107E+02
              0.730105657271931E+02
              0.799726354239749E+01
             -0.273380164543172E+02
              0.163093315479038E+02
             -0.367721291070744E+02
             -0.475917844071575E+02
             -0.562981192658665E+02
             -0.266394998318794E+02
             -0.109612149372849E+03
             -0.291256065582428E+02
             -0.836600948105229E+02
              0.210000646917354E+02
             -0.476624912193132E+02
              0.396656004800734E+02
             -0.940757987961143E+02
             -0.329799867947505E+02
              0.547989363658206E+02
              0.207474507021120E+02
             -0.830029456959329E+02
              0.630460414059102E+02
             -0.256584781226472E+02
              0.512063076134779E+02
             -0.242237284831254E+02
             -0.750645168589608E+02
              0.111890918470037E+02
             -0.610868093165170E+02
             -0.167912379920996E+02
             -0.150075651368459E+01
              0.417820128797164E+02
              0.126917811645182E+03
             -0.461292959071012E+02
             -0.362356000629995E+02
             -0.984688632048801E+00
             -0.130050169190652E+02
             -0.821963042264794E+02
             -0.596305811205760E+02
              0.516705269745221E+02
             -0.288725416831346E+02
              0.169322833757525E+02
             -0.489082094279663E+02
             -0.131887669188184E+02
             -0.436987065515007E+02
              0.565195936832781E+02
              0.150782928914240E+02
             -0.231484268827148E+02
             -0.127010849380403E+02
              0.666743390747915E+01
             -0.618040760981506E+01
              0.441257990364186E+02
             -0.251830011833162E+02
              0.277792474273349E+01
              0.339051028990409E+02
              0.171072497011419E+02
             -0.159728244351467E+02
              0.156147283194787E+03
              0.537678329013770E+02
              0.116599724716907E+01
              0.161711432605917E+02
             -0.614269633720167E+02
              0.314865713983926E+02
             -0.721269647413736E+02
             -0.251966789253278E+02
             -0.522179074055472E+02
             -0.220003641678202E+02
              0.568783908425424E+02
             -0.536521872534090E+02
              0.160891270823646E+02
             -0.408602997357355E+01
              0.387334849219397E+01
             -0.433634423780845E+02
             -0.478002200703738E+02
             -0.402849855903196E+01
             -0.424377675885427E+02
             -0.216886189619290E+02
             -0.438284813459249E+02
             -0.119183036465231E+02
             -0.358709946910571E+02
             -0.516066524522385E+02
              0.212406856166037E+02
             -0.209081565720183E+02
              0.187752106990048E+02
              0.972624171179435E+01
             -0.737502378127075E+02
             -0.547565625152258E+02
             -0.398015440788289E+02
              0.353772602778538E+02
              0.270302695997219E+01
             -0.626102888257291E+02
              0.585268245488800E+02
             -0.400762036717087E+02
              0.544569617951098E+02
             -0.289369502792831E+02
             -0.445535679888934E+02
              0.298280702788652E+02
             -0.657170898993829E+02
             -0.379446368630392E+02
              0.672102288762105E+02
              0.203844338620943E+02
             -0.359909918167614E+02
              0.488979529892719E+02
             -0.173849540252297E+02
             -0.322469899498337E+02
             -0.301507357493430E+02
             -0.500324303594412E+02
              0.249343150710637E+02
             -0.932317234967240E+02
             -0.839455079933948E+02
             -0.733257107646057E+01
             -0.306594137754254E+02
             -0.575304550691286E+02
              0.721431093955088E+02
              0.131437744234577E+03
             -0.360521581732550E+02
             -0.256266918532356E+01
             -0.636454629681595E+02
              0.650130622855701E+02
              0.170591001353234E+02
             -0.181605946077788E+02
             -0.409682906967415E+02
              0.148504779370845E+02
             -0.585567051210679E+02
             -0.197537704894613E+02
             -0.903935452958243E+02
              0.336742216489915E+02
              0.168763612424661E+02
              0.183526520031194E+01
             -0.706955447300913E+01
             -0.329537864986401E+02
             -0.758296111390001E+01
              0.125427420486039E+03
             -0.198912644417478E+02
             -0.437049711699197E+02
             -0.683547311725123E+02
              0.109086637986926E+02
             -0.341961777285351E+02
              0.590675294982746E+01
              0.261262698448355E+02
              0.102144507307592E+02
              0.277682304897209E+02
              0.119849177366519E+02
              0.629201020663464E+02
              0.316394365103500E+02
             -0.326338690808075E+02
              0.355409173297275E+02
              0.379272319497853E+02
              0.120825748283158E+02
              0.486616123006186E+02
             -0.224766708120635E+02
              0.765337381150219E+02
              0.172419308924575E+02
             -0.271974938689668E+02
             -0.722014791349668E+01
             -0.186182227732136E+02
              0.261620810617860E+02
             -0.234108175957170E+02
             -0.137372682706285E+00
             -0.848172062087724E+01
              0.809108703518410E+02
              0.499641116916469E+02
             -0.686456551405489E+02
             -0.477284061514197E+01
             -0.554986361030874E+02
             -0.159354192642053E+02
             -0.268110916305378E+02
              0.375231723485444E+01
              0.596664284945279E+00
             -0.257447936965752E+02
              0.814612085238088E+01
             -0.602604242339774E+01
             -0.128388518483260E+02
              0.858409808185448E+02
              0.181584934697704E+02
             -0.806415676938483E+02
             -0.457877114566869E+02
              0.944412327547091E+02
              0.277628993173674E+02
             -0.106843143127919E+02
              0.104470975921133E+03
             -0.194635574558027E+02
             -0.122940261717589E+02
             -0.539080417102832E+01
              0.107270414480793E+02
              0.272313940605602E+02
              0.781044193392793E+01
              0.305233971676180E+02
             -0.187811684861067E+02
             -0.303675484722478E+02
             -0.417500556584078E+02
             -0.476434174131542E+02
              0.463566152342859E+02
              0.126742109611910E+02
              0.387314906861400E+02
              0.133334834217183E+02
              0.854995035809563E+02
              0.156437141259596E+02
             -0.845555992845337E+02
             -0.334185648303453E+02
              0.133616206935073E+02
             -0.302709358079748E+02
              0.626215137714289E+02
             -0.884524902405724E+01
              0.148625955218283E+02
              0.496992207099428E+02
             -0.706804251280022E+02
              0.149636024311260E+03
              0.208573792904571E+02
              0.271283548312148E+02
              0.347375409635706E+02
              0.103593778209340E+02
             -0.156436886414087E+01
              0.358194750444293E+02
             -0.356867918994752E+02
              0.772715234916322E+02
              0.684342375785479E+02
             -0.405709314017621E+02
              0.149299764893549E+02
              0.669690098602453E+02
             -0.223771871340582E+02
              0.154354267866473E+02
              0.434675030031351E+02
              0.421824889676424E+02
             -0.784167107009882E+02
             -0.152481176513695E+02
             -0.355760078308418E+02
             -0.147163478371135E+01
             -0.766339975834704E+01
             -0.543868717418854E+01
             -0.180396954855382E+02
             -0.293639454001388E+02
              0.634190393942647E+01
              0.111535503803499E+02
              0.535230912046861E+02
             -0.390029755781709E+02
              0.374281375334174E+02
              0.438199880430685E+02
             -0.186403473379838E+02
              0.871483608662130E+02
             -0.697467878636702E+02
             -0.103105305822152E+03
             -0.660394918274523E+01
             -0.267120659355123E+01
              0.384869470363685E+01
              0.789007955270067E+02
             -0.106948193343952E+02
              0.416449663130759E+02
              0.443447101108638E+02
              0.385069407013441E+02
             -0.995883314221373E+01
              0.627040364701970E+02
             -0.133440901051356E+02
             -0.307270839510782E+02
             -0.478822019206060E+02
              0.589629460481767E+01
              0.369130609676650E+02
             -0.601705897940036E+01
              0.392709809603754E+02
             -0.175339040437234E+01
              0.654750618338544E+02
              0.187100724649773E+02
              0.998280805281846E+01
             -0.121682585944345E+02
              0.331866891479695E+02
              0.362353312613865E+02
              0.232527386051954E+02
             -0.516717469052935E+00
             -0.550321354446736E+02
              0.260493865303112E+02
              0.175055551758753E+02
              0.402343465170592E+02
              0.271886088003850E+02
              0.372363181424555E+02
             -0.605551193333216E+01
              0.250959399277344E+02
             -0.298521513336098E+02
             -0.196973674812637E+01
             -0.568832539509010E+02
             -0.307770953262834E+02
              0.378548268611026E+02
             -0.934980737622227E+02
              0.294091752019700E+02
              0.183924263678182E+02
              0.839646385166372E+02
             -0.300132534803012E+02
              0.329301020818903E+02
             -0.137616262050730E+02
             -0.463660097094364E+02
             -0.761112864710228E+02
             -0.526047570193984E+01
             -0.859273743973510E+02
              0.199526115037439E+02
             -0.247317105664417E+02
              0.305657372379421E+02
              0.236955008233510E+02
             -0.240992280991742E+02
             -0.265281118142020E+02
              0.390704942358291E+02
             -0.587983170293489E+02
             -0.116576077239666E+02
             -0.195912356649875E+02
              0.212713908642425E+02
             -0.889014123288194E+01
              0.361148434949251E+01
             -0.200377856473165E+02
              0.558362699061511E+02
             -0.439395470261426E+02
              0.784762893173217E+01
              0.584962241136130E+02
             -0.323231844115208E+02
              0.361010329036333E+01
             -0.880217822903501E+01
             -0.668746636241740E+02
             -0.482054619397613E+02
             -0.859322566286457E+01
              0.240645177774708E+02
              0.302242640113075E+02
              0.859131010078090E+01
             -0.415389191232612E+01
              0.151559614194941E+02
             -0.439526972321792E+02
              0.331958140332733E+01
             -0.530873603134555E+02
             -0.324743988112145E+02
              0.474430574883018E+02
             -0.294985946693799E+02
              0.622073812601921E+02
             -0.214622517888641E+02
              0.353377528073844E+02
              0.241504540374578E+02
             -0.643681178292537E+02
             -0.280125263097921E+02
              0.933680835502568E+01
             -0.371616505708337E+02
             -0.339414617854403E+02
             -0.829504842101842E+02
             -0.538849235024151E+02
             -0.510006896937508E+02
             -0.415363348126115E+02
             -0.998723646746527E+00
              0.995820639469727E+01
              0.104873420053897E+01
              0.153201534964569E+02
             -0.548938845332576E+02
              0.141733780281518E+02
              0.256805237994111E+02
             -0.666419443961209E+02
             -0.701587237700730E+02
             -0.431139824153669E+02
             -0.171929769449720E+02
              0.178176000807512E+02
              0.454716467100161E+01
             -0.425681193483880E+02
              0.365854585125286E+02
             -0.216258937388333E+02
              0.517155591538344E+02
             -0.886742698909634E+02
              0.597441640074373E+02
             -0.214244018122413E+01
             -0.368212294044797E+02
             -0.216172392215892E+02
              0.471524246046731E+01
              0.374509377542514E+02
             -0.755777066997249E+02
             -0.120671849223126E+02
             -0.216514433232097E+02
              0.510655232654447E+02
              0.864359693693583E+02
             -0.964667760849370E+02
              0.943459282995802E+02
              0.467393121662907E+02
             -0.725002606964362E+02
             -0.366294718418581E+02
              0.751573829347505E+02
              0.631630083031071E+02
             -0.180998983764804E+02
             -0.464259980974612E+01
              0.732738416609334E+01
              0.648743651582204E+02
             -0.508181875181557E+02
              0.158152821580207E+02
             -0.472190344443584E+01
              0.347490838993980E+02
             -0.746472137814449E+02
             -0.646737059155184E+01
             -0.350722436318255E+02
              0.460478231278701E+02
              0.468567358917841E+02
             -0.861350670984209E+02
             -0.486643972466172E+02
             -0.256092783052114E+02
             -0.339330994736057E+02
             -0.109084782295194E+02
             -0.242583310057289E+02
              0.427149377417750E+02
              0.400864789726592E+02
             -0.562387225372942E+01
             -0.416077627946202E+02
             -0.850040743940638E+02
              0.443120706660383E+02
             -0.522858181226784E+02
             -0.313088426548101E+02
              0.546438821218031E+01
             -0.322401327966626E+02
             -0.397635047670453E+02
             -0.240042370572085E+02
             -0.385266449807892E+02
             -0.270623788148644E+02
             -0.482250696225013E+02
              0.563348307739640E+02
              0.637565452357160E+02
             -0.173266298578687E+01
             -0.261036185094490E+02
             -0.625272630144138E+01
              0.441069585348241E+02
             -0.867205370707967E+02
             -0.146027780922745E+02
              0.523298708135700E+02
              0.663450144989871E+02
[...]
              0.283430789482848E+02
              0.141687869444297E+03
              0.242220983950339E+02
              0.122433699880601E+02
             -0.463925352732087E+02
             -0.636989981548833E+02
             -0.188786351223073E+02
              0.329431878803373E+02
             -0.426522815872431E+01
              0.189787931007536E+02
              0.335850561666147E+02
             -0.585945308318056E+02
              0.222165273143657E+02
              0.581455395871544E+02
              0.552357515028872E+02
             -0.419616722232053E+01
             -0.135754100057568E+01
             -0.993136739336879E+01
             -0.481788056109358E+02
             -0.674455427720320E+02
              0.784622645940219E+02
             -0.523108972431973E+01
             -0.587223298064103E+02
              0.172678702320704E+01
             -0.205133376801754E+02
              0.937680452788615E+02
             -0.216364644391832E+02
             -0.353373551300086E+02
              0.335080421490500E+02
             -0.145678338914675E+02
              0.389226465126074E+02
             -0.235302199609083E+01
              0.100989921351670E+03
              0.489416007586365E+02
             -0.508744949194642E+01
             -0.321665892485510E+02
              0.232131043779978E+02
             -0.527958915934860E+02
             -0.127742547884152E+02
              0.585154613216925E+02
             -0.287417990651513E+02
             -0.437886721691122E+02
             -0.223129424959718E+02
              0.518235542791284E+02
              0.124643814942354E+02
             -0.848138458340898E+02
              0.303614580284215E+02
              0.151686489782597E+02
              0.576748094670316E+01
             -0.513047385111886E+02
             -0.377616178022845E+01
              0.322723034720391E+02
              0.512227454977231E+02
              0.632128530425800E+02
              0.228784681182925E+02
              0.760239881455760E+00
             -0.497703119493732E+02
             -0.509641009413667E+02
             -0.747078672141026E+02
             -0.614723764359962E+01
              0.308680480832418E+02
             -0.377809905565618E+01
              0.546363862630064E+02
             -0.317691227057751E+02
              0.166303761599654E+02
             -0.102647547848472E+02
             -0.289281722951453E+02
              0.585181004954630E+02
              0.791537954627466E+01
              0.603754615069886E+02
              0.509145201082515E+01
              0.264670708757766E+02
             -0.192608380532280E+02
              0.585567353358247E+02
             -0.111450705963023E+02
             -0.120713900244475E+00
             -0.789482457420132E+02
             -0.128205938647509E+02
              0.718401432632923E+02
              0.672467537668959E+02
              0.251704942941753E+02
             -0.130405156957544E+02
              0.344707349997489E+01
             -0.173494718556203E+02
             -0.208159448245721E+01
              0.907116665151058E+02
              0.125809761268192E+01
             -0.190228579631902E+02
             -0.110644444786842E+03
             -0.551938393981467E+02
             -0.374713752664285E+02
             -0.657904153966731E+02
             -0.554984998168586E+02
             -0.681905319361184E+02
             -0.446620782034589E+02
             -0.410398262036246E+02
             -0.451593034026927E+02
              0.483067997250630E+02
             -0.293828677002166E+02
             -0.994276674127116E+02
              0.418492959599893E+02
             -0.259684778561664E+02
             -0.790111558431429E+02
              0.942993202251234E+02
             -0.219472169262942E+02
              0.227841659889489E+02
              0.454711644308722E+02
             -0.133008294473308E+01
              0.254245322205648E+02
              0.471643760666234E+01
              0.423673389552746E+00
             -0.150495752297769E+02
             -0.715066377146328E+02
              0.133145216901015E+02
             -0.129251714737420E+03
              0.623708405264442E+02
             -0.440177968431335E+02
             -0.163021849607376E+02
             -0.158124029441293E+02
              0.713785852565114E+01
             -0.227470022086238E+02
              0.296815181656272E+02
             -0.520162680911100E+02
              0.366716106737912E+02
              0.370552973907055E+02
              0.168078936542959E+02
              0.100433841862495E+02
              0.197675909283026E+02
              0.622209582265015E+01
              0.309957776965769E+02
             -0.796917899022449E+01
             -0.591940784509239E+02
              0.755652671065258E+01
             -0.152379556354076E+02
             -0.193058245095631E+01
              0.505929871785430E+02
             -0.826014662694143E+02
             -0.150307531510504E+01
              0.580718156336388E+00
              0.995326558919464E+01
              0.318076539781289E+02
             -0.123348494203162E+02
              0.834968713789539E+02
              0.487113887040525E+02
             -0.183097290405960E+02
             -0.954439815594378E+01
              0.106915766061078E+01
              0.768814615199445E+02
             -0.585729096559827E+02
             -0.105671632781374E+03
              0.308955124051541E+02
             -0.163063570971859E+02
             -0.139415725671292E+02
              0.130342331761426E+02
              0.767677664873157E+02
              0.463647024933199E+02
             -0.153203208638514E+02
             -0.502568197455486E+02
             -0.549620493163010E+01
              0.306091564570661E+02
             -0.111507047631107E+02
             -0.755161603698457E+02
             -0.271836106396179E+01
             -0.889124493769894E+02
             -0.475296994525735E+02
              0.767773590075432E+02
             -0.483066959857217E+02
             -0.635910734666612E+02
             -0.513737966092817E+02
             -0.349496229828301E+02
              0.340662016158450E+02
              0.820908051210589E+02
             -0.357147122271095E+01
              0.276268049164841E+02
             -0.183762243847925E+02
             -0.693348048108362E+02
              0.464473447011473E+02
             -0.444583627986876E+02
              0.321363411454786E+02
              0.375838988229921E+02
             -0.655773266044883E+01
              0.389899369444940E+02
              0.437886956479077E+02
              0.100575196190052E+03
             -0.155726859035981E+02
             -0.455825389239433E+02
             -0.612144073606007E+02
             -0.123880240976851E+02
             -0.232892112362140E+02
              0.102896454202199E+03
             -0.448499975707607E+02
              0.105211371646541E+02
              0.970406215636092E+01
             -0.264275117294230E+02
             -0.798130813175881E+02
             -0.698360120566502E+01
              0.978973792957307E+02
              0.939163903631346E+01
              0.808244419860239E+01
             -0.526665392315077E+02
             -0.604928768970767E+02
             -0.563681664605471E+01
              0.499882121395352E+02
             -0.221684435477082E+02
              0.107864155331937E+03
             -0.435275695116350E+02
              0.146265289712056E+02
             -0.223778808901217E+02
             -0.717829334678769E+02
              0.167619368819555E+01
             -0.501173935019051E+02
             -0.759980320236523E+02
              0.616138232702292E+01
              0.236217632080033E+01
              0.513685120916719E+02
              0.187125066444736E+02
             -0.323189561147268E+02
              0.229691913361851E+02
             -0.810320831219019E+02
             -0.521131227055786E+02
              0.900812020516599E+02
              0.142159681215318E+02
             -0.187771083417897E+02
             -0.352072940179464E+02
             -0.269247386040570E+01
             -0.587539732557775E+01
              0.829421532514586E+02
              0.417286187567481E+02
             -0.165852212723981E+02
             -0.121697922359514E+02
             -0.427240102468792E+02
             -0.200354420072434E+02
             -0.669292223916614E+02
              0.459127616499386E+02
              0.545270070479287E+01
              0.144654800236274E+02
              0.156112694186279E+02
             -0.563642652730476E+00
             -0.168318233196497E+02
             -0.305498930933632E+01
             -0.100337450002185E+03
             -0.229552365759786E+02
             -0.764455454236406E+01
             -0.947022066039904E+01
              0.545699277656185E+02
              0.623238991750953E+02
              0.164757050007626E+02
             -0.969660846184694E+02
              0.646864242930523E+02
             -0.214772701753170E+02
             -0.376621217526565E+02
             -0.863341003783355E+02
             -0.386470846306196E+02
              0.564076631646019E+02
              0.243943326023804E+02
              0.512174180846637E+01
              0.292044810553364E+02
             -0.564386353167316E+02
             -0.421990904524552E+02
              0.514679082065919E+02
              0.386835636968547E+02
              0.518287918795759E+02
             -0.120159819180301E+01
              0.684236348173340E+01
              0.568957141525806E+02
              0.961650836924806E+02
             -0.299856912283043E+02
              0.322424129589335E+02
             -0.118695003427861E+02
             -0.411740507416399E+02
             -0.313910322949816E+02
             -0.299989445570493E+02
             -0.131238530999505E+02
             -0.522893826567720E+02
             -0.216837777563690E+02
             -0.141017460754542E+03
              0.368543955192651E+02
              0.206677045716219E+02
             -0.394424296096561E+01
             -0.379493443630771E+02
             -0.203892091754167E+02
             -0.526346338245630E+02
              0.150987124381533E+02
              0.819155421998804E+02
             -0.252145733860241E+02
             -0.162803549139618E+02
              0.237897673560026E+02
             -0.488919796592164E+02
              0.879510787542523E+02
              0.154138676730887E+02
              0.226099125190507E+02
              0.489614849275355E+02
              0.319828399644075E+01
              0.541510150419016E+02
              0.142901455419372E+02
             -0.106262914228066E+02
              0.730472046835658E+01
              0.788322069190997E+00
              0.726362966297129E+02
              0.100984065463676E+02
              0.120407231490261E+02
             -0.130024551385447E+02
              0.132260723186675E+02
             -0.910273282146499E+02
             -0.325280510780876E+02
             -0.457017868804057E+02
              0.484554952520342E+02
             -0.290837208414962E+02
             -0.657701591193486E+02
              0.537792127212322E+02
             -0.121885297097032E+02
              0.439452799553239E+02
             -0.897712488298271E+02
              0.231479233622827E+02
              0.856407715033086E+01
              0.582815945821517E+01
             -0.832643676841508E+01
             -0.903522319032197E+01
              0.478984839552586E+02
              0.200675871794397E+01
             -0.474698197223061E+02
             -0.175999804138843E+02
              0.276304368015921E+02
             -0.117797083605726E+03
             -0.928629016163366E+02
              0.396238939388599E+01
              0.117643811821566E+02
             -0.412801055635489E+02
             -0.387561008831290E+01
              0.111990331286076E+03
              0.305998908174579E+02
             -0.570928982242573E+02
              0.924562157888229E+01
             -0.964551667869526E+01
              0.105542239113810E+02
             -0.337336440926067E+02
              0.195312621385406E+02
              0.284284687574076E+02
             -0.298787488328003E+01
              0.108061728749994E+03
             -0.140065810626502E+02
             -0.315625452387035E+02
              0.142912824968632E+02
              0.466232802526672E+02
             -0.355342695733934E+02
             -0.317370702004633E+01
              0.963795285216554E+02
             -0.465310302225498E+01
              0.621130474948777E+02
              0.135271233490330E+02
             -0.900141714641163E+01
             -0.305042897059755E+02
              0.565870428063038E+02
             -0.513709860169768E+02
             -0.220100571100244E+01
             -0.169990032803925E+02
             -0.404668211542468E+02
              0.184754002162931E+02
              0.239037996559889E+02
              0.115871659207551E+02
              0.736857220942284E+00
             -0.384191693420291E+02
              0.215193596959921E+02
             -0.674596841410386E+01
             -0.246227900294117E+02
             -0.210347586437892E+02
              0.202983497390765E+02
             -0.595074972035422E+01
             -0.348801874337763E+02
             -0.106526240239239E+03
              0.102944804850081E+02
              0.248300010758030E+02
             -0.386863268453236E+02
             -0.210738396151668E+02
              0.806161790038928E+02
              0.651854647387603E+01
              0.310501462941673E+02
              0.391081758039135E+01
              0.321567560547232E+02
              0.645925226203315E+01
             -0.372478101989385E+02
             -0.234036680324604E+01
              0.874632933901268E+01
              0.273710954038920E+02
              0.780927994410631E+02
              0.507008141364289E+02
              0.184026524284548E+00
              0.168933091557361E+02
              0.612540223091041E+02
              0.235676054782030E+02
             -0.751996221067312E+02
             -0.273519955931079E+02
              0.150748230050600E+02
              0.561335594276062E+01
              0.254715802813190E+02
             -0.547237829191725E+02
              0.896878721635896E+01
              0.385594759130706E+02
              0.497527354336955E+02
             -0.434429630013578E+02
             -0.688307018649027E+01
             -0.207635406828251E+01
             -0.133754827308840E+02
             -0.365180133963038E+02
             -0.214949977587044E+02
             -0.204210505280356E+01
              0.792978047817178E+01
              0.420976367599689E+02
             -0.308091567545717E+02
              0.825338680178627E+02
              0.327075146648898E+02
              0.219491990436205E+02
              0.332672357502299E+02
              0.322729179974253E+02
              0.345932943483515E+02
              0.536629022578382E+02
             -0.433422453717032E+02
              0.618916642058952E+02
             -0.112157874199495E+03
              0.307072096930053E+02
             -0.106416871898061E+03
              0.853902590029362E+02
              0.689893572577559E+02
             -0.109739725366782E+02
             -0.492725737776543E+02
             -0.429117889438737E+02
             -0.622872814009592E+02
             -0.628105251405766E+02
              0.551217469321622E+02
              0.404993489876155E+02
              0.236596105107430E+02
              0.373424114818508E+02
              0.402945265735527E+02
             -0.381782141784350E+02
             -0.197658714372814E+02
              0.585793670512674E+02
             -0.115844886729065E+02
              0.551244499492704E+02
              0.698686721768541E+02
             -0.554138345731996E+01
             -0.705580538037819E+02
             -0.897988324726271E+00
             -0.247742929718888E+01
             -0.881822488219120E+01
             -0.179581718191685E+01
             -0.652206951138213E+02
             -0.210440408161064E+02
              0.538764158973872E+01
              0.899324638426415E+01
              0.468414498284785E+02
             -0.397462764268142E+02
              0.656636142752291E+02
             -0.424863947461679E+02
              0.210198262457293E+02
              0.349969804829986E+02
 
 BEEF-vdW xc energy contributions
           1 :   -782.161830775945     
           2 :    718.674833610340     
           3 :   -608.619610507636     
           4 :    478.873940994754     
           5 :   -356.906112113684     
           6 :    262.618981992123     
           7 :   -203.767630359595     
           8 :    175.880299202491     
           9 :   -166.268455612969     
          10 :    160.210809007093     
          11 :   -146.778860264182     
          12 :    122.109126135625     
          13 :   -89.2721094672287     
          14 :    55.3559745137317     
          15 :   -27.4470877284708     
          16 :    9.33213288366369     
          17 :  -0.206471901922669     
          18 :   -4.35821866173296     
          19 :    9.90423242139843     
          20 :   -20.3576704343897     
          21 :    36.3321834802981     
          22 :   -55.1380168410034     
          23 :    72.3184423549999     
          24 :   -83.8746074327162     
          25 :    88.0890752159338     
          26 :   -86.1433560501926     
          27 :    81.3414096461220     
          28 :   -77.4140558110316     
          29 :    76.7512123410487     
          30 :   -79.3908683554802     
          31 :   -85.7816124813421     
          32 :   -65.7726802761582     

     Writing output data file ./pwscf.save/
 
     init_run     :    323.98s CPU    328.32s WALL (       1 calls)
     electrons    :  12731.11s CPU  12854.14s WALL (       1 calls)
     forces       :     98.09s CPU     99.23s WALL (       1 calls)

     Called by init_run:
     wfcinit      :    277.03s CPU    280.43s WALL (       1 calls)
     potinit      :     43.97s CPU     44.30s WALL (       1 calls)
     hinit0       :      1.11s CPU      1.15s WALL (       1 calls)

     Called by electrons:
     c_bands      :  10650.32s CPU  10746.37s WALL (      20 calls)
     sum_band     :   1454.24s CPU   1466.05s WALL (      20 calls)
     v_of_rho     :    106.20s CPU    110.37s WALL (      21 calls)
     newd         :     30.86s CPU     41.98s WALL (      21 calls)
     PAW_pot      :    140.09s CPU    140.10s WALL (      21 calls)
     mix_rho      :    394.18s CPU    394.83s WALL (      20 calls)
     vdW_kernel   :     33.47s CPU     33.47s WALL (       1 calls)

     Called by c_bands:
     init_us_2    :     76.10s CPU     76.37s WALL (     546 calls)
     cegterg      :   9863.72s CPU   9959.36s WALL (     260 calls)

     Called by *egterg:
     cdiaghg      :    114.36s CPU    114.41s WALL (    1651 calls)
     h_psi        :   6242.75s CPU   6276.18s WALL (    1664 calls)
     s_psi        :   1083.43s CPU   1083.54s WALL (    1664 calls)
     g_psi        :     16.40s CPU     16.40s WALL (    1391 calls)

     Called by h_psi:
     h_psi:calbec :   1009.85s CPU   1010.09s WALL (    1664 calls)
     vloc_psi     :   4123.04s CPU   4124.82s WALL (    1664 calls)
     add_vuspsi   :   1084.23s CPU   1084.42s WALL (    1664 calls)

     General routines
     calbec       :   1475.62s CPU   1475.95s WALL (    1976 calls)
     fft          :     46.93s CPU     46.95s WALL (    3280 calls)
     ffts         :    122.52s CPU    122.55s WALL (    9145 calls)
     fftw         :   4185.14s CPU   4186.34s WALL (  335608 calls)
 
     Parallel routines
 
     PWSCF        :      3h40m CPU      3h43m WALL

 
   This run was terminated on:  13:58:22   4Jan2023            

=------------------------------------------------------------------------------=
   JOB DONE.
=------------------------------------------------------------------------------=
