
     Program PWSCF v.6.7MaX starts on  4Jan2023 at 10:30:53 

     This program is part of the open-source Quantum ESPRESSO suite
     for quantum simulation of materials; please cite
         "P. Giannozzi et al., J. Phys.:Condens. Matter 21 395502 (2009);
         "P. Giannozzi et al., J. Phys.:Condens. Matter 29 465901 (2017);
          URL http://www.quantum-espresso.org", 
     in publications or presentations arising from this work. More details at
     http://www.quantum-espresso.org/quote

     Parallel version (MPI), running on     1 processors

     MPI processes distributed on     1 nodes
     Reading input from chcc-bi-ensemble.in
Warning: card &CELL ignored
Warning: card / ignored

     Current dimensions of program PWSCF are:
     Max number of different atomic species (ntypx) = 10
     Max number of k-points (npk) =  40000
     Max angular momentum in pseudopotentials (lmaxx) =  3
     file Pt.pbe-n-kjpaw_psl.1.0.0.UPF: wavefunction(s)  6S 5D renormalized
     file C.pbe-n-kjpaw_psl.1.0.0.UPF: wavefunction(s)  2S 2P renormalized
     file H.pbe-kjpaw_psl.1.0.0.UPF: wavefunction(s)  1S renormalized

     **************************************************************************
     Initializing libbeef V0.1.2 with the BEEF-vdW functional.
     Citation: Wellendorff et al., PRB 85, 235149 (2012).
     **************************************************************************


     IMPORTANT: XC functional enforced from input :
     Exchange-correlation= BEEF-VDW
                           (   1   4  43  14   2   0   0)
     Any further DFT definition will be discarded
     Please, verify this is what you really want


     Subspace diagonalization in iterative solution of the eigenvalue problem:
     a serial algorithm will be used

 
     G-vector sticks info
     --------------------
     sticks:   dense  smooth     PW     G-vecs:    dense   smooth      PW
     Sum        4267    4267   1159               708495   708495   99903
 


     bravais-lattice index     =            0
     lattice parameter (alat)  =      16.0349  a.u.
     unit-cell volume          =   11278.2199 (a.u.)^3
     number of atoms/cell      =           40
     number of atomic types    =            3
     number of electrons       =       373.00
     number of Kohn-Sham states=          224
     kinetic-energy cutoff     =      60.0000  Ry
     charge density cutoff     =     240.0000  Ry
     scf convergence threshold =      1.0E-06
     mixing beta               =       0.7000
     number of iterations used =            8  local-TF  mixing
     Exchange-correlation= BEEF-VDW
                           (   1   4  43  14   2   0   0)

     celldm(1)=  16.034858  celldm(2)=   0.000000  celldm(3)=   0.000000
     celldm(4)=   0.000000  celldm(5)=   0.000000  celldm(6)=   0.000000

     crystal axes: (cart. coord. in units of alat)
               a(1) = (   1.000000   0.000000   0.000000 )  
               a(2) = (   0.500000   0.866025   0.000000 )  
               a(3) = (   0.000000   0.000000   3.158745 )  

     reciprocal axes: (cart. coord. in units 2 pi/alat)
               b(1) = (  1.000000 -0.577350  0.000000 )  
               b(2) = (  0.000000  1.154701  0.000000 )  
               b(3) = (  0.000000  0.000000  0.316581 )  


     PseudoPot. # 1 for Pt read from file:
     /users/bkreitz1/quantum-espresso/potentials/Pt.pbe-n-kjpaw_psl.1.0.0.UPF
     MD5 check sum: 04dc8a03c51ece93fc7b5889c2958091
     Pseudo is Projector augmented-wave + core cor, Zval = 10.0
     Generated using 'atomic' code by A. Dal Corso  v.6.7MaX
     Shape of augmentation charge: PSQ
     Using radial grid of 1277 points,  6 beta functions with: 
                l(1) =   0
                l(2) =   0
                l(3) =   1
                l(4) =   1
                l(5) =   2
                l(6) =   2
     Q(r) pseudized with 0 coefficients 


     PseudoPot. # 2 for C  read from file:
     /users/bkreitz1/quantum-espresso/potentials/C.pbe-n-kjpaw_psl.1.0.0.UPF
     MD5 check sum: a169b0ebad56f5ec0d79c4633f80bf22
     Pseudo is Projector augmented-wave + core cor, Zval =  4.0
     Generated using 'atomic' code by A. Dal Corso  v.6.7MaX
     Shape of augmentation charge: PSQ
     Using radial grid of 1073 points,  4 beta functions with: 
                l(1) =   0
                l(2) =   0
                l(3) =   1
                l(4) =   1
     Q(r) pseudized with 0 coefficients 


     PseudoPot. # 3 for H  read from file:
     /users/bkreitz1/quantum-espresso/potentials/H.pbe-kjpaw_psl.1.0.0.UPF
     MD5 check sum: ae98473e6dc62675f0d0baffdab24f65
     Pseudo is Projector augmented-wave, Zval =  1.0
     Generated using 'atomic' code by A. Dal Corso  v.6.7MaX
     Shape of augmentation charge: PSQ
     Using radial grid of  929 points,  2 beta functions with: 
                l(1) =   0
                l(2) =   0
     Q(r) pseudized with 0 coefficients 


     atomic species   valence    mass     pseudopotential
        Pt            10.00   195.08400     Pt( 1.00)
        C              4.00    12.01100     C ( 1.00)
        H              1.00     1.00800     H ( 1.00)

     No symmetry found



   Cartesian axes

     site n.     atom                  positions (alat units)
         1           Pt  tau(   1) = (   0.0000000   0.0000000   1.0017346  )
         2           Pt  tau(   2) = (   0.3333333   0.0000000   1.0017346  )
         3           Pt  tau(   3) = (   0.6666667   0.0000000   1.0017346  )
         4           Pt  tau(   4) = (   0.1666667   0.2886751   1.0017346  )
         5           Pt  tau(   5) = (   0.5000000   0.2886751   1.0017346  )
         6           Pt  tau(   6) = (   0.8333333   0.2886751   1.0017346  )
         7           Pt  tau(   7) = (   0.3333333   0.5773503   1.0017346  )
         8           Pt  tau(   8) = (   0.6666667   0.5773503   1.0017346  )
         9           Pt  tau(   9) = (   1.0000000   0.5773503   1.0017346  )
        10           Pt  tau(  10) = (   0.1666667   0.0962250   1.2739001  )
        11           Pt  tau(  11) = (   0.5000000   0.0962250   1.2739001  )
        12           Pt  tau(  12) = (   0.8333333   0.0962250   1.2739001  )
        13           Pt  tau(  13) = (   0.3333333   0.3849002   1.2739001  )
        14           Pt  tau(  14) = (   0.6666667   0.3849002   1.2739001  )
        15           Pt  tau(  15) = (   1.0000000   0.3849002   1.2739001  )
        16           Pt  tau(  16) = (   0.5000000   0.6735753   1.2739001  )
        17           Pt  tau(  17) = (   0.8333333   0.6735753   1.2739001  )
        18           Pt  tau(  18) = (   1.1666667   0.6735753   1.2739001  )
        19           Pt  tau(  19) = (   0.0000161   0.1919730   1.5394707  )
        20           Pt  tau(  20) = (   0.3354244   0.1936048   1.5450443  )
        21           Pt  tau(  21) = (   0.6643283   0.1933832   1.5475582  )
        22           Pt  tau(  22) = (   0.1673207   0.4803172   1.5406166  )
        23           Pt  tau(  23) = (   0.5027409   0.4783944   1.5507155  )
        24           Pt  tau(  24) = (   0.8310003   0.4825989   1.5467521  )
        25           Pt  tau(  25) = (   0.3340206   0.7689944   1.5403143  )
        26           Pt  tau(  26) = (   0.6666680   0.7665541   1.5451292  )
        27           Pt  tau(  27) = (   1.0005661   0.7692970   1.5419757  )
        28           Pt  tau(  28) = (   0.0002342   0.0006206   1.8147662  )
        29           Pt  tau(  29) = (   0.3347609  -0.0012125   1.8141785  )
        30           Pt  tau(  30) = (   0.6713123  -0.0056077   1.8162253  )
        31           Pt  tau(  31) = (   0.1649102   0.2864283   1.8165115  )
        32           Pt  tau(  32) = (   0.4952266   0.2733649   1.8430658  )
        33           Pt  tau(  33) = (   0.8383493   0.2850190   1.8128333  )
        34           Pt  tau(  34) = (   0.3342631   0.5751585   1.8120762  )
        35           Pt  tau(  35) = (   0.6760315   0.5841286   1.8366030  )
        36           Pt  tau(  36) = (   1.0068606   0.5751418   1.8158046  )
        37           C   tau(  37) = (   0.5037328   0.2752567   2.0774097  )
        38           C   tau(  38) = (   0.5818827   0.4080545   2.1062188  )
        39           C   tau(  39) = (   0.6531660   0.5323240   2.0568243  )
        40           H   tau(  40) = (   0.4555182   0.1867052   2.1567282  )

     number of k points=    13  Marzari-Vanderbilt smearing, width (Ry)=  0.0200
                       cart. coord. in units 2pi/alat
        k(    1) = (   0.0000000   0.0000000   0.0000000), wk =   0.0800000
        k(    2) = (   0.0000000   0.2309401   0.0000000), wk =   0.1600000
        k(    3) = (   0.0000000   0.4618802   0.0000000), wk =   0.1600000
        k(    4) = (   0.2000000  -0.1154701   0.0000000), wk =   0.1600000
        k(    5) = (   0.2000000   0.1154701   0.0000000), wk =   0.1600000
        k(    6) = (   0.2000000   0.3464102   0.0000000), wk =   0.1600000
        k(    7) = (   0.2000000  -0.5773503   0.0000000), wk =   0.1600000
        k(    8) = (   0.2000000  -0.3464102   0.0000000), wk =   0.1600000
        k(    9) = (   0.4000000  -0.2309401   0.0000000), wk =   0.1600000
        k(   10) = (   0.4000000  -0.0000000   0.0000000), wk =   0.1600000
        k(   11) = (   0.4000000   0.2309401   0.0000000), wk =   0.1600000
        k(   12) = (   0.4000000  -0.6928203   0.0000000), wk =   0.1600000
        k(   13) = (   0.4000000  -0.4618802   0.0000000), wk =   0.1600000

     Dense  grid:   708495 G-vectors     FFT dimensions: (  80,  80, 250)

     Estimated max dynamical RAM per process >       8.55 GB

     Check: negative core charge=   -0.000002

     Initial potential from superposition of free atoms

     starting charge  372.99376, renormalised to  373.00000

     negative rho (up, down):  1.133E-02 0.000E+00


     %%%%%%%%%%%%%%%%%%%%%%%%%%%%%%%%%%%%%%%%%%%%%%%%%%%%%%%%%%%%%%%%%%%%%%%%
     %                                                                      %
     % You are using vdW-DF, which was implemented by the Thonhauser group. %
     % Please cite the following two papers that made this development      %
     % possible and the two reviews that describe the various versions:     %
     %                                                                      %
     %   T. Thonhauser et al., PRL 115, 136402 (2015).                      %
     %   T. Thonhauser et al., PRB 76, 125112 (2007).                       %
     %   K. Berland et al., Rep. Prog. Phys. 78, 066501 (2015).             %
     %   D.C. Langreth et al., J. Phys.: Condens. Matter 21, 084203 (2009). %
     %                                                                      %
     %                                                                      %
     % If you are calculating the stress with vdW-DF, please also cite:     %
     %                                                                      %
     %   R. Sabatini et al., J. Phys.: Condens. Matter 24, 424209 (2012).   %
     %                                                                      %
     %%%%%%%%%%%%%%%%%%%%%%%%%%%%%%%%%%%%%%%%%%%%%%%%%%%%%%%%%%%%%%%%%%%%%%%%


     Starting wfcs are  337 randomized atomic wfcs
     Checking if some PAW data can be deallocated... 

     total cpu time spent up to now is      327.6 secs

     Self-consistent Calculation

     iteration #  1     ecut=    60.00 Ry     beta= 0.70
     Davidson diagonalization with overlap
     ethr =  1.00E-02,  avg # of iterations =  2.0

     negative rho (up, down):  1.837E-02 0.000E+00

     total cpu time spent up to now is      915.6 secs

     total energy              =  -27811.25774393 Ry
     estimated scf accuracy    <       6.29814625 Ry

     iteration #  2     ecut=    60.00 Ry     beta= 0.70
     Davidson diagonalization with overlap
     ethr =  1.69E-03,  avg # of iterations =  2.0

     negative rho (up, down):  1.525E-02 0.000E+00

     total cpu time spent up to now is     1494.4 secs

     total energy              =  -27811.94949204 Ry
     estimated scf accuracy    <       1.20179093 Ry

     iteration #  3     ecut=    60.00 Ry     beta= 0.70
     Davidson diagonalization with overlap
     ethr =  3.22E-04,  avg # of iterations = 14.8

     negative rho (up, down):  1.224E-02 0.000E+00

     total cpu time spent up to now is     2249.0 secs

     total energy              =  -27812.14120010 Ry
     estimated scf accuracy    <       0.34060821 Ry

     iteration #  4     ecut=    60.00 Ry     beta= 0.70
     Davidson diagonalization with overlap
     ethr =  9.13E-05,  avg # of iterations =  6.9

     negative rho (up, down):  7.781E-03 0.000E+00

     total cpu time spent up to now is     3045.5 secs

     total energy              =  -27812.21150149 Ry
     estimated scf accuracy    <       0.13818936 Ry

     iteration #  5     ecut=    60.00 Ry     beta= 0.70
     Davidson diagonalization with overlap
     c_bands:  1 eigenvalues not converged
     ethr =  3.70E-05,  avg # of iterations =  8.8

     negative rho (up, down):  5.927E-03 0.000E+00

     total cpu time spent up to now is     3711.6 secs

     total energy              =  -27812.22404985 Ry
     estimated scf accuracy    <       0.05409219 Ry

     iteration #  6     ecut=    60.00 Ry     beta= 0.70
     Davidson diagonalization with overlap
     c_bands:  1 eigenvalues not converged
     ethr =  1.45E-05,  avg # of iterations =  9.3

     negative rho (up, down):  4.937E-03 0.000E+00

     total cpu time spent up to now is     4391.4 secs

     total energy              =  -27812.22941535 Ry
     estimated scf accuracy    <       0.01827723 Ry

     iteration #  7     ecut=    60.00 Ry     beta= 0.70
     Davidson diagonalization with overlap
     c_bands:  1 eigenvalues not converged
     c_bands:  1 eigenvalues not converged
     c_bands:  1 eigenvalues not converged
     ethr =  4.90E-06,  avg # of iterations = 13.6

     negative rho (up, down):  4.642E-03 0.000E+00

     total cpu time spent up to now is     5175.8 secs

     total energy              =  -27812.23205172 Ry
     estimated scf accuracy    <       0.01030895 Ry

     iteration #  8     ecut=    60.00 Ry     beta= 0.70
     Davidson diagonalization with overlap
     ethr =  2.76E-06,  avg # of iterations =  4.6

     negative rho (up, down):  4.517E-03 0.000E+00

     total cpu time spent up to now is     5769.1 secs

     total energy              =  -27812.23252081 Ry
     estimated scf accuracy    <       0.00278431 Ry

     iteration #  9     ecut=    60.00 Ry     beta= 0.70
     Davidson diagonalization with overlap
     ethr =  7.46E-07,  avg # of iterations =  5.0

     negative rho (up, down):  4.712E-03 0.000E+00

     total cpu time spent up to now is     6476.2 secs

     total energy              =  -27812.23301508 Ry
     estimated scf accuracy    <       0.00138591 Ry

     iteration # 10     ecut=    60.00 Ry     beta= 0.70
     Davidson diagonalization with overlap
     ethr =  3.72E-07,  avg # of iterations =  3.2

     negative rho (up, down):  5.143E-03 0.000E+00

     total cpu time spent up to now is     7068.8 secs

     total energy              =  -27812.23310319 Ry
     estimated scf accuracy    <       0.00058823 Ry

     iteration # 11     ecut=    60.00 Ry     beta= 0.70
     Davidson diagonalization with overlap
     ethr =  1.58E-07,  avg # of iterations =  2.9

     negative rho (up, down):  6.496E-03 0.000E+00

     total cpu time spent up to now is     7669.6 secs

     total energy              =  -27812.23315307 Ry
     estimated scf accuracy    <       0.00026313 Ry

     iteration # 12     ecut=    60.00 Ry     beta= 0.70
     Davidson diagonalization with overlap
     c_bands:  2 eigenvalues not converged
     c_bands:  2 eigenvalues not converged
     ethr =  7.05E-08,  avg # of iterations =  7.2

     negative rho (up, down):  7.744E-03 0.000E+00

     total cpu time spent up to now is     8342.8 secs

     total energy              =  -27812.23319011 Ry
     estimated scf accuracy    <       0.00013763 Ry

     iteration # 13     ecut=    60.00 Ry     beta= 0.70
     Davidson diagonalization with overlap
     c_bands:  1 eigenvalues not converged
     ethr =  3.69E-08,  avg # of iterations =  4.9

     negative rho (up, down):  9.110E-03 0.000E+00

     total cpu time spent up to now is     8952.7 secs

     total energy              =  -27812.23320486 Ry
     estimated scf accuracy    <       0.00013433 Ry

     iteration # 14     ecut=    60.00 Ry     beta= 0.70
     Davidson diagonalization with overlap
     c_bands:  1 eigenvalues not converged
     ethr =  3.60E-08,  avg # of iterations =  2.5

     negative rho (up, down):  1.023E-02 0.000E+00

     total cpu time spent up to now is     9487.1 secs

     total energy              =  -27812.23321177 Ry
     estimated scf accuracy    <       0.00006302 Ry

     iteration # 15     ecut=    60.00 Ry     beta= 0.70
     Davidson diagonalization with overlap
     ethr =  1.69E-08,  avg # of iterations =  2.0

     negative rho (up, down):  1.143E-02 0.000E+00

     total cpu time spent up to now is    10069.5 secs

     total energy              =  -27812.23321096 Ry
     estimated scf accuracy    <       0.00003087 Ry

     iteration # 16     ecut=    60.00 Ry     beta= 0.70
     Davidson diagonalization with overlap
     ethr =  8.28E-09,  avg # of iterations =  2.5

     negative rho (up, down):  1.171E-02 0.000E+00

     total cpu time spent up to now is    10668.4 secs

     total energy              =  -27812.23321273 Ry
     estimated scf accuracy    <       0.00001409 Ry

     iteration # 17     ecut=    60.00 Ry     beta= 0.70
     Davidson diagonalization with overlap
     ethr =  3.78E-09,  avg # of iterations =  3.1

     negative rho (up, down):  1.197E-02 0.000E+00

     total cpu time spent up to now is    11287.0 secs

     total energy              =  -27812.23321400 Ry
     estimated scf accuracy    <       0.00000874 Ry

     iteration # 18     ecut=    60.00 Ry     beta= 0.70
     Davidson diagonalization with overlap
     ethr =  2.34E-09,  avg # of iterations =  2.0

     negative rho (up, down):  1.226E-02 0.000E+00

     total cpu time spent up to now is    11853.2 secs

     total energy              =  -27812.23321396 Ry
     estimated scf accuracy    <       0.00000584 Ry

     iteration # 19     ecut=    60.00 Ry     beta= 0.70
     Davidson diagonalization with overlap
     ethr =  1.57E-09,  avg # of iterations =  1.9

     negative rho (up, down):  1.226E-02 0.000E+00

     total cpu time spent up to now is    12395.2 secs

     End of self-consistent calculation

          k = 0.0000 0.0000 0.0000 ( 88661 PWs)   bands (ev):

   -13.8649 -10.8489  -6.8548  -6.2501  -5.6198  -4.8674  -4.5335  -4.4864
    -4.4434  -4.4301  -4.4235  -4.4034  -4.3838  -4.3017  -4.0974  -3.8840
    -3.8757  -3.8698  -3.8554  -3.8018  -3.7041  -3.4452  -3.4425  -3.4313
    -3.4089  -3.3835  -3.3585  -3.2588  -3.2002  -3.1895  -3.1828  -3.1137
    -3.1042  -3.0539  -3.0075  -3.0006  -2.9739  -2.9669  -2.9565  -2.9471
    -2.9380  -2.9268  -2.8755  -2.8493  -2.8267  -2.7810  -2.4385  -2.3963
    -2.3372  -2.3262  -2.3121  -2.3007  -2.2732  -2.2662  -2.2280  -2.1556
    -2.0958  -2.0754  -2.0218  -1.8775  -1.7837  -1.6464  -1.5891  -1.5618
    -1.5214  -1.4684  -1.4535  -1.4419  -1.3996  -1.3485  -1.3384  -1.3342
    -1.3298  -1.3202  -1.3011  -1.2894  -1.2756  -1.2619  -1.2524  -1.2320
    -1.2228  -1.2078  -1.1840  -1.1302  -1.1268  -1.1106  -1.0701  -1.0580
    -0.9793  -0.9712  -0.9452  -0.9421  -0.9327  -0.9153  -0.9048  -0.8853
    -0.8769  -0.8525  -0.8241  -0.7936  -0.7775  -0.7641  -0.6715  -0.6690
    -0.6299  -0.6278  -0.6033  -0.5616  -0.5103  -0.4697  -0.4403  -0.4254
    -0.2860  -0.2589  -0.1278  -0.1104  -0.0553  -0.0434  -0.0380  -0.0054
     0.0154   0.0233   0.0410   0.0969   0.1538   0.1815   0.1993   0.2453
     0.2557   0.2819   0.3057   0.3577   0.3731   0.3926   0.4852   0.4902
     0.5129   0.5240   0.5559   0.6256   0.6785   0.7185   0.7317   0.7430
     0.7674   0.8101   0.8312   0.9509   0.9833   0.9942   0.9994   1.0209
     1.0546   1.0600   1.0822   1.1331   1.1647   1.1785   1.1919   1.1956
     1.2032   1.2246   1.2287   1.2338   1.2523   1.2639   1.2858   1.2963
     1.3154   1.3342   1.3483   1.3717   1.4166   1.4281   1.4312   1.4440
     1.4454   1.4703   1.5018   1.5228   1.5374   1.5733   1.5777   1.5847
     1.6008   1.6083   1.6362   1.6384   1.6865   1.6915   1.7013   1.7307
     1.7408   1.8706   1.8932   1.9599   1.9932   2.0205   2.0273   2.0378
     2.0500   2.1827   2.3781   2.6086   2.8272   2.9088   2.9306   2.9820
     3.1281   3.8230   3.9286   5.1490   5.2159   5.2445   5.2588   5.2792
     5.9974   6.2386   6.7212   6.8086   6.8204   6.8413   6.8710   6.8731

          k = 0.0000 0.2309 0.0000 ( 88476 PWs)   bands (ev):

   -13.8647 -10.8493  -6.7100  -6.2431  -5.4921  -4.9789  -4.8260  -4.5541
    -4.4800  -4.3664  -4.2879  -4.2787  -4.2038  -4.1591  -4.0704  -3.9584
    -3.9049  -3.8106  -3.7924  -3.7363  -3.6721  -3.4743  -3.4167  -3.3853
    -3.3723  -3.3595  -3.3047  -3.2732  -3.2591  -3.2092  -3.1901  -3.1716
    -3.1458  -3.0844  -3.0560  -3.0285  -2.9938  -2.9827  -2.9545  -2.9225
    -2.8534  -2.7857  -2.7571  -2.7389  -2.7122  -2.6556  -2.5190  -2.4763
    -2.4266  -2.4166  -2.3798  -2.3423  -2.3018  -2.2091  -2.1401  -2.1099
    -2.0888  -2.0601  -2.0362  -1.9285  -1.8419  -1.7663  -1.7124  -1.6867
    -1.6665  -1.6345  -1.5990  -1.5515  -1.5307  -1.5112  -1.4836  -1.4666
    -1.4133  -1.4014  -1.3706  -1.3590  -1.3139  -1.2964  -1.2690  -1.2306
    -1.2065  -1.1664  -1.1506  -1.1392  -1.1024  -1.0779  -1.0638  -1.0377
    -1.0284  -0.9919  -0.9685  -0.9484  -0.9268  -0.9166  -0.8984  -0.8681
    -0.8349  -0.8168  -0.7842  -0.7658  -0.7573  -0.7386  -0.7040  -0.6921
    -0.6681  -0.6455  -0.6290  -0.5958  -0.5456  -0.5195  -0.4675  -0.4407
    -0.4253  -0.4028  -0.3899  -0.3775  -0.3605  -0.2194  -0.1803  -0.1330
    -0.0935  -0.0603  -0.0126   0.0336   0.0543   0.0654   0.0807   0.1324
     0.2145   0.2923   0.3266   0.3546   0.3818   0.4016   0.4313   0.4573
     0.4668   0.4784   0.5267   0.5629   0.5929   0.6180   0.6429   0.6559
     0.6875   0.7728   0.7793   0.8028   0.8502   0.8835   0.9122   0.9598
     0.9901   1.0035   1.0280   1.0486   1.0924   1.1084   1.1213   1.1679
     1.1826   1.2287   1.2454   1.2806   1.3212   1.3407   1.3815   1.3959
     1.4254   1.4274   1.4464   1.5054   1.5403   1.5659   1.5762   1.6009
     1.6333   1.6534   1.6679   1.6847   1.6959   1.7047   1.7379   1.7500
     1.7974   1.8565   1.8879   1.9004   1.9111   1.9404   1.9659   1.9902
     2.0000   2.0330   2.0447   2.1268   2.1432   2.1622   2.2129   2.3041
     2.3347   2.3685   2.5532   2.6531   2.8533   2.9978   3.2004   3.5037
     3.6518   3.8266   4.2396   4.6799   5.0392   5.1441   5.6465   5.6617
     5.7469   5.9238   6.2462   6.3517   6.5822   6.6597   6.9046   6.9328

          k = 0.0000 0.4619 0.0000 ( 88518 PWs)   bands (ev):

   -13.8646 -10.8499  -6.3205  -6.2066  -5.6504  -5.1659  -4.8266  -4.5891
    -4.5348  -4.3791  -4.2298  -4.0516  -4.0239  -3.9712  -3.8996  -3.8310
    -3.8038  -3.6746  -3.6467  -3.6167  -3.5975  -3.5481  -3.5127  -3.4747
    -3.4328  -3.4153  -3.3896  -3.3593  -3.3265  -3.2932  -3.2623  -3.2367
    -3.0593  -3.0337  -3.0031  -2.9961  -2.9666  -2.9583  -2.9077  -2.7825
    -2.7587  -2.7381  -2.7231  -2.6821  -2.6329  -2.5845  -2.4653  -2.4473
    -2.4360  -2.3878  -2.3701  -2.3364  -2.2807  -2.2708  -2.2412  -2.2202
    -2.1662  -2.1146  -2.0652  -2.0447  -2.0238  -1.9207  -1.8831  -1.8491
    -1.8350  -1.8041  -1.7357  -1.7098  -1.6752  -1.6324  -1.6138  -1.5799
    -1.5463  -1.5169  -1.4856  -1.4148  -1.3835  -1.3707  -1.3218  -1.2895
    -1.2555  -1.2401  -1.2080  -1.1979  -1.1828  -1.1449  -1.1284  -1.1068
    -1.0981  -1.0799  -1.0616  -1.0446  -1.0258  -0.9985  -0.9605  -0.9448
    -0.9179  -0.8976  -0.8306  -0.8149  -0.7836  -0.7729  -0.7534  -0.7136
    -0.6719  -0.6464  -0.6306  -0.6028  -0.5385  -0.5169  -0.4593  -0.4385
    -0.4125  -0.3932  -0.3572  -0.3009  -0.2755  -0.2150  -0.1686  -0.1448
    -0.1273  -0.0925  -0.0684  -0.0270  -0.0075   0.0125   0.0457   0.0675
     0.0730   0.0913   0.1088   0.1507   0.1815   0.2307   0.2819   0.2906
     0.3138   0.3585   0.3948   0.4667   0.4769   0.5418   0.5741   0.6097
     0.6865   0.7311   0.7652   0.7748   0.7981   0.8587   0.8750   0.9104
     0.9451   0.9594   0.9765   1.0129   1.0480   1.0569   1.1155   1.1580
     1.1697   1.1848   1.1989   1.2196   1.3289   1.3913   1.4004   1.4262
     1.4403   1.4682   1.5068   1.5698   1.5882   1.6083   1.6814   1.6964
     1.7244   1.7443   1.7643   1.7830   1.8211   1.8762   1.8896   1.9165
     1.9229   1.9387   1.9743   1.9812   2.1048   2.1358   2.1492   2.1725
     2.2084   2.2799   2.2994   2.4094   2.4703   2.6638   2.8693   2.9591
     3.1869   3.2310   3.2452   3.5062   3.6199   3.7185   3.9844   4.0710
     4.4443   4.4472   4.5483   4.6408   4.7440   4.7809   4.9697   5.0871
     5.1233   5.2652   5.7591   5.8527   6.1890   6.3608   6.5927   6.7717

          k = 0.2000-0.1155 0.0000 ( 88476 PWs)   bands (ev):

   -13.8648 -10.8489  -6.7113  -6.2456  -5.4945  -5.0079  -4.7405  -4.5816
    -4.5157  -4.3660  -4.2854  -4.2590  -4.2001  -4.1659  -4.0522  -3.9606
    -3.9216  -3.8109  -3.8026  -3.7618  -3.6370  -3.5048  -3.4026  -3.3756
    -3.3690  -3.3530  -3.3010  -3.2981  -3.2429  -3.2255  -3.1872  -3.1717
    -3.1518  -3.0804  -3.0599  -3.0366  -2.9972  -2.9783  -2.9443  -2.9211
    -2.8698  -2.7728  -2.7521  -2.7418  -2.7176  -2.6786  -2.4807  -2.4625
    -2.4220  -2.3942  -2.3838  -2.3484  -2.3138  -2.1959  -2.1617  -2.1372
    -2.0784  -2.0665  -2.0054  -1.9405  -1.8431  -1.7652  -1.7307  -1.6895
    -1.6666  -1.6320  -1.5784  -1.5510  -1.5209  -1.5003  -1.4890  -1.4772
    -1.4173  -1.3869  -1.3588  -1.3477  -1.3146  -1.2809  -1.2555  -1.2341
    -1.2097  -1.1710  -1.1524  -1.1420  -1.0922  -1.0661  -1.0445  -1.0334
    -1.0274  -1.0081  -0.9971  -0.9581  -0.9358  -0.9139  -0.8928  -0.8565
    -0.8337  -0.8119  -0.7797  -0.7699  -0.7650  -0.7266  -0.7065  -0.6946
    -0.6821  -0.6603  -0.6461  -0.5844  -0.5763  -0.4767  -0.4545  -0.4423
    -0.4316  -0.3962  -0.3843  -0.3806  -0.3752  -0.2857  -0.2056  -0.1237
    -0.0618  -0.0374  -0.0105   0.0194   0.0319   0.0550   0.0786   0.1193
     0.1481   0.2309   0.3356   0.3595   0.4022   0.4224   0.4293   0.4349
     0.4505   0.4837   0.4975   0.5493   0.6043   0.6136   0.6521   0.6667
     0.7452   0.7728   0.7944   0.8248   0.8450   0.9339   0.9405   0.9523
     0.9992   1.0067   1.0328   1.0429   1.0783   1.1044   1.1612   1.1746
     1.2065   1.2254   1.2523   1.2684   1.2897   1.3213   1.3729   1.4068
     1.4267   1.4548   1.4820   1.5233   1.5444   1.5694   1.5958   1.6056
     1.6403   1.6488   1.6638   1.6796   1.6927   1.6987   1.7451   1.7566
     1.8111   1.8533   1.8774   1.9023   1.9171   1.9552   1.9651   1.9790
     2.0019   2.0122   2.0232   2.0915   2.1401   2.1629   2.2593   2.3087
     2.3272   2.3594   2.4669   2.7117   2.7561   2.9697   3.2828   3.5341
     3.6218   3.9701   4.0696   4.6695   4.9338   5.3094   5.6573   5.6672
     5.7395   5.9338   6.2078   6.3687   6.5926   6.6823   6.7750   6.9844

          k = 0.2000 0.1155 0.0000 ( 88476 PWs)   bands (ev):

   -13.8647 -10.8493  -6.7101  -6.2430  -5.4921  -4.9857  -4.8109  -4.5565
    -4.4875  -4.3694  -4.2876  -4.2743  -4.2032  -4.1586  -4.0742  -3.9600
    -3.9023  -3.8055  -3.7943  -3.7336  -3.6730  -3.4800  -3.4197  -3.3873
    -3.3688  -3.3542  -3.3026  -3.2752  -3.2595  -3.2107  -3.1923  -3.1699
    -3.1425  -3.0792  -3.0598  -3.0270  -3.0035  -2.9804  -2.9449  -2.9239
    -2.8546  -2.7859  -2.7542  -2.7432  -2.7090  -2.6651  -2.5221  -2.4743
    -2.4228  -2.4193  -2.3767  -2.3426  -2.3030  -2.2121  -2.1466  -2.0987
    -2.0898  -2.0648  -2.0321  -1.9394  -1.8460  -1.7706  -1.7129  -1.6804
    -1.6675  -1.6314  -1.5956  -1.5475  -1.5323  -1.5061  -1.4817  -1.4681
    -1.4218  -1.4051  -1.3774  -1.3664  -1.3068  -1.2885  -1.2552  -1.2297
    -1.2056  -1.1593  -1.1473  -1.1311  -1.1166  -1.0762  -1.0657  -1.0389
    -1.0266  -0.9998  -0.9731  -0.9538  -0.9191  -0.9088  -0.8959  -0.8735
    -0.8371  -0.8103  -0.7848  -0.7643  -0.7552  -0.7350  -0.7083  -0.6919
    -0.6680  -0.6410  -0.6223  -0.5923  -0.5471  -0.5240  -0.4659  -0.4438
    -0.4140  -0.4026  -0.3852  -0.3763  -0.3493  -0.2407  -0.1917  -0.1360
    -0.1110  -0.0470  -0.0139   0.0361   0.0531   0.0598   0.0855   0.1117
     0.2097   0.2874   0.3128   0.3548   0.3786   0.4106   0.4319   0.4426
     0.4624   0.4759   0.5420   0.5625   0.5906   0.6163   0.6445   0.6594
     0.7239   0.7764   0.7878   0.8105   0.8490   0.8818   0.9160   0.9496
     0.9867   1.0059   1.0306   1.0561   1.0822   1.0966   1.1286   1.1684
     1.1799   1.2282   1.2447   1.2827   1.3093   1.3415   1.3747   1.3958
     1.4213   1.4340   1.4426   1.5164   1.5525   1.5670   1.5734   1.6011
     1.6343   1.6540   1.6729   1.6875   1.6983   1.7201   1.7389   1.7500
     1.8029   1.8545   1.8820   1.9022   1.9206   1.9459   1.9484   1.9896
     1.9996   2.0268   2.0406   2.1067   2.1303   2.1572   2.2252   2.3081
     2.3382   2.3712   2.5510   2.6470   2.8616   2.9987   3.1991   3.5052
     3.6448   3.8260   4.2379   4.6767   5.0487   5.1471   5.6439   5.6631
     5.7404   5.9242   6.2467   6.3526   6.5875   6.6565   6.9021   6.9274

          k = 0.2000 0.3464 0.0000 ( 88576 PWs)   bands (ev):

   -13.8646 -10.8499  -6.4331  -6.2293  -5.2900  -5.1938  -5.1887  -4.7467
    -4.2879  -4.1251  -4.1144  -4.1029  -4.0787  -4.0304  -4.0165  -3.9398
    -3.9218  -3.9046  -3.7779  -3.5421  -3.5253  -3.5105  -3.4769  -3.4430
    -3.3881  -3.3453  -3.3084  -3.2905  -3.2732  -3.2575  -3.1643  -3.1384
    -3.1348  -3.1198  -3.1006  -3.0402  -3.0126  -3.0054  -2.9713  -2.8958
    -2.8809  -2.8338  -2.6367  -2.6118  -2.5540  -2.5304  -2.5102  -2.4793
    -2.4592  -2.4046  -2.3988  -2.3349  -2.2824  -2.2420  -2.2058  -2.1338
    -2.1216  -2.0735  -2.0486  -2.0216  -1.9693  -1.9430  -1.8801  -1.7898
    -1.7726  -1.7251  -1.7127  -1.6645  -1.6488  -1.6225  -1.5962  -1.5705
    -1.5313  -1.4537  -1.4334  -1.4075  -1.3889  -1.3811  -1.3604  -1.2904
    -1.2623  -1.2413  -1.2094  -1.1742  -1.1380  -1.1330  -1.0854  -1.0698
    -1.0558  -1.0509  -1.0401  -0.9992  -0.9795  -0.9587  -0.9426  -0.8832
    -0.8786  -0.8475  -0.8262  -0.7883  -0.7748  -0.7229  -0.7204  -0.6962
    -0.6853  -0.6684  -0.6345  -0.6206  -0.5804  -0.5595  -0.5519  -0.5359
    -0.4729  -0.4634  -0.4337  -0.4086  -0.3560  -0.3290  -0.2505  -0.1848
    -0.1401  -0.1133  -0.0782  -0.0048   0.0313   0.0503   0.0724   0.1237
     0.1283   0.1486   0.1609   0.2127   0.2354   0.2642   0.3180   0.3758
     0.3998   0.4249   0.4635   0.5122   0.5301   0.5717   0.5919   0.6219
     0.6706   0.6964   0.7164   0.7728   0.8067   0.8370   0.8733   0.9074
     0.9278   0.9568   0.9842   1.0004   1.0195   1.0378   1.0707   1.0789
     1.1024   1.1771   1.1994   1.3080   1.3386   1.3644   1.4123   1.5104
     1.5370   1.5587   1.5945   1.6036   1.6699   1.6814   1.7171   1.7285
     1.7446   1.7667   1.7817   1.7855   1.8126   1.8256   1.8412   1.9009
     1.9249   1.9454   1.9771   2.0005   2.0205   2.0578   2.1194   2.2119
     2.2215   2.2489   2.2830   2.3167   2.3577   2.4230   2.4876   2.7286
     2.9363   3.0392   3.0941   3.2627   3.5346   3.5712   3.6258   3.8096
     4.2285   4.3648   4.4546   4.5561   4.6318   4.9233   5.2230   5.6369
     5.6955   5.7218   5.8896   6.2995   6.3681   6.3909   6.4861   6.5162

          k = 0.2000-0.5774 0.0000 ( 88464 PWs)   bands (ev):

   -13.8645 -10.8499  -6.2561  -5.8911  -5.8714  -5.3074  -4.9767  -4.7099
    -4.4680  -4.1893  -4.0958  -3.9647  -3.9580  -3.9017  -3.8071  -3.7679
    -3.7135  -3.6972  -3.6671  -3.6113  -3.5719  -3.5573  -3.5489  -3.5359
    -3.4808  -3.3944  -3.3789  -3.3569  -3.3364  -3.3168  -3.2406  -3.2038
    -3.1544  -3.0936  -3.0562  -3.0266  -2.9863  -2.9582  -2.9303  -2.8807
    -2.8586  -2.7903  -2.7247  -2.6743  -2.5855  -2.5439  -2.5028  -2.4485
    -2.3968  -2.3477  -2.3182  -2.2344  -2.2244  -2.1854  -2.1465  -2.1194
    -2.0710  -2.0443  -2.0383  -2.0068  -1.9757  -1.9535  -1.9220  -1.8859
    -1.8673  -1.8510  -1.8314  -1.8035  -1.7613  -1.7224  -1.6662  -1.6336
    -1.6072  -1.5655  -1.5028  -1.4786  -1.4672  -1.4265  -1.4084  -1.3924
    -1.3601  -1.3088  -1.2660  -1.2473  -1.2266  -1.2055  -1.1760  -1.1537
    -1.1161  -1.0610  -1.0382  -1.0121  -0.9766  -0.9431  -0.9128  -0.8807
    -0.8521  -0.8309  -0.8044  -0.7882  -0.7704  -0.7497  -0.7328  -0.7173
    -0.7061  -0.6757  -0.6354  -0.6152  -0.6040  -0.5913  -0.5831  -0.5743
    -0.5645  -0.5259  -0.4784  -0.3815  -0.2802  -0.2666  -0.2353  -0.2129
    -0.1506  -0.1342  -0.0939  -0.0703  -0.0263   0.0047   0.0267   0.0373
     0.0558   0.0932   0.1357   0.1588   0.2190   0.2377   0.2671   0.3080
     0.3587   0.4039   0.4390   0.4795   0.5465   0.5660   0.6000   0.6382
     0.6600   0.6893   0.7075   0.7417   0.7708   0.7848   0.8196   0.8431
     0.8821   0.9074   0.9175   0.9533   0.9772   0.9985   1.0479   1.0685
     1.1067   1.2410   1.2878   1.3473   1.3816   1.4052   1.4178   1.4859
     1.5374   1.5714   1.5893   1.6509   1.6821   1.7094   1.7306   1.7395
     1.7639   1.7855   1.8221   1.8511   1.8877   1.9046   1.9250   1.9446
     1.9640   1.9792   2.0406   2.0966   2.1330   2.1661   2.1919   2.2099
     2.2217   2.2548   2.3338   2.4369   2.5878   2.7484   2.9216   3.3329
     3.3410   3.5969   3.6800   3.7082   3.7573   3.8283   4.0864   4.3405
     4.3642   4.3985   4.8035   4.8562   4.9252   4.9603   5.0574   5.1877
     5.2902   5.4424   5.4793   5.6493   5.7692   5.9156   6.2970   6.4132

          k = 0.2000-0.3464 0.0000 ( 88576 PWs)   bands (ev):

   -13.8647 -10.8493  -6.4391  -6.2296  -5.3070  -5.2002  -5.1675  -4.7233
    -4.2985  -4.1306  -4.1141  -4.0949  -4.0610  -4.0296  -4.0130  -3.9432
    -3.9222  -3.8952  -3.8274  -3.5466  -3.5303  -3.5047  -3.4814  -3.4326
    -3.3794  -3.3533  -3.3078  -3.2831  -3.2736  -3.2574  -3.1808  -3.1435
    -3.1366  -3.1246  -3.1014  -3.0357  -3.0273  -3.0134  -2.9732  -2.9081
    -2.8820  -2.8253  -2.6506  -2.5624  -2.5568  -2.5353  -2.4952  -2.4792
    -2.4384  -2.4017  -2.3705  -2.3468  -2.2536  -2.2400  -2.2176  -2.1548
    -2.1066  -2.0605  -2.0449  -2.0271  -1.9759  -1.9167  -1.8726  -1.8323
    -1.7817  -1.7260  -1.7013  -1.6583  -1.6372  -1.6181  -1.5984  -1.5737
    -1.5316  -1.4689  -1.4209  -1.3967  -1.3816  -1.3669  -1.3387  -1.3205
    -1.2857  -1.2460  -1.2164  -1.1875  -1.1542  -1.1255  -1.0954  -1.0753
    -1.0565  -1.0403  -1.0122  -0.9977  -0.9875  -0.9679  -0.9249  -0.8909
    -0.8573  -0.8327  -0.8213  -0.7971  -0.7732  -0.7521  -0.7354  -0.7177
    -0.6920  -0.6595  -0.6433  -0.6076  -0.5934  -0.5722  -0.5538  -0.5333
    -0.4868  -0.4692  -0.4408  -0.3942  -0.3328  -0.2993  -0.2509  -0.1745
    -0.1551  -0.1188  -0.0813  -0.0246   0.0159   0.0326   0.0477   0.0856
     0.1149   0.1373   0.1707   0.1896   0.2212   0.2637   0.3408   0.3896
     0.4114   0.4276   0.4736   0.5026   0.5322   0.5654   0.6028   0.6578
     0.6743   0.6886   0.7180   0.7560   0.7994   0.8273   0.9025   0.9249
     0.9398   0.9816   0.9927   1.0139   1.0249   1.0434   1.0493   1.0760
     1.0918   1.1646   1.2457   1.2931   1.3414   1.3764   1.4238   1.4950
     1.5356   1.5656   1.5904   1.6107   1.6808   1.6860   1.7231   1.7318
     1.7525   1.7718   1.7753   1.7928   1.7991   1.8315   1.8434   1.8960
     1.9309   1.9448   1.9718   1.9988   2.0345   2.0545   2.1387   2.1971
     2.2184   2.2433   2.2728   2.3172   2.3875   2.4478   2.4943   2.6957
     2.8988   2.9969   3.1030   3.2607   3.5194   3.5637   3.6499   3.8666
     4.1998   4.3940   4.4706   4.4757   4.6928   4.8662   5.1750   5.6293
     5.6480   5.8871   5.9479   6.1717   6.3710   6.4152   6.4617   6.5087

          k = 0.4000-0.2309 0.0000 ( 88518 PWs)   bands (ev):

   -13.8648 -10.8489  -6.3366  -6.2019  -5.6551  -5.1660  -4.7695  -4.6206
    -4.5542  -4.3442  -4.1671  -4.1131  -4.0466  -3.9679  -3.8995  -3.8340
    -3.8207  -3.6841  -3.6496  -3.6163  -3.6023  -3.5466  -3.5160  -3.4544
    -3.4446  -3.4187  -3.3693  -3.3537  -3.3432  -3.3001  -3.2457  -3.2344
    -3.0821  -3.0344  -3.0051  -2.9988  -2.9805  -2.9632  -2.9359  -2.7740
    -2.7591  -2.7463  -2.7072  -2.6962  -2.6587  -2.4816  -2.4698  -2.4274
    -2.4125  -2.3956  -2.3650  -2.3413  -2.2813  -2.2684  -2.2388  -2.2031
    -2.1703  -2.1260  -2.0551  -2.0481  -2.0209  -1.9350  -1.8982  -1.8826
    -1.8461  -1.8079  -1.6970  -1.6722  -1.6326  -1.6193  -1.5880  -1.5809
    -1.5462  -1.5057  -1.4699  -1.4270  -1.3886  -1.3683  -1.3264  -1.2806
    -1.2703  -1.2548  -1.2278  -1.2007  -1.1849  -1.1554  -1.1403  -1.1207
    -1.1114  -1.0952  -1.0707  -1.0494  -1.0414  -0.9835  -0.9542  -0.9428
    -0.9216  -0.9120  -0.8548  -0.7990  -0.7818  -0.7569  -0.7359  -0.7072
    -0.6753  -0.6334  -0.5984  -0.5728  -0.5387  -0.4950  -0.4665  -0.4566
    -0.4285  -0.4109  -0.3807  -0.3568  -0.2755  -0.2121  -0.1846  -0.1486
    -0.1131  -0.0898  -0.0526  -0.0250  -0.0142  -0.0004   0.0150   0.0540
     0.0789   0.0875   0.1065   0.1468   0.1783   0.2076   0.2613   0.2747
     0.3053   0.3311   0.3784   0.4237   0.4944   0.5397   0.5487   0.6197
     0.6925   0.7416   0.7576   0.7827   0.8682   0.8739   0.8807   0.9037
     0.9438   0.9682   0.9802   1.0173   1.0500   1.0838   1.1148   1.1628
     1.1780   1.1945   1.2046   1.2677   1.3140   1.3733   1.3966   1.4162
     1.4701   1.4886   1.5556   1.5695   1.6045   1.6317   1.6551   1.6922
     1.7214   1.7460   1.7771   1.7810   1.8577   1.8638   1.8972   1.9127
     1.9213   1.9359   1.9710   1.9798   2.1303   2.1413   2.1567   2.1749
     2.1802   2.2840   2.3240   2.4089   2.5428   2.6229   2.8070   2.8708
     3.2108   3.2370   3.2921   3.4997   3.6434   3.7350   3.9445   3.9846
     4.4281   4.4429   4.4559   4.6752   4.7738   4.8012   4.9015   5.1134
     5.1162   5.4686   5.6949   5.8026   6.2017   6.3668   6.4376   6.7973

          k = 0.4000-0.0000 0.0000 ( 88576 PWs)   bands (ev):

   -13.8647 -10.8493  -6.4398  -6.2289  -5.3104  -5.1947  -5.1687  -4.7222
    -4.2980  -4.1306  -4.1151  -4.0929  -4.0559  -4.0370  -4.0164  -3.9471
    -3.9154  -3.9007  -3.8223  -3.5434  -3.5239  -3.5100  -3.4841  -3.4324
    -3.3812  -3.3497  -3.3076  -3.2851  -3.2721  -3.2580  -3.1797  -3.1539
    -3.1342  -3.1167  -3.1047  -3.0412  -3.0208  -3.0129  -2.9636  -2.9109
    -2.8921  -2.8216  -2.6427  -2.5631  -2.5532  -2.5398  -2.5093  -2.4823
    -2.4351  -2.4145  -2.3587  -2.3398  -2.2587  -2.2542  -2.2053  -2.1527
    -2.1192  -2.0648  -2.0382  -2.0281  -1.9796  -1.9310  -1.8789  -1.8233
    -1.7778  -1.7274  -1.6873  -1.6465  -1.6374  -1.6029  -1.5995  -1.5737
    -1.5433  -1.4625  -1.4237  -1.3929  -1.3806  -1.3683  -1.3514  -1.3156
    -1.2767  -1.2537  -1.2299  -1.1820  -1.1508  -1.1253  -1.0988  -1.0794
    -1.0535  -1.0427  -1.0145  -0.9901  -0.9815  -0.9579  -0.9307  -0.8717
    -0.8590  -0.8351  -0.8249  -0.8014  -0.7689  -0.7482  -0.7307  -0.7163
    -0.6852  -0.6599  -0.6425  -0.6108  -0.5975  -0.5740  -0.5564  -0.5272
    -0.4718  -0.4667  -0.4515  -0.4068  -0.3346  -0.3066  -0.2567  -0.1964
    -0.1395  -0.1073  -0.0835  -0.0398   0.0212   0.0282   0.0570   0.0873
     0.1199   0.1257   0.1691   0.1834   0.2145   0.2556   0.3406   0.3877
     0.4089   0.4317   0.4758   0.4977   0.5319   0.5683   0.5984   0.6366
     0.6733   0.6770   0.7490   0.7761   0.7991   0.8522   0.8874   0.9285
     0.9401   0.9786   0.9894   1.0144   1.0256   1.0419   1.0526   1.0853
     1.0936   1.1749   1.2457   1.2985   1.3397   1.3754   1.4243   1.4667
     1.5322   1.5617   1.5843   1.6352   1.6770   1.6843   1.7129   1.7345
     1.7469   1.7755   1.7796   1.7943   1.8039   1.8292   1.8441   1.9011
     1.9312   1.9526   1.9699   1.9960   2.0336   2.0531   2.1236   2.1909
     2.2248   2.2472   2.2735   2.3193   2.3809   2.4500   2.4856   2.7001
     2.9702   2.9944   3.0661   3.2479   3.5211   3.5555   3.6385   3.8687
     4.2035   4.3908   4.4710   4.4772   4.6723   4.8767   5.1759   5.6221
     5.6635   5.8904   5.9475   6.1683   6.3638   6.4214   6.4651   6.5003

          k = 0.4000 0.2309 0.0000 ( 88518 PWs)   bands (ev):

   -13.8646 -10.8499  -6.3220  -6.2052  -5.6504  -5.1635  -4.8250  -4.5886
    -4.5393  -4.3860  -4.2234  -4.0520  -4.0199  -3.9634  -3.9002  -3.8328
    -3.8094  -3.6728  -3.6420  -3.6124  -3.6021  -3.5525  -3.5141  -3.4718
    -3.4354  -3.4179  -3.3859  -3.3565  -3.3367  -3.2912  -3.2623  -3.2295
    -3.0597  -3.0287  -3.0054  -2.9995  -2.9705  -2.9607  -2.9112  -2.7811
    -2.7598  -2.7350  -2.7188  -2.6783  -2.6457  -2.5706  -2.4717  -2.4589
    -2.4409  -2.3942  -2.3613  -2.3266  -2.2841  -2.2619  -2.2519  -2.2205
    -2.1668  -2.0984  -2.0654  -2.0468  -2.0292  -1.9351  -1.8994  -1.8549
    -1.8395  -1.8098  -1.7247  -1.7015  -1.6724  -1.6367  -1.6139  -1.5720
    -1.5513  -1.5166  -1.4971  -1.4071  -1.3928  -1.3680  -1.3087  -1.2835
    -1.2604  -1.2532  -1.2033  -1.1933  -1.1851  -1.1506  -1.1222  -1.1122
    -1.0970  -1.0815  -1.0634  -1.0371  -1.0197  -0.9658  -0.9545  -0.9341
    -0.9148  -0.9102  -0.8270  -0.7972  -0.7821  -0.7637  -0.7211  -0.7116
    -0.6817  -0.6513  -0.6234  -0.5926  -0.5493  -0.4884  -0.4756  -0.4462
    -0.4109  -0.3977  -0.3781  -0.3182  -0.2760  -0.2254  -0.1812  -0.1493
    -0.1314  -0.0979  -0.0580  -0.0242  -0.0055   0.0096   0.0421   0.0592
     0.0726   0.0828   0.1101   0.1376   0.1795   0.2339   0.2734   0.2917
     0.3077   0.3615   0.3966   0.4199   0.4969   0.5386   0.5689   0.6062
     0.7057   0.7350   0.7697   0.7766   0.8074   0.8426   0.8809   0.9097
     0.9482   0.9655   0.9946   1.0001   1.0431   1.0672   1.1205   1.1568
     1.1684   1.1947   1.2046   1.3010   1.3155   1.3371   1.3987   1.4200
     1.4359   1.4715   1.4866   1.5693   1.5898   1.6097   1.6848   1.6930
     1.7251   1.7431   1.7625   1.7772   1.8349   1.8733   1.8913   1.9161
     1.9340   1.9382   1.9733   1.9798   2.1141   2.1380   2.1437   2.1640
     2.2067   2.2711   2.3093   2.4093   2.5234   2.6360   2.8639   3.0102
     3.1268   3.2359   3.2493   3.4976   3.6287   3.6975   3.9803   4.0536
     4.4390   4.4493   4.5508   4.6378   4.7401   4.7853   4.9908   5.0897
     5.1315   5.2579   5.7576   5.8329   6.2119   6.3629   6.5758   6.7756

          k = 0.4000-0.6928 0.0000 ( 88464 PWs)   bands (ev):

   -13.8645 -10.8499  -6.2568  -5.8897  -5.8719  -5.3062  -4.9769  -4.7123
    -4.4678  -4.1910  -4.0852  -3.9664  -3.9587  -3.9035  -3.8076  -3.7690
    -3.7147  -3.6902  -3.6710  -3.6075  -3.5721  -3.5569  -3.5536  -3.5339
    -3.4900  -3.3915  -3.3800  -3.3547  -3.3363  -3.3169  -3.2414  -3.2008
    -3.1528  -3.0948  -3.0508  -3.0303  -2.9841  -2.9650  -2.9226  -2.8808
    -2.8634  -2.7943  -2.7294  -2.6792  -2.5753  -2.5394  -2.5047  -2.4606
    -2.3923  -2.3428  -2.3214  -2.2451  -2.2101  -2.1861  -2.1407  -2.1188
    -2.0796  -2.0507  -2.0375  -2.0022  -1.9809  -1.9471  -1.9160  -1.8915
    -1.8700  -1.8596  -1.8427  -1.8106  -1.7578  -1.7215  -1.6540  -1.6357
    -1.6067  -1.5623  -1.5124  -1.4714  -1.4552  -1.4353  -1.4065  -1.3947
    -1.3612  -1.3214  -1.2795  -1.2366  -1.2168  -1.2000  -1.1833  -1.1403
    -1.1039  -1.0530  -1.0309  -1.0248  -0.9696  -0.9309  -0.9247  -0.8815
    -0.8480  -0.8244  -0.8114  -0.7826  -0.7666  -0.7491  -0.7338  -0.7203
    -0.6958  -0.6762  -0.6332  -0.6225  -0.5982  -0.5890  -0.5861  -0.5746
    -0.5680  -0.5170  -0.4650  -0.3829  -0.2972  -0.2830  -0.2462  -0.2013
    -0.1571  -0.1382  -0.1005  -0.0675  -0.0315  -0.0017   0.0186   0.0317
     0.0612   0.1006   0.1450   0.1576   0.2053   0.2457   0.2677   0.3049
     0.3781   0.4058   0.4381   0.4587   0.5433   0.5712   0.5987   0.6281
     0.6585   0.6879   0.6993   0.7327   0.7698   0.7845   0.8095   0.8514
     0.8803   0.9084   0.9269   0.9350   0.9802   0.9981   1.0487   1.0907
     1.1856   1.2391   1.2657   1.3176   1.3791   1.4011   1.4103   1.5130
     1.5360   1.5644   1.5952   1.6616   1.6825   1.7070   1.7293   1.7391
     1.7631   1.7888   1.8040   1.8437   1.8983   1.9023   1.9288   1.9497
     1.9631   1.9774   2.0389   2.1060   2.1305   2.1619   2.1891   2.2087
     2.2223   2.2549   2.3286   2.4342   2.5880   2.7489   2.9359   3.3382
     3.3402   3.5995   3.6790   3.7204   3.7627   3.8327   4.0196   4.3429
     4.3717   4.4100   4.8152   4.8713   4.9270   4.9502   5.0035   5.1960
     5.2876   5.4393   5.4750   5.6907   5.7690   5.9149   6.3041   6.4106

          k = 0.4000-0.4619 0.0000 ( 88464 PWs)   bands (ev):

   -13.8647 -10.8493  -6.2665  -5.8874  -5.8739  -5.2892  -5.0160  -4.6598
    -4.4509  -4.2319  -4.0532  -3.9939  -3.9622  -3.9049  -3.8178  -3.7574
    -3.7119  -3.6886  -3.6508  -3.6446  -3.5867  -3.5658  -3.5483  -3.5301
    -3.5057  -3.3889  -3.3690  -3.3456  -3.3339  -3.2860  -3.2364  -3.2144
    -3.1457  -3.1106  -3.0895  -2.9975  -2.9764  -2.9568  -2.9442  -2.9136
    -2.8397  -2.8295  -2.7485  -2.6647  -2.5415  -2.5283  -2.4903  -2.4296
    -2.3967  -2.3479  -2.3230  -2.2223  -2.2112  -2.1718  -2.1508  -2.1141
    -2.1086  -2.0620  -2.0463  -1.9953  -1.9682  -1.9430  -1.9121  -1.8859
    -1.8719  -1.8564  -1.8532  -1.7785  -1.7484  -1.6928  -1.6593  -1.6181
    -1.5769  -1.5619  -1.5030  -1.4714  -1.4642  -1.4249  -1.4151  -1.3970
    -1.3888  -1.3477  -1.2837  -1.2387  -1.2238  -1.2079  -1.2014  -1.1559
    -1.1007  -1.0790  -1.0508  -1.0401  -0.9590  -0.9424  -0.9090  -0.8805
    -0.8607  -0.8326  -0.8215  -0.7732  -0.7620  -0.7494  -0.7417  -0.7113
    -0.6968  -0.6600  -0.6468  -0.6369  -0.6169  -0.5953  -0.5808  -0.5744
    -0.5467  -0.5172  -0.4576  -0.4019  -0.2978  -0.2587  -0.2091  -0.1957
    -0.1312  -0.1221  -0.1087  -0.0747  -0.0141  -0.0016   0.0132   0.0493
     0.0613   0.0895   0.1190   0.1344   0.1877   0.2352   0.2756   0.2885
     0.3839   0.4063   0.4410   0.4742   0.4981   0.5136   0.5899   0.6211
     0.6626   0.6856   0.6998   0.7193   0.7474   0.7724   0.8055   0.8634
     0.8833   0.9195   0.9342   0.9524   1.0015   1.0438   1.0743   1.1012
     1.1921   1.2584   1.2962   1.3172   1.3874   1.4030   1.4219   1.4858
     1.5282   1.5570   1.5954   1.6173   1.6844   1.7131   1.7426   1.7537
     1.7705   1.7761   1.8257   1.8752   1.8917   1.9131   1.9422   1.9489
     1.9557   1.9637   2.0421   2.1268   2.1277   2.1528   2.1804   2.1904
     2.2333   2.2509   2.3675   2.4773   2.5768   2.6063   3.0765   3.3351
     3.3479   3.4827   3.6517   3.7438   3.7647   3.7876   4.0926   4.3264
     4.3631   4.4561   4.7951   4.8744   4.9332   4.9856   5.0447   5.0972
     5.2422   5.3266   5.5404   5.7422   5.8466   5.9167   6.2601   6.4333

     the Fermi energy is     1.9649 ev

!    total energy              =  -27812.23321356 Ry

     total all-electron energy =  -1326872.290922 Ry
     estimated scf accuracy    <       0.00000098 Ry
     smearing contrib. (-TS)   =       0.00154267 Ry
     internal energy E=F+TS    =  -27812.23475622 Ry

     The total energy is F=E-TS. E is the sum of the following terms:
     one-electron contribution =  -26709.91052022 Ry
     hartree contribution      =   13658.91489581 Ry
     xc contribution           =    -904.93787433 Ry
     ewald contribution        =   11637.35648341 Ry
     one-center paw contrib.   =  -25493.65774089 Ry

     convergence has been achieved in  19 iterations

     negative rho (up, down):  1.226E-02 0.000E+00

     Forces acting on atoms (cartesian axes, Ry/au):

     atom    1 type  1   force =     0.00110586    0.00032891   -0.00829413
     atom    2 type  1   force =    -0.00177132    0.00070693   -0.00344090
     atom    3 type  1   force =     0.00067431    0.00036164   -0.00256817
     atom    4 type  1   force =     0.00070435   -0.00054810   -0.00848776
     atom    5 type  1   force =    -0.00115444    0.00054358   -0.00349436
     atom    6 type  1   force =     0.00141375   -0.00050979   -0.00320829
     atom    7 type  1   force =    -0.00028141   -0.00088450   -0.00320643
     atom    8 type  1   force =    -0.00056340    0.00109740   -0.00319376
     atom    9 type  1   force =     0.00031980   -0.00059601   -0.00305082
     atom   10 type  1   force =    -0.00003023   -0.00010109   -0.00204135
     atom   11 type  1   force =     0.00058189    0.00200453    0.00806864
     atom   12 type  1   force =    -0.00092491    0.00066584   -0.00125190
     atom   13 type  1   force =     0.00279466   -0.00034564    0.00567446
     atom   14 type  1   force =    -0.00155006   -0.00013208    0.01399505
     atom   15 type  1   force =    -0.00109641    0.00006298    0.00009009
     atom   16 type  1   force =     0.00224964   -0.00107937    0.00395915
     atom   17 type  1   force =    -0.00191263   -0.00069542    0.00720389
     atom   18 type  1   force =    -0.00039871    0.00007730   -0.00048211
     atom   19 type  1   force =     0.00018629    0.00003517    0.00025737
     atom   20 type  1   force =     0.00006676   -0.00014554    0.00061248
     atom   21 type  1   force =    -0.00011645   -0.00013655    0.00052895
     atom   22 type  1   force =    -0.00020228   -0.00002023    0.00034673
     atom   23 type  1   force =     0.00002004   -0.00027264    0.00047350
     atom   24 type  1   force =     0.00034150   -0.00007859    0.00032080
     atom   25 type  1   force =    -0.00015480    0.00004552    0.00022085
     atom   26 type  1   force =     0.00001144    0.00010208    0.00017831
     atom   27 type  1   force =     0.00033106    0.00003602    0.00030002
     atom   28 type  1   force =     0.00006670    0.00000928    0.00016142
     atom   29 type  1   force =     0.00030784    0.00025171    0.00029185
     atom   30 type  1   force =     0.00021515   -0.00022140    0.00045188
     atom   31 type  1   force =     0.00008195    0.00001818    0.00024443
     atom   32 type  1   force =    -0.00025589   -0.00066091    0.00014685
     atom   33 type  1   force =     0.00036637   -0.00024869    0.00024695
     atom   34 type  1   force =    -0.00006415   -0.00006304    0.00002906
     atom   35 type  1   force =     0.00007032    0.00001706    0.00073077
     atom   36 type  1   force =     0.00031128   -0.00003976    0.00043516
     atom   37 type  2   force =    -0.00417376   -0.00622343    0.00788421
     atom   38 type  2   force =    -0.00027891    0.00191999   -0.00154349
     atom   39 type  2   force =    -0.00003020    0.00008950   -0.00223169
     atom   40 type  3   force =     0.00273903    0.00462916   -0.00635773

     Total force =     0.014243     Total SCF correction =     0.001423

     negative rho (up, down):  1.226E-02 0.000E+00

     negative rho (up, down):  1.226E-02 0.000E+00

     negative rho (up, down):  1.226E-02 0.000E+00

     negative rho (up, down):  1.226E-02 0.000E+00

     negative rho (up, down):  1.226E-02 0.000E+00

     negative rho (up, down):  1.226E-02 0.000E+00

     negative rho (up, down):  1.226E-02 0.000E+00

     negative rho (up, down):  1.226E-02 0.000E+00

     negative rho (up, down):  1.226E-02 0.000E+00

     negative rho (up, down):  1.226E-02 0.000E+00

     negative rho (up, down):  1.226E-02 0.000E+00

     negative rho (up, down):  1.226E-02 0.000E+00

     negative rho (up, down):  1.226E-02 0.000E+00

     negative rho (up, down):  1.226E-02 0.000E+00

     negative rho (up, down):  1.226E-02 0.000E+00

     negative rho (up, down):  1.226E-02 0.000E+00

     negative rho (up, down):  1.226E-02 0.000E+00

     negative rho (up, down):  1.226E-02 0.000E+00

     negative rho (up, down):  1.226E-02 0.000E+00

     negative rho (up, down):  1.226E-02 0.000E+00

     negative rho (up, down):  1.226E-02 0.000E+00

     negative rho (up, down):  1.226E-02 0.000E+00

     negative rho (up, down):  1.226E-02 0.000E+00

     negative rho (up, down):  1.226E-02 0.000E+00

     negative rho (up, down):  1.226E-02 0.000E+00

     negative rho (up, down):  1.226E-02 0.000E+00

     negative rho (up, down):  1.226E-02 0.000E+00

     negative rho (up, down):  1.226E-02 0.000E+00

     negative rho (up, down):  1.226E-02 0.000E+00

     negative rho (up, down):  1.226E-02 0.000E+00

     negative rho (up, down):  1.226E-02 0.000E+00

     negative rho (up, down):  1.226E-02 0.000E+00

     negative rho (up, down):  1.226E-02 0.000E+00

     negative rho (up, down):  1.226E-02 0.000E+00
 BEEFens 2000 ensemble energies
             -0.605744124654493E+02
             -0.361119353503858E+01
             -0.158098425573257E+02
              0.428512486700246E+02
             -0.220720932971080E+02
             -0.204973986797293E+02
             -0.351504586471565E+02
             -0.863262735903680E+02
             -0.464410105512706E+02
             -0.471872108909741E+02
             -0.368708904139921E+02
              0.227627667623000E+01
              0.407761576611705E+01
              0.760838991923876E+01
              0.264870804805858E+01
              0.474133351650221E+02
             -0.208352385893627E+02
             -0.229966118658996E+02
              0.192738968521360E+02
             -0.112190078757966E+03
              0.535364531112295E+02
             -0.289392437563511E+02
             -0.332269680271182E+01
             -0.113836656742517E+02
             -0.883940575051372E+01
             -0.463257479303465E+01
              0.881171297047583E+02
             -0.186821995862655E+02
             -0.898835407541605E+01
             -0.517617507688738E+02
              0.814206617539096E+02
             -0.187081864884906E+02
             -0.374252806649769E+02
              0.248891129606628E+02
             -0.283156508289909E+01
              0.163715258074711E+02
             -0.485063643671180E+01
              0.107978649250154E+02
              0.287828253856362E+02
             -0.103088913869361E+03
              0.557322476439311E+02
              0.142239948743989E+02
             -0.170839347363437E+01
             -0.360984011142681E+02
              0.122989476337391E+02
             -0.146369100936994E+02
              0.397567276301593E+02
              0.364218481227801E+02
             -0.307630304623666E+02
             -0.274652787920378E+02
             -0.327923205614554E+02
             -0.351537450461814E+02
              0.136057605015183E+02
             -0.489944493289897E+02
              0.115289205520050E+02
              0.622128358824010E+02
              0.634147023888182E+02
              0.355166825684232E+02
              0.153767057971939E+02
              0.269999882202186E+02
              0.889827930672980E+02
              0.212253616738673E+02
             -0.547504331599824E+02
             -0.156878493309036E+02
             -0.235396946424398E+02
              0.628740314398560E+02
             -0.771984985001439E+02
             -0.670666837617218E+02
             -0.258884801593025E+02
             -0.645526273919495E+01
             -0.470161820924778E+02
              0.270218604711016E+02
              0.798878034504719E+01
              0.865796322485392E+01
             -0.396500431822903E+02
             -0.346193260058518E+02
             -0.540943851561323E+02
              0.389635612208097E+02
             -0.295380835426849E+02
              0.264729706886708E+02
             -0.714726758449067E+01
             -0.317442024723231E+02
             -0.575191402546803E+02
             -0.176413916592682E+02
             -0.903181828512766E+01
             -0.124388517845013E+02
              0.411482148964108E+02
              0.681517596472900E+02
             -0.384918757256210E+02
             -0.793186336358633E+02
             -0.219305190232137E+02
              0.111301980836532E+03
             -0.591381184433232E+02
              0.355585101903831E+02
             -0.956359900797406E+01
             -0.662072679291288E+02
              0.253940971499917E+02
              0.397471676029337E+02
             -0.198567589215781E+02
              0.399745914413613E+02
             -0.295517905140898E+02
             -0.477230272102391E+02
              0.864231408301605E+02
              0.453218576347525E+02
              0.335878206493294E+02
              0.146297312643673E+02
              0.205397605926606E+02
              0.855081019018826E+02
             -0.256244235091952E+02
              0.786998569308966E+01
             -0.142157387968164E+03
              0.180698055169125E+02
             -0.715030252416008E+02
              0.150664191700542E+02
              0.204220278324202E+02
             -0.332319931672639E+02
             -0.556210836732967E+02
              0.652800996278927E+01
             -0.303661781256371E+02
              0.307259737985478E+02
             -0.529070650123015E+02
              0.171639208133035E+01
             -0.356328114345306E+02
             -0.423426302180536E+01
             -0.102712402028985E+01
              0.180903699969606E+02
              0.142573914476725E+01
             -0.650105967377056E+01
              0.589259776364741E+02
              0.906603825266554E+02
              0.483317735229169E+02
              0.828977256191131E+02
             -0.114802418582964E+02
              0.142872807382785E+02
              0.540035596107249E+02
             -0.110707310953124E+02
             -0.734292456543208E+02
             -0.383281821567964E+02
             -0.520849326958846E+02
             -0.276123501285396E+02
              0.326824317451624E+02
             -0.116575921138770E+03
             -0.186917071006673E+02
              0.413321718964688E+02
             -0.385551052572026E+02
             -0.364724376089114E+02
              0.543329053653081E+02
              0.399899549175805E+02
             -0.353374891441961E+02
              0.137377349642118E+02
             -0.272698710760975E+02
              0.342422417462358E+02
              0.444098280423100E+01
              0.210884436925326E+02
             -0.883168834645970E+02
             -0.479292173946078E+02
             -0.992727750362087E+01
              0.323388918619811E+01
             -0.366014228006743E+02
              0.105838893500382E+03
             -0.230571857182910E+02
             -0.398071542154491E+02
              0.388045495846275E+02
             -0.493391142640151E+02
             -0.362755911590076E+02
              0.324419230973706E+02
              0.124390215319495E+02
              0.164450356773385E+02
              0.116407568131133E+02
             -0.132656313407412E+02
              0.224888453661612E+02
              0.589142186576256E+02
             -0.311026017257580E+02
              0.162230235939498E+02
              0.932797813567557E+02
              0.340174305419956E+02
             -0.727958715452360E+01
             -0.188279649818301E+02
              0.153076654632608E+03
             -0.163759197931614E+02
              0.362581565616020E+02
              0.193992019382856E+02
              0.360999106081277E+02
              0.890355858196132E+02
              0.542100518780373E+02
             -0.239429331787707E+01
              0.227361672509895E+02
              0.483994739023876E+02
              0.362692276152645E+02
             -0.524435117491189E+02
              0.934352483187668E+02
             -0.823958411459560E+02
             -0.197721649374515E+02
              0.581798258024188E+02
              0.675185255264342E+01
              0.790461635018346E+01
              0.340243674218559E+02
              0.298814643755205E+02
              0.352974556994241E+02
             -0.636542868213459E+02
              0.287007633315557E+01
             -0.297142083327320E+02
             -0.869063078737643E+01
             -0.146411896299981E+01
             -0.720831761599934E+01
             -0.413651926406061E+01
              0.857765757119454E+02
             -0.101026772754760E+02
             -0.275728790507320E+02
             -0.495789912854546E+01
              0.139758520206496E+02
             -0.562899668665820E+02
             -0.406479593403130E+02
             -0.381522481365498E+02
             -0.629082147646145E+02
             -0.169391351644895E+02
             -0.446753943921231E+02
              0.162978678284060E+02
             -0.238820902502614E+01
             -0.104194478797749E+02
             -0.932312103226377E+01
              0.806381469090269E+01
             -0.242318978822070E+02
              0.688212046929412E+02
             -0.805670457180894E+02
             -0.140851643966567E+02
             -0.173732293441728E+02
              0.181627075237848E+02
              0.214218523418645E+02
             -0.462980082143458E+02
             -0.201654415533374E+02
              0.440056907817025E+02
             -0.275639549052979E+02
              0.186716642861354E+02
              0.382096914080098E+02
             -0.322286820650731E+01
              0.113927007659450E+03
             -0.229750167024721E+02
             -0.340291234204955E+02
              0.577260508603587E+01
             -0.227718832718973E+02
              0.526748986071582E+02
             -0.336574462584147E+02
              0.106414040833572E+02
              0.639520644048590E+02
             -0.125955695413089E+02
              0.120013944212470E+03
              0.125631514038867E+03
             -0.648506712158714E+02
              0.589551350865962E+02
              0.166294726480481E+02
             -0.516819096047620E+02
              0.215787832680497E+02
              0.353248762888451E+02
              0.361989511114921E+02
              0.133880845150705E+01
              0.159542979545228E+02
              0.694432358287817E+02
             -0.246579866996217E+02
              0.181106369003533E+02
              0.737656867529716E+02
             -0.371899343805321E+02
             -0.129358497781441E+02
              0.507595032862172E+02
              0.296847953722868E+02
              0.778990948752950E+02
              0.222254513136069E+02
              0.623379399748904E+01
              0.280033836546095E+02
              0.382523179390321E+02
             -0.470968038122102E+02
              0.331586932302048E+01
              0.129511871555699E+02
              0.113501015226265E+02
              0.220148980389839E+02
             -0.573747597117444E+02
              0.365451714955965E+02
             -0.443084894499576E+02
             -0.346845394299211E+02
              0.177770317296955E+02
             -0.181174184234130E+02
              0.554100452392626E+02
             -0.255550345878802E+02
              0.266315535914414E+02
              0.367819771207817E+02
              0.827731071752530E+02
              0.573621393269563E+02
              0.460766459688682E+02
             -0.105315217798568E+02
             -0.390357099365502E+01
             -0.331462462941276E+02
              0.749299120313052E+02
              0.795709209183952E+02
              0.361227342068808E+02
             -0.191557645262134E+02
              0.510961185774819E+02
             -0.162607894202413E+02
              0.214319051072256E+02
              0.613338115725314E+02
              0.214197377869846E+01
             -0.104143716065545E+02
             -0.282451354709671E+02
             -0.510634970598924E+02
              0.943556080040717E+02
              0.438992269302100E+02
             -0.557990927150472E+02
             -0.959967001912307E+01
              0.249428223965421E+02
             -0.993804944286723E+01
              0.591010068091831E+02
              0.151874679880245E+02
              0.797900323987629E+02
              0.279160059205040E+02
             -0.263446044961737E+02
              0.248531669144449E+02
             -0.501593592988331E+01
             -0.323107995098960E+02
              0.132936894398449E+02
              0.205309117929681E+02
              0.931322897139395E+02
              0.796015058997041E+02
              0.550051206326820E+02
              0.729457129814539E+02
              0.799323416500340E+01
             -0.273135960065634E+02
              0.162933519819948E+02
             -0.367404720390929E+02
             -0.475373718367412E+02
             -0.562472589416210E+02
             -0.266132219243187E+02
             -0.109507554856433E+03
             -0.290886704990825E+02
             -0.835733630200781E+02
              0.209787759002294E+02
             -0.476183433112386E+02
              0.396156620865369E+02
             -0.939769940021918E+02
             -0.329499310286448E+02
              0.547616309228011E+02
              0.207276716219918E+02
             -0.829167820521461E+02
              0.629984543033773E+02
             -0.256262170546436E+02
              0.511552856520676E+02
             -0.242031691138531E+02
             -0.749897517172259E+02
              0.111776892809733E+02
             -0.610266597946589E+02
             -0.167879627952453E+02
             -0.149380972557292E+01
              0.417462227636048E+02
              0.126792528243898E+03
             -0.460884560026388E+02
             -0.361981765419635E+02
             -0.979991754805155E+00
             -0.130013984787795E+02
             -0.821160191607120E+02
             -0.595729041243303E+02
              0.516208741891564E+02
             -0.288509488540317E+02
              0.169037093155988E+02
             -0.488607942375975E+02
             -0.131771871575555E+02
             -0.436568097762540E+02
              0.564684802357661E+02
              0.150665663832435E+02
             -0.231203177064205E+02
             -0.126786102780497E+02
              0.665900847195891E+01
             -0.617879175211323E+01
              0.440871943181710E+02
             -0.251600218607650E+02
              0.276517818910372E+01
              0.338690391034755E+02
              0.170998164175709E+02
             -0.159472719217275E+02
              0.155995147439222E+03
              0.537059444723824E+02
              0.115497987791802E+01
              0.161630218138991E+02
             -0.613688310699159E+02
              0.314576356134809E+02
             -0.720530963622513E+02
             -0.251638332157508E+02
             -0.521586580572806E+02
             -0.219770108042097E+02
              0.568178430770811E+02
             -0.536010938054875E+02
              0.160617649941268E+02
             -0.407645732353615E+01
              0.387344733474896E+01
             -0.433263926149475E+02
             -0.477608282709580E+02
             -0.401385261946655E+01
             -0.424141766436077E+02
             -0.216667297575304E+02
             -0.437809231928397E+02
             -0.119158081554031E+02
             -0.358402663046643E+02
             -0.515593441989629E+02
              0.212246050143810E+02
             -0.208971713671348E+02
              0.187589662915751E+02
              0.972147329632157E+01
             -0.736764940242872E+02
             -0.547134933068011E+02
             -0.397470926091912E+02
              0.353508925116712E+02
              0.270762923257479E+01
             -0.625562713842974E+02
              0.584703749817393E+02
             -0.400306884309537E+02
              0.543916418673479E+02
             -0.289080270270669E+02
             -0.445173202026776E+02
              0.297999670058772E+02
             -0.656458883822109E+02
             -0.379132204652442E+02
              0.671570742062306E+02
              0.203569551579612E+02
             -0.359504675536595E+02
              0.488494291393340E+02
             -0.173706589570156E+02
             -0.322170173950342E+02
             -0.301220980175591E+02
             -0.499781331355475E+02
              0.249099519345287E+02
             -0.931460380157237E+02
             -0.838733455490037E+02
             -0.733164191039180E+01
             -0.306346410883007E+02
             -0.574687057034732E+02
              0.720659471723270E+02
              0.131304601866066E+03
             -0.360312943633822E+02
             -0.255890708238474E+01
             -0.635878381058564E+02
              0.649504211159843E+02
              0.170399368314585E+02
             -0.181419523877022E+02
             -0.409314712002290E+02
              0.148407128327947E+02
             -0.585046300181017E+02
             -0.197446945853318E+02
             -0.903116780591129E+02
              0.336443942831154E+02
              0.168651261274071E+02
              0.184177579577852E+01
             -0.705305525036567E+01
             -0.329087995583409E+02
             -0.756935709377171E+01
              0.125289477318464E+03
             -0.198796611149576E+02
             -0.436581648513801E+02
             -0.682876832887013E+02
              0.108979040942701E+02
             -0.341560597409752E+02
              0.590087777718733E+01
              0.260957767814040E+02
              0.102055091931676E+02
              0.277292447232384E+02
              0.119621323588268E+02
              0.628564840312068E+02
              0.316197755995298E+02
             -0.325965571043158E+02
              0.354898643313918E+02
              0.378928403279149E+02
              0.120722411980890E+02
              0.486228821466353E+02
             -0.224418745230639E+02
              0.764611757175392E+02
              0.172186231495632E+02
             -0.271674229695023E+02
             -0.721225639271835E+01
             -0.186030123735264E+02
              0.261493102946428E+02
             -0.233952517178681E+02
             -0.124404336472452E+00
             -0.847306088334199E+01
              0.808353598570334E+02
              0.499131926485393E+02
             -0.685913743577051E+02
             -0.476284545323369E+01
             -0.554569488282619E+02
             -0.159297209137075E+02
             -0.267872082839334E+02
              0.374324522152642E+01
              0.594853177535370E+00
             -0.257161864150521E+02
              0.813858489063136E+01
             -0.601836704198379E+01
             -0.128344277657472E+02
              0.857580399523233E+02
              0.181434262039326E+02
             -0.805560863971474E+02
             -0.457485242752075E+02
              0.943420513967311E+02
              0.277388392338675E+02
             -0.106741631446504E+02
              0.104364390029473E+03
             -0.194507593408233E+02
             -0.122884472386179E+02
             -0.537704274765179E+01
              0.107177096920647E+02
              0.271944776033630E+02
              0.780336740216475E+01
              0.304935915068673E+02
             -0.187681251142320E+02
             -0.303211407803583E+02
             -0.417084067657840E+02
             -0.475973551151616E+02
              0.463131363474677E+02
              0.126617735028657E+02
              0.386932276866128E+02
              0.133164545430258E+02
              0.854171694745942E+02
              0.156253778142815E+02
             -0.844750517325386E+02
             -0.333921859832071E+02
              0.133563065241261E+02
             -0.302431612893105E+02
              0.625564465952273E+02
             -0.883508675696498E+01
              0.148521175780646E+02
              0.496450335377683E+02
             -0.706001322554225E+02
              0.149494856594102E+03
              0.208395897621069E+02
              0.271005106714060E+02
              0.346989244596656E+02
              0.103564391027901E+02
             -0.156195371699903E+01
              0.357937535211943E+02
             -0.356510234682952E+02
              0.771855089169693E+02
              0.683612696418778E+02
             -0.405356796606302E+02
              0.149154029772134E+02
              0.669005164158900E+02
             -0.223568378750294E+02
              0.154112892351029E+02
              0.434395111528958E+02
              0.421461811493590E+02
             -0.783448304358603E+02
             -0.152422240596827E+02
             -0.355541233414735E+02
             -0.146466295954133E+01
             -0.765596733700858E+01
             -0.544966746101386E+01
             -0.180283409700431E+02
             -0.293315688071480E+02
              0.632645551849380E+01
              0.111463866990580E+02
              0.534725087585586E+02
             -0.389580936283041E+02
              0.373780620097245E+02
              0.437697019684153E+02
             -0.186316284172887E+02
              0.870777009237303E+02
             -0.696776914419744E+02
             -0.103003981644079E+03
             -0.659245152354560E+01
             -0.267379443330844E+01
              0.384647979803367E+01
              0.788218605600077E+02
             -0.106925859065517E+02
              0.416043201574383E+02
              0.442853972836846E+02
              0.384677661530767E+02
             -0.995520738748212E+01
              0.626522665576833E+02
             -0.133351827889090E+02
             -0.306867941648893E+02
             -0.478537430331173E+02
              0.588716324077633E+01
              0.368885064210049E+02
             -0.600807218378441E+01
              0.392385272004707E+02
             -0.174909421017941E+01
              0.654239863944149E+02
              0.186994737106992E+02
              0.997453268014470E+01
             -0.121659950915869E+02
              0.331621277072121E+02
              0.361980197102702E+02
              0.232351083466304E+02
             -0.514920669700103E+00
             -0.549752388227008E+02
              0.260240463979699E+02
              0.174859779393847E+02
              0.401989056642053E+02
              0.271643427136546E+02
              0.371979457764970E+02
             -0.605154326729098E+01
              0.250601618460306E+02
             -0.298144875281871E+02
             -0.196330258151727E+01
             -0.568292443076605E+02
             -0.307425000325219E+02
              0.378119511170147E+02
             -0.934074408377232E+02
              0.293897775819653E+02
              0.183744614169594E+02
              0.838705268741726E+02
             -0.300058196701825E+02
              0.328929264573762E+02
             -0.137490088357022E+02
             -0.463217470859589E+02
             -0.760434017084256E+02
             -0.524670893697140E+01
             -0.858387704153588E+02
              0.199438912565380E+02
             -0.247004488755014E+02
              0.305309106359815E+02
              0.236625140196882E+02
             -0.240693769199171E+02
             -0.264926709166489E+02
              0.390316393549961E+02
             -0.587408641315954E+02
             -0.116388978154303E+02
             -0.195783503909107E+02
              0.212466293904870E+02
             -0.889651534634663E+01
              0.360846686049169E+01
             -0.200298763420685E+02
              0.557825132848654E+02
             -0.438818814024293E+02
              0.784245425748043E+01
              0.584304508273339E+02
             -0.322871162906061E+02
              0.359914419212072E+01
             -0.880160883292990E+01
             -0.668162493126041E+02
             -0.481701163641551E+02
             -0.859486153330909E+01
              0.240334055166493E+02
              0.301894570215119E+02
              0.858142029295999E+01
             -0.414521753180429E+01
              0.151518942003817E+02
             -0.439216505672250E+02
              0.332405082543431E+01
             -0.530307971372756E+02
             -0.324382520750334E+02
              0.473915812265918E+02
             -0.294656246311783E+02
              0.621379396786568E+02
             -0.214387255319228E+02
              0.353088128319657E+02
              0.241266049438530E+02
             -0.643095966689664E+02
             -0.279905473949240E+02
              0.932369066864857E+01
             -0.371190046439515E+02
             -0.339060177814937E+02
             -0.828686694994194E+02
             -0.538339828983893E+02
             -0.509548426539774E+02
             -0.414900660261686E+02
             -0.994948392111922E+00
              0.993611332559894E+01
              0.103361778718829E+01
              0.152976904569031E+02
             -0.548387293695546E+02
              0.141595064431506E+02
              0.256359752106555E+02
             -0.665752617007918E+02
             -0.700964529218720E+02
             -0.430711905121336E+02
             -0.171602923953649E+02
              0.178104941273066E+02
              0.454394285392209E+01
             -0.425319450614334E+02
              0.365572186730790E+02
             -0.216005387126751E+02
              0.516634755727826E+02
             -0.885839780536849E+02
              0.596783607765409E+02
             -0.212967592114886E+01
             -0.367758689183806E+02
             -0.215972791764060E+02
              0.471299467659833E+01
              0.374073156722640E+02
             -0.755084941482416E+02
             -0.120549366647877E+02
             -0.216345315846299E+02
              0.510218081810464E+02
              0.863515790668129E+02
             -0.963658775538462E+02
              0.942574109764121E+02
              0.467042833172388E+02
             -0.724286117726462E+02
             -0.365927015700227E+02
              0.750806286474713E+02
              0.631083632331497E+02
             -0.180781486975529E+02
             -0.463667981052487E+01
              0.730890281364907E+01
              0.648054463040390E+02
             -0.507604598877237E+02
              0.158019547838214E+02
             -0.471755262674635E+01
              0.347184196996523E+02
             -0.745746584238018E+02
             -0.646375290091664E+01
             -0.350480781619851E+02
              0.459993260781774E+02
              0.468157538865888E+02
             -0.860439930344978E+02
             -0.486162073330232E+02
             -0.255858788714603E+02
             -0.338938143593973E+02
             -0.109023425461284E+02
             -0.242435230733992E+02
              0.426714745166810E+02
              0.400474757937154E+02
             -0.562510334930244E+01
             -0.415667529971739E+02
             -0.849132890383597E+02
              0.442585401690425E+02
             -0.522438730938811E+02
             -0.312689500742755E+02
              0.545589713287305E+01
             -0.322025322317049E+02
             -0.397218124704402E+02
             -0.239748542287760E+02
             -0.384774235515760E+02
             -0.270402154921633E+02
             -0.481829740014462E+02
              0.562863579231021E+02
              0.637045352020406E+02
             -0.172285931426939E+01
             -0.260798492844254E+02
             -0.625198109160181E+01
              0.440654594158414E+02
             -0.866401671020340E+02
             -0.145859389594862E+02
              0.522832414075282E+02
              0.662684182324126E+02
             -0.244232862868748E+02
              0.912272775609460E+01
              0.522660741795304E+02
              0.197934395478489E+02
             -0.826306998823264E+01
             -0.452585472861883E+02
              0.280113191637500E+02
             -0.351921644711296E+02
             -0.164214276658984E+02
             -0.152753669710998E+02
             -0.199904354288583E+02
              0.194645940018620E+02
              0.799022488581776E+02
              0.188249890924092E+01
              0.533839654598208E+01
             -0.885962912378980E+02
             -0.175485017627798E+02
             -0.351949837556033E+02
              0.273409875627328E+01
             -0.409308533608384E+02
              0.729453704011017E+02
              0.783323610495944E+02
              0.123694141455822E+02
             -0.141300622218822E+02
[...]
              0.283143274693836E+02
              0.141555719626282E+03
              0.241952740307312E+02
              0.122299233221763E+02
             -0.463533843689349E+02
             -0.636461856914920E+02
             -0.188606621256144E+02
              0.329124407632457E+02
             -0.426042649786802E+01
              0.189513377595722E+02
              0.335519925291721E+02
             -0.585354537137723E+02
              0.221926141644885E+02
              0.581160183344049E+02
              0.551882273019572E+02
             -0.418794136329700E+01
             -0.135895765201860E+01
             -0.992750844657272E+01
             -0.481444172516935E+02
             -0.673737474399961E+02
              0.783995997539340E+02
             -0.522181288827863E+01
             -0.586703719783663E+02
              0.171418561096658E+01
             -0.204839848798372E+02
              0.936837409641273E+02
             -0.216139221009830E+02
             -0.352973974517221E+02
              0.334649234105171E+02
             -0.145498529176373E+02
              0.388818401773075E+02
             -0.236347936160183E+01
              0.100901214167148E+03
              0.488881132191057E+02
             -0.510531294718653E+01
             -0.321303059507682E+02
              0.231847729326315E+02
             -0.527452065563428E+02
             -0.127716741704871E+02
              0.584539780583069E+02
             -0.287153513653901E+02
             -0.437527018683229E+02
             -0.222915398400698E+02
              0.517734251918054E+02
              0.124587360619909E+02
             -0.847351184544378E+02
              0.303299576689502E+02
              0.151615145649768E+02
              0.575566880940227E+01
             -0.512578833443093E+02
             -0.378033331288350E+01
              0.322437764816803E+02
              0.511833309932227E+02
              0.631453545917344E+02
              0.228433871324000E+02
              0.755779899614453E+00
             -0.497154381765994E+02
             -0.509188185124841E+02
             -0.746507034719166E+02
             -0.613255237558985E+01
              0.308333427332603E+02
             -0.378280199553132E+01
              0.545829232003972E+02
             -0.317375569824337E+02
              0.166169293666976E+02
             -0.102401173236777E+02
             -0.289014685748689E+02
              0.584606610925767E+02
              0.791213449470649E+01
              0.603108297007615E+02
              0.508039140360415E+01
              0.264479274237536E+02
             -0.192449473847494E+02
              0.585027408596133E+02
             -0.111284148526055E+02
             -0.123270438085937E+00
             -0.788690408365212E+02
             -0.128134896850912E+02
              0.717759712984426E+02
              0.671851354229084E+02
              0.251426514232763E+02
             -0.130270059478469E+02
              0.343861005644141E+01
             -0.173220680571682E+02
             -0.206144309118221E+01
              0.906191472334000E+02
              0.125042652630157E+01
             -0.189969566507716E+02
             -0.110542121353066E+03
             -0.551579762334755E+02
             -0.374306150473236E+02
             -0.657332205143591E+02
             -0.554382488848374E+02
             -0.681251431222167E+02
             -0.446186449696521E+02
             -0.410107603988486E+02
             -0.451161921532280E+02
              0.482630876492883E+02
             -0.293642293631866E+02
             -0.993523536448762E+02
              0.418045934310200E+02
             -0.259361092301526E+02
             -0.789386414790284E+02
              0.942043401460990E+02
             -0.219291999700257E+02
              0.227675121042599E+02
              0.454320151367281E+02
             -0.134478793993992E+01
              0.253976957366665E+02
              0.471244267108057E+01
              0.421189206104224E+00
             -0.150347239201534E+02
             -0.714324503802218E+02
              0.133036992432381E+02
             -0.129141425492510E+03
              0.623006370257099E+02
             -0.439788034579238E+02
             -0.162778515539506E+02
             -0.157921645063418E+02
              0.711271586133793E+01
             -0.227276647526464E+02
              0.296538765029788E+02
             -0.519576924671833E+02
              0.366392938759143E+02
              0.370141474640282E+02
              0.168026359579581E+02
              0.100352465980751E+02
              0.197451165989067E+02
              0.620794694312912E+01
              0.309652166694390E+02
             -0.797017984553352E+01
             -0.591183177458585E+02
              0.755309232138967E+01
             -0.152092961808032E+02
             -0.193098228770339E+01
              0.505329053411250E+02
             -0.825223024951739E+02
             -0.150594054387750E+01
              0.573196772487620E+00
              0.994193843074595E+01
              0.317792619820380E+02
             -0.123256773734009E+02
              0.834188088084622E+02
              0.486859387909902E+02
             -0.182953274987122E+02
             -0.954165890880518E+01
              0.106216846531223E+01
              0.768087834077621E+02
             -0.585248805959109E+02
             -0.105572081864891E+03
              0.308675626494785E+02
             -0.162877269535295E+02
             -0.139257565461681E+02
              0.130196323077919E+02
              0.766977037585626E+02
              0.463254736752651E+02
             -0.153062010685849E+02
             -0.502028635806936E+02
             -0.548111289882726E+01
              0.305815235287236E+02
             -0.111330988567700E+02
             -0.754357253878297E+02
             -0.270319154973294E+01
             -0.888191263222539E+02
             -0.474789898298618E+02
              0.766868794074093E+02
             -0.482599007984928E+02
             -0.635196366049948E+02
             -0.513229519753869E+02
             -0.349053085650778E+02
              0.340334260192104E+02
              0.820067672325584E+02
             -0.355763780287441E+01
              0.275991023423379E+02
             -0.183524259856793E+02
             -0.692667234212460E+02
              0.463957954925510E+02
             -0.444092901510328E+02
              0.321119467801105E+02
              0.375549164508516E+02
             -0.653751263480382E+01
              0.389637312742617E+02
              0.437558300736220E+02
              0.100462122056595E+03
             -0.155674146052140E+02
             -0.455181769654895E+02
             -0.611507205894974E+02
             -0.123712865381635E+02
             -0.232431684431912E+02
              0.102804988954350E+03
             -0.448039256606364E+02
              0.105108281726340E+02
              0.970308616420476E+01
             -0.264083112400328E+02
             -0.797236652721849E+02
             -0.697676469573889E+01
              0.977955322079781E+02
              0.937072952847930E+01
              0.807835399091783E+01
             -0.526063750960753E+02
             -0.604360956120188E+02
             -0.562507037052633E+01
              0.499396969519739E+02
             -0.221435801984506E+02
              0.107766341946081E+03
             -0.434795828713133E+02
              0.146099790119390E+02
             -0.223625060133356E+02
             -0.717173748304805E+02
              0.167107456896252E+01
             -0.500620538891178E+02
             -0.759219236449511E+02
              0.615022515112264E+01
              0.236021537353366E+01
              0.513224081069377E+02
              0.186851454604540E+02
             -0.322858024181666E+02
              0.229504333391938E+02
             -0.809420942039162E+02
             -0.520697812333011E+02
              0.899900006135883E+02
              0.142140520026882E+02
             -0.187757725389378E+02
             -0.351800576719071E+02
             -0.269434363626669E+01
             -0.586392553411315E+01
              0.828477413311409E+02
              0.416869467068275E+02
             -0.165790083420743E+02
             -0.121717241087235E+02
             -0.426851056666786E+02
             -0.200255344767271E+02
             -0.668679975532148E+02
              0.458623340316806E+02
              0.544929883195712E+01
              0.144585523775607E+02
              0.155880955067178E+02
             -0.553737342283373E+00
             -0.168099185318815E+02
             -0.306946109786195E+01
             -0.100233363145296E+03
             -0.229395747590738E+02
             -0.763376987115748E+01
             -0.946379737069134E+01
              0.545246727432085E+02
              0.622616141569251E+02
              0.164579325449553E+02
             -0.968759320253218E+02
              0.646233810435760E+02
             -0.214524047564816E+02
             -0.376252415389424E+02
             -0.862482062692125E+02
             -0.386172966454554E+02
              0.563448869223188E+02
              0.243621277273929E+02
              0.510417511975231E+01
              0.291708860552926E+02
             -0.563901672248041E+02
             -0.421511224561226E+02
              0.514067667704018E+02
              0.386405620748033E+02
              0.517842959981155E+02
             -0.121885551036405E+01
              0.682651486512572E+01
              0.568439145487148E+02
              0.960690878995333E+02
             -0.299632362465547E+02
              0.322077406963633E+02
             -0.118390036894866E+02
             -0.411334929857258E+02
             -0.313602025925949E+02
             -0.299654334517404E+02
             -0.131104065633803E+02
             -0.522372686252000E+02
             -0.216705445307389E+02
             -0.140892461701047E+03
              0.368229397097573E+02
              0.206336418708314E+02
             -0.393915859554153E+01
             -0.379171241550736E+02
             -0.203720419898535E+02
             -0.525784832782065E+02
              0.150902388445735E+02
              0.818385743780258E+02
             -0.251932629980518E+02
             -0.162586999163357E+02
              0.237620096824104E+02
             -0.488421403269150E+02
              0.878664260019388E+02
              0.154000966975276E+02
              0.226049752677339E+02
              0.489134085917383E+02
              0.320651840728749E+01
              0.540969567330367E+02
              0.142717387197864E+02
             -0.106219601668103E+02
              0.728900541185953E+01
              0.801895612083626E+00
              0.725734901807202E+02
              0.100886077028345E+02
              0.120188138838540E+02
             -0.129881642135891E+02
              0.132177630280669E+02
             -0.909384484092014E+02
             -0.325002703979573E+02
             -0.456550708878555E+02
              0.484112233847314E+02
             -0.290499608270013E+02
             -0.657208294415220E+02
              0.537223819895348E+02
             -0.121769748187569E+02
              0.439032607742024E+02
             -0.896873871747674E+02
              0.231332544820288E+02
              0.855963604510126E+01
              0.581796697318805E+01
             -0.831421343015847E+01
             -0.902208951308842E+01
              0.478530660171813E+02
              0.200067476521849E+01
             -0.474110438467178E+02
             -0.175746808247187E+02
              0.276138375692730E+02
             -0.117682160110618E+03
             -0.927765049472391E+02
              0.396292713409684E+01
              0.117448679609061E+02
             -0.412260441977364E+02
             -0.387693982951430E+01
              0.111891308286434E+03
              0.305748956940384E+02
             -0.570387444183167E+02
              0.923893673407730E+01
             -0.963207980519491E+01
              0.105387982326284E+02
             -0.336936397617491E+02
              0.195058326275606E+02
              0.284047778092119E+02
             -0.298365503274664E+01
              0.107954211090456E+03
             -0.140032059126693E+02
             -0.315351616270360E+02
              0.142599361718983E+02
              0.465771168497110E+02
             -0.355059296913434E+02
             -0.317081112896638E+01
              0.962824907024205E+02
             -0.465247547224169E+01
              0.620587620413835E+02
              0.135089124728995E+02
             -0.899980556756798E+01
             -0.304851542789695E+02
              0.565438148090659E+02
             -0.513159517123236E+02
             -0.220054810343788E+01
             -0.169761387082378E+02
             -0.404290230225659E+02
              0.184583980389058E+02
              0.238762995600694E+02
              0.115868264744488E+02
              0.737578842204925E+00
             -0.383717867076689E+02
              0.215016711204595E+02
             -0.674014081303162E+01
             -0.246055701403680E+02
             -0.210145794140814E+02
              0.202871646781017E+02
             -0.594822855143434E+01
             -0.348436283434533E+02
             -0.106414198287944E+03
              0.102854704603545E+02
              0.248231681281960E+02
             -0.386481389339664E+02
             -0.210514831438635E+02
              0.805343930387104E+02
              0.650284709390883E+01
              0.310081920657217E+02
              0.389612920893580E+01
              0.321241066762583E+02
              0.645882937990740E+01
             -0.372126397471486E+02
             -0.232763354029530E+01
              0.873814712738465E+01
              0.273406652329861E+02
              0.780229419160246E+02
              0.506509574230389E+02
              0.181314359280975E+00
              0.168820419094791E+02
              0.611935011852332E+02
              0.235389441460725E+02
             -0.751312727851326E+02
             -0.273228534693909E+02
              0.150636479906536E+02
              0.560576121200171E+01
              0.254471317506695E+02
             -0.546725504643076E+02
              0.896800406525115E+01
              0.385165766531518E+02
              0.497040642096609E+02
             -0.434045605120542E+02
             -0.688678140109533E+01
             -0.207280451839608E+01
             -0.133536257028265E+02
             -0.364904432987662E+02
             -0.214816964079266E+02
             -0.202387861130568E+01
              0.791545770375365E+01
              0.420536733253347E+02
             -0.307716657557397E+02
              0.824496278252889E+02
              0.326737177602360E+02
              0.219240745795627E+02
              0.332274685354728E+02
              0.322508431276191E+02
              0.345539985100600E+02
              0.536100053913584E+02
             -0.432959763796607E+02
              0.618282098904469E+02
             -0.112042294208937E+03
              0.306814329056682E+02
             -0.106319770065086E+03
              0.853114330075529E+02
              0.689140451543394E+02
             -0.109671598544597E+02
             -0.492309126346984E+02
             -0.428689218274425E+02
             -0.622281128058410E+02
             -0.627434487423429E+02
              0.550660083134986E+02
              0.404617307737310E+02
              0.236350832889217E+02
              0.373145138245654E+02
              0.402462334551096E+02
             -0.381382458388525E+02
             -0.197558031187064E+02
              0.585242693940865E+02
             -0.115729212804534E+02
              0.550736671752021E+02
              0.697933632658230E+02
             -0.553669921179510E+01
             -0.704834467413694E+02
             -0.904727918283356E+00
             -0.247940074598357E+01
             -0.880908098624161E+01
             -0.179543995641006E+01
             -0.651637669461729E+02
             -0.210377464129868E+02
              0.537071787859632E+01
              0.897473016725405E+01
              0.467929061252674E+02
             -0.397061139676016E+02
              0.656154281176294E+02
             -0.424478167399714E+02
              0.209936093642195E+02
              0.349581181350117E+02
 
 BEEF-vdW xc energy contributions
           1 :   -781.470010487345     
           2 :    718.093727403753     
           3 :   -608.202252172488     
           4 :    478.619799243949     
           5 :   -356.788015634859     
           6 :    262.591552851430     
           7 :   -203.774408979460     
           8 :    175.870985791655     
           9 :   -166.217710464536     
          10 :    160.128284778187     
          11 :   -146.700688100621     
          12 :    122.074805681222     
          13 :   -89.3015636022329     
          14 :    55.4360407509330     
          15 :   -27.5349466072028     
          16 :    9.37569238042863     
          17 :  -0.172072360266839     
          18 :   -4.46552529687153     
          19 :    10.0428461366454     
          20 :   -20.4728797954391     
          21 :    36.3845754900444     
          22 :   -55.1217557343700     
          23 :    72.2621438969862     
          24 :   -83.8256989700038     
          25 :    88.0868688923679     
          26 :   -86.1969121036950     
          27 :    81.4279898926343     
          28 :   -77.4940946766811     
          29 :    76.7866890631129     
          30 :   -79.3604679998790     
          31 :   -85.6763457399666     
          32 :   -65.7010263343229     

     Writing output data file ./pwscf.save/
 
     init_run     :    323.01s CPU    327.42s WALL (       1 calls)
     electrons    :  11950.07s CPU  12067.68s WALL (       1 calls)
     forces       :     98.16s CPU     99.34s WALL (       1 calls)

     Called by init_run:
     wfcinit      :    276.23s CPU    279.73s WALL (       1 calls)
     potinit      :     43.96s CPU     44.27s WALL (       1 calls)
     hinit0       :      1.10s CPU      1.13s WALL (       1 calls)

     Called by electrons:
     c_bands      :   9950.66s CPU  10042.33s WALL (      19 calls)
     sum_band     :   1382.01s CPU   1393.25s WALL (      19 calls)
     v_of_rho     :    103.06s CPU    107.10s WALL (      20 calls)
     newd         :     28.94s CPU     39.74s WALL (      20 calls)
     PAW_pot      :    133.84s CPU    133.85s WALL (      20 calls)
     mix_rho      :    396.19s CPU    396.84s WALL (      19 calls)
     vdW_kernel   :     33.46s CPU     33.46s WALL (       1 calls)

     Called by c_bands:
     init_us_2    :     73.13s CPU     73.39s WALL (     520 calls)
     cegterg      :   9202.23s CPU   9293.54s WALL (     247 calls)

     Called by *egterg:
     cdiaghg      :    108.83s CPU    108.87s WALL (    1537 calls)
     h_psi        :   5866.44s CPU   5898.38s WALL (    1550 calls)
     s_psi        :   1010.53s CPU   1010.60s WALL (    1550 calls)
     g_psi        :     15.01s CPU     15.01s WALL (    1290 calls)

     Called by h_psi:
     h_psi:calbec :    952.91s CPU    953.10s WALL (    1550 calls)
     vloc_psi     :   3879.36s CPU   3880.80s WALL (    1550 calls)
     add_vuspsi   :   1010.12s CPU   1010.22s WALL (    1550 calls)

     General routines
     calbec       :   1399.38s CPU   1399.61s WALL (    1849 calls)
     fft          :     47.04s CPU     47.05s WALL (    3219 calls)
     ffts         :    123.20s CPU    123.23s WALL (    9173 calls)
     fftw         :   3950.88s CPU   3951.83s WALL (  315462 calls)
 
     Parallel routines
 
     PWSCF        :      3h27m CPU      3h30m WALL

 
   This run was terminated on:  14: 1: 1   4Jan2023            

=------------------------------------------------------------------------------=
   JOB DONE.
=------------------------------------------------------------------------------=
