
     Program PWSCF v.6.7MaX starts on  3Jan2023 at 22:46:57 

     This program is part of the open-source Quantum ESPRESSO suite
     for quantum simulation of materials; please cite
         "P. Giannozzi et al., J. Phys.:Condens. Matter 21 395502 (2009);
         "P. Giannozzi et al., J. Phys.:Condens. Matter 29 465901 (2017);
          URL http://www.quantum-espresso.org", 
     in publications or presentations arising from this work. More details at
     http://www.quantum-espresso.org/quote

     Parallel version (MPI), running on     1 processors

     MPI processes distributed on     1 nodes
     Reading input from chcch3-bi-ensemble.in
Warning: card &CELL ignored
Warning: card / ignored

     Current dimensions of program PWSCF are:
     Max number of different atomic species (ntypx) = 10
     Max number of k-points (npk) =  40000
     Max angular momentum in pseudopotentials (lmaxx) =  3
     file Pt.pbe-n-kjpaw_psl.1.0.0.UPF: wavefunction(s)  6S 5D renormalized
     file C.pbe-n-kjpaw_psl.1.0.0.UPF: wavefunction(s)  2S 2P renormalized
     file H.pbe-kjpaw_psl.1.0.0.UPF: wavefunction(s)  1S renormalized

     **************************************************************************
     Initializing libbeef V0.1.2 with the BEEF-vdW functional.
     Citation: Wellendorff et al., PRB 85, 235149 (2012).
     **************************************************************************


     IMPORTANT: XC functional enforced from input :
     Exchange-correlation= BEEF-VDW
                           (   1   4  43  14   2   0   0)
     Any further DFT definition will be discarded
     Please, verify this is what you really want


     Subspace diagonalization in iterative solution of the eigenvalue problem:
     a serial algorithm will be used

 
     G-vector sticks info
     --------------------
     sticks:   dense  smooth     PW     G-vecs:    dense   smooth      PW
     Sum        4267    4267   1159               745229   745229  105083
 


     bravais-lattice index     =            0
     lattice parameter (alat)  =      16.0349  a.u.
     unit-cell volume          =   11866.1692 (a.u.)^3
     number of atoms/cell      =           43
     number of atomic types    =            3
     number of electrons       =       376.00
     number of Kohn-Sham states=          226
     kinetic-energy cutoff     =      60.0000  Ry
     charge density cutoff     =     240.0000  Ry
     scf convergence threshold =      1.0E-06
     mixing beta               =       0.7000
     number of iterations used =            8  local-TF  mixing
     Exchange-correlation= BEEF-VDW
                           (   1   4  43  14   2   0   0)

     celldm(1)=  16.034858  celldm(2)=   0.000000  celldm(3)=   0.000000
     celldm(4)=   0.000000  celldm(5)=   0.000000  celldm(6)=   0.000000

     crystal axes: (cart. coord. in units of alat)
               a(1) = (   1.000000   0.000000   0.000000 )  
               a(2) = (   0.500000   0.866025   0.000000 )  
               a(3) = (   0.000000   0.000000   3.323415 )  

     reciprocal axes: (cart. coord. in units 2 pi/alat)
               b(1) = (  1.000000 -0.577350  0.000000 )  
               b(2) = (  0.000000  1.154701  0.000000 )  
               b(3) = (  0.000000  0.000000  0.300895 )  


     PseudoPot. # 1 for Pt read from file:
     /users/bkreitz1/quantum-espresso/potentials/Pt.pbe-n-kjpaw_psl.1.0.0.UPF
     MD5 check sum: 04dc8a03c51ece93fc7b5889c2958091
     Pseudo is Projector augmented-wave + core cor, Zval = 10.0
     Generated using 'atomic' code by A. Dal Corso  v.6.7MaX
     Shape of augmentation charge: PSQ
     Using radial grid of 1277 points,  6 beta functions with: 
                l(1) =   0
                l(2) =   0
                l(3) =   1
                l(4) =   1
                l(5) =   2
                l(6) =   2
     Q(r) pseudized with 0 coefficients 


     PseudoPot. # 2 for C  read from file:
     /users/bkreitz1/quantum-espresso/potentials/C.pbe-n-kjpaw_psl.1.0.0.UPF
     MD5 check sum: a169b0ebad56f5ec0d79c4633f80bf22
     Pseudo is Projector augmented-wave + core cor, Zval =  4.0
     Generated using 'atomic' code by A. Dal Corso  v.6.7MaX
     Shape of augmentation charge: PSQ
     Using radial grid of 1073 points,  4 beta functions with: 
                l(1) =   0
                l(2) =   0
                l(3) =   1
                l(4) =   1
     Q(r) pseudized with 0 coefficients 


     PseudoPot. # 3 for H  read from file:
     /users/bkreitz1/quantum-espresso/potentials/H.pbe-kjpaw_psl.1.0.0.UPF
     MD5 check sum: ae98473e6dc62675f0d0baffdab24f65
     Pseudo is Projector augmented-wave, Zval =  1.0
     Generated using 'atomic' code by A. Dal Corso  v.6.7MaX
     Shape of augmentation charge: PSQ
     Using radial grid of  929 points,  2 beta functions with: 
                l(1) =   0
                l(2) =   0
     Q(r) pseudized with 0 coefficients 


     atomic species   valence    mass     pseudopotential
        Pt            10.00   195.08400     Pt( 1.00)
        C              4.00    12.01100     C ( 1.00)
        H              1.00     1.00800     H ( 1.00)

     No symmetry found



   Cartesian axes

     site n.     atom                  positions (alat units)
         1           Pt  tau(   1) = (   0.0000000   0.0000000   1.0017346  )
         2           Pt  tau(   2) = (   0.3333333   0.0000000   1.0017346  )
         3           Pt  tau(   3) = (   0.6666667   0.0000000   1.0017346  )
         4           Pt  tau(   4) = (   0.1666667   0.2886751   1.0017346  )
         5           Pt  tau(   5) = (   0.5000000   0.2886751   1.0017346  )
         6           Pt  tau(   6) = (   0.8333333   0.2886751   1.0017346  )
         7           Pt  tau(   7) = (   0.3333333   0.5773503   1.0017346  )
         8           Pt  tau(   8) = (   0.6666667   0.5773503   1.0017346  )
         9           Pt  tau(   9) = (   1.0000000   0.5773503   1.0017346  )
        10           Pt  tau(  10) = (   0.1666667   0.0962250   1.2739001  )
        11           Pt  tau(  11) = (   0.5000000   0.0962250   1.2739001  )
        12           Pt  tau(  12) = (   0.8333333   0.0962250   1.2739001  )
        13           Pt  tau(  13) = (   0.3333333   0.3849002   1.2739001  )
        14           Pt  tau(  14) = (   0.6666667   0.3849002   1.2739001  )
        15           Pt  tau(  15) = (   1.0000000   0.3849002   1.2739001  )
        16           Pt  tau(  16) = (   0.5000000   0.6735753   1.2739001  )
        17           Pt  tau(  17) = (   0.8333333   0.6735753   1.2739001  )
        18           Pt  tau(  18) = (   1.1666667   0.6735753   1.2739001  )
        19           Pt  tau(  19) = (  -0.0007903   0.1923423   1.5524740  )
        20           Pt  tau(  20) = (   0.3379902   0.1915228   1.5447237  )
        21           Pt  tau(  21) = (   0.6702413   0.1911343   1.5457064  )
        22           Pt  tau(  22) = (   0.1707678   0.4780440   1.5410581  )
        23           Pt  tau(  23) = (   0.5040569   0.4786477   1.5444659  )
        24           Pt  tau(  24) = (   0.8360908   0.4777773   1.5455589  )
        25           Pt  tau(  25) = (   0.3374335   0.7674537   1.5418814  )
        26           Pt  tau(  26) = (   0.6696152   0.7651831   1.5455476  )
        27           Pt  tau(  27) = (   1.0030497   0.7679427   1.5409137  )
        28           Pt  tau(  28) = (   0.0100042  -0.0071653   1.8197446  )
        29           Pt  tau(  29) = (   0.3419777  -0.0049651   1.8166293  )
        30           Pt  tau(  30) = (   0.6762959  -0.0103145   1.8149170  )
        31           Pt  tau(  31) = (   0.1765810   0.2828352   1.8192268  )
        32           Pt  tau(  32) = (   0.5026454   0.2785220   1.8259442  )
        33           Pt  tau(  33) = (   0.8487390   0.2795540   1.8410133  )
        34           Pt  tau(  34) = (   0.3423719   0.5727437   1.8167007  )
        35           Pt  tau(  35) = (   0.6774405   0.5781548   1.8282208  )
        36           Pt  tau(  36) = (   1.0143488   0.5743761   1.8125013  )
        37           C   tau(  37) = (   0.6529667   0.2988013   2.0082217  )
        38           C   tau(  38) = (   0.7296993   0.4435413   2.0173220  )
        39           C   tau(  39) = (   0.8016965   0.5096246   2.1651219  )
        40           H   tau(  40) = (   0.6450276   0.2174940   2.1073387  )
        41           H   tau(  41) = (   0.9020194   0.5859154   2.1408300  )
        42           H   tau(  42) = (   0.7106583   0.5786782   2.2247693  )
        43           H   tau(  43) = (   0.8376764   0.4136761   2.2432482  )

     number of k points=    13  Marzari-Vanderbilt smearing, width (Ry)=  0.0200
                       cart. coord. in units 2pi/alat
        k(    1) = (   0.0000000   0.0000000   0.0000000), wk =   0.0800000
        k(    2) = (   0.0000000   0.2309401   0.0000000), wk =   0.1600000
        k(    3) = (   0.0000000   0.4618802   0.0000000), wk =   0.1600000
        k(    4) = (   0.2000000  -0.1154701   0.0000000), wk =   0.1600000
        k(    5) = (   0.2000000   0.1154701   0.0000000), wk =   0.1600000
        k(    6) = (   0.2000000   0.3464102   0.0000000), wk =   0.1600000
        k(    7) = (   0.2000000  -0.5773503   0.0000000), wk =   0.1600000
        k(    8) = (   0.2000000  -0.3464102   0.0000000), wk =   0.1600000
        k(    9) = (   0.4000000  -0.2309401   0.0000000), wk =   0.1600000
        k(   10) = (   0.4000000  -0.0000000   0.0000000), wk =   0.1600000
        k(   11) = (   0.4000000   0.2309401   0.0000000), wk =   0.1600000
        k(   12) = (   0.4000000  -0.6928203   0.0000000), wk =   0.1600000
        k(   13) = (   0.4000000  -0.4618802   0.0000000), wk =   0.1600000

     Dense  grid:   745229 G-vectors     FFT dimensions: (  80,  80, 270)

     Estimated max dynamical RAM per process >       9.05 GB

     Check: negative core charge=   -0.000002

     Initial potential from superposition of free atoms

     starting charge  375.99373, renormalised to  376.00000

     negative rho (up, down):  1.209E-02 0.000E+00


     %%%%%%%%%%%%%%%%%%%%%%%%%%%%%%%%%%%%%%%%%%%%%%%%%%%%%%%%%%%%%%%%%%%%%%%%
     %                                                                      %
     % You are using vdW-DF, which was implemented by the Thonhauser group. %
     % Please cite the following two papers that made this development      %
     % possible and the two reviews that describe the various versions:     %
     %                                                                      %
     %   T. Thonhauser et al., PRL 115, 136402 (2015).                      %
     %   T. Thonhauser et al., PRB 76, 125112 (2007).                       %
     %   K. Berland et al., Rep. Prog. Phys. 78, 066501 (2015).             %
     %   D.C. Langreth et al., J. Phys.: Condens. Matter 21, 084203 (2009). %
     %                                                                      %
     %                                                                      %
     % If you are calculating the stress with vdW-DF, please also cite:     %
     %                                                                      %
     %   R. Sabatini et al., J. Phys.: Condens. Matter 24, 424209 (2012).   %
     %                                                                      %
     %%%%%%%%%%%%%%%%%%%%%%%%%%%%%%%%%%%%%%%%%%%%%%%%%%%%%%%%%%%%%%%%%%%%%%%%


     Starting wfcs are  340 randomized atomic wfcs
     Checking if some PAW data can be deallocated... 

     total cpu time spent up to now is      328.0 secs

     Self-consistent Calculation

     iteration #  1     ecut=    60.00 Ry     beta= 0.70
     Davidson diagonalization with overlap
     ethr =  1.00E-02,  avg # of iterations =  2.0

     Threshold (ethr) on eigenvalues was too large:
     Diagonalizing with lowered threshold

     Davidson diagonalization with overlap
     ethr =  8.20E-04,  avg # of iterations =  2.6

     negative rho (up, down):  1.221E-02 0.000E+00

     total cpu time spent up to now is     1571.5 secs

     total energy              =  -27815.83979355 Ry
     estimated scf accuracy    <       3.36376041 Ry

     iteration #  2     ecut=    60.00 Ry     beta= 0.70
     Davidson diagonalization with overlap
     ethr =  8.95E-04,  avg # of iterations =  2.0

     negative rho (up, down):  1.041E-02 0.000E+00

     total cpu time spent up to now is     2142.3 secs

     total energy              =  -27816.02323914 Ry
     estimated scf accuracy    <       1.48698299 Ry

     iteration #  3     ecut=    60.00 Ry     beta= 0.70
     Davidson diagonalization with overlap
     ethr =  3.95E-04,  avg # of iterations =  2.0

     negative rho (up, down):  7.711E-03 0.000E+00

     total cpu time spent up to now is     2715.7 secs

     total energy              =  -27816.07455018 Ry
     estimated scf accuracy    <       0.63362443 Ry

     iteration #  4     ecut=    60.00 Ry     beta= 0.70
     Davidson diagonalization with overlap
     c_bands:  1 eigenvalues not converged
     ethr =  1.69E-04,  avg # of iterations = 11.5

     negative rho (up, down):  5.846E-03 0.000E+00

     total cpu time spent up to now is     3431.1 secs

     total energy              =  -27816.12187654 Ry
     estimated scf accuracy    <       0.23682174 Ry

     iteration #  5     ecut=    60.00 Ry     beta= 0.70
     Davidson diagonalization with overlap
     ethr =  6.30E-05,  avg # of iterations =  6.8

     negative rho (up, down):  4.090E-03 0.000E+00

     total cpu time spent up to now is     4116.1 secs

     total energy              =  -27816.13875900 Ry
     estimated scf accuracy    <       0.05888612 Ry

     iteration #  6     ecut=    60.00 Ry     beta= 0.70
     Davidson diagonalization with overlap
     c_bands:  2 eigenvalues not converged
     c_bands:  2 eigenvalues not converged
     c_bands:  2 eigenvalues not converged
     c_bands:  2 eigenvalues not converged
     ethr =  1.57E-05,  avg # of iterations = 14.3

     negative rho (up, down):  3.272E-03 0.000E+00

     total cpu time spent up to now is     5002.3 secs

     total energy              =  -27816.14877410 Ry
     estimated scf accuracy    <       0.01057913 Ry

     iteration #  7     ecut=    60.00 Ry     beta= 0.70
     Davidson diagonalization with overlap
     c_bands:  3 eigenvalues not converged
     c_bands:  2 eigenvalues not converged
     c_bands:  2 eigenvalues not converged
     ethr =  2.81E-06,  avg # of iterations = 12.5

     negative rho (up, down):  3.034E-03 0.000E+00

     total cpu time spent up to now is     5903.4 secs

     total energy              =  -27816.15128363 Ry
     estimated scf accuracy    <       0.00575757 Ry

     iteration #  8     ecut=    60.00 Ry     beta= 0.70
     Davidson diagonalization with overlap
     c_bands:  1 eigenvalues not converged
     ethr =  1.53E-06,  avg # of iterations = 10.2

     negative rho (up, down):  3.090E-03 0.000E+00

     total cpu time spent up to now is     6547.2 secs

     total energy              =  -27816.15171244 Ry
     estimated scf accuracy    <       0.00322753 Ry

     iteration #  9     ecut=    60.00 Ry     beta= 0.70
     Davidson diagonalization with overlap
     ethr =  8.58E-07,  avg # of iterations =  8.7

     negative rho (up, down):  3.742E-03 0.000E+00

     total cpu time spent up to now is     7178.4 secs

     total energy              =  -27816.15204465 Ry
     estimated scf accuracy    <       0.00130410 Ry

     iteration # 10     ecut=    60.00 Ry     beta= 0.70
     Davidson diagonalization with overlap
     c_bands:  1 eigenvalues not converged
     ethr =  3.47E-07,  avg # of iterations = 10.8

     negative rho (up, down):  4.188E-03 0.000E+00

     total cpu time spent up to now is     7866.7 secs

     total energy              =  -27816.15216735 Ry
     estimated scf accuracy    <       0.00110641 Ry

     iteration # 11     ecut=    60.00 Ry     beta= 0.70
     Davidson diagonalization with overlap
     ethr =  2.94E-07,  avg # of iterations =  1.5

     negative rho (up, down):  6.572E-03 0.000E+00

     total cpu time spent up to now is     8406.6 secs

     total energy              =  -27816.15222502 Ry
     estimated scf accuracy    <       0.00093452 Ry

     iteration # 12     ecut=    60.00 Ry     beta= 0.70
     Davidson diagonalization with overlap
     ethr =  2.49E-07,  avg # of iterations =  7.2

     negative rho (up, down):  8.310E-03 0.000E+00

     total cpu time spent up to now is     9020.7 secs

     total energy              =  -27816.15222864 Ry
     estimated scf accuracy    <       0.00063362 Ry

     iteration # 13     ecut=    60.00 Ry     beta= 0.70
     Davidson diagonalization with overlap
     ethr =  1.69E-07,  avg # of iterations =  1.1

     negative rho (up, down):  1.315E-02 0.000E+00

     total cpu time spent up to now is     9551.2 secs

     total energy              =  -27816.15217184 Ry
     estimated scf accuracy    <       0.00041375 Ry

     iteration # 14     ecut=    60.00 Ry     beta= 0.70
     Davidson diagonalization with overlap
     ethr =  1.10E-07,  avg # of iterations =  3.5

     negative rho (up, down):  1.251E-02 0.000E+00

     total cpu time spent up to now is    10136.5 secs

     total energy              =  -27816.15218330 Ry
     estimated scf accuracy    <       0.00033219 Ry

     iteration # 15     ecut=    60.00 Ry     beta= 0.70
     Davidson diagonalization with overlap
     ethr =  8.83E-08,  avg # of iterations =  1.0

     negative rho (up, down):  1.395E-02 0.000E+00

     total cpu time spent up to now is    10655.8 secs

     total energy              =  -27816.15217596 Ry
     estimated scf accuracy    <       0.00009284 Ry

     iteration # 16     ecut=    60.00 Ry     beta= 0.70
     Davidson diagonalization with overlap
     ethr =  2.47E-08,  avg # of iterations =  2.0

     negative rho (up, down):  1.379E-02 0.000E+00

     total cpu time spent up to now is    11235.9 secs

     total energy              =  -27816.15218710 Ry
     estimated scf accuracy    <       0.00003329 Ry

     iteration # 17     ecut=    60.00 Ry     beta= 0.70
     Davidson diagonalization with overlap
     ethr =  8.85E-09,  avg # of iterations =  3.2

     negative rho (up, down):  1.403E-02 0.000E+00

     total cpu time spent up to now is    11891.9 secs

     total energy              =  -27816.15219190 Ry
     estimated scf accuracy    <       0.00001043 Ry

     iteration # 18     ecut=    60.00 Ry     beta= 0.70
     Davidson diagonalization with overlap
     ethr =  2.77E-09,  avg # of iterations =  4.2

     negative rho (up, down):  1.394E-02 0.000E+00

     total cpu time spent up to now is    12565.9 secs

     total energy              =  -27816.15219441 Ry
     estimated scf accuracy    <       0.00000482 Ry

     iteration # 19     ecut=    60.00 Ry     beta= 0.70
     Davidson diagonalization with overlap
     ethr =  1.28E-09,  avg # of iterations =  2.0

     negative rho (up, down):  1.380E-02 0.000E+00

     total cpu time spent up to now is    13150.1 secs

     total energy              =  -27816.15219500 Ry
     estimated scf accuracy    <       0.00000155 Ry

     iteration # 20     ecut=    60.00 Ry     beta= 0.70
     Davidson diagonalization with overlap
     ethr =  4.12E-10,  avg # of iterations =  4.7

     negative rho (up, down):  1.372E-02 0.000E+00

     total cpu time spent up to now is    13904.0 secs

     total energy              =  -27816.15219544 Ry
     estimated scf accuracy    <       0.00000129 Ry

     iteration # 21     ecut=    60.00 Ry     beta= 0.70
     Davidson diagonalization with overlap
     ethr =  3.43E-10,  avg # of iterations =  2.0

     negative rho (up, down):  1.364E-02 0.000E+00

     total cpu time spent up to now is    14463.3 secs

     End of self-consistent calculation

          k = 0.0000 0.0000 0.0000 ( 93155 PWs)   bands (ev):

   -14.1065 -11.3594  -7.6689  -6.9965  -5.8968  -5.4340  -4.9440  -4.8416
    -4.6166  -4.5980  -4.5919  -4.5591  -4.5499  -4.5065  -4.4808  -4.3642
    -4.0762  -4.0517  -4.0294  -4.0219  -4.0069  -3.9696  -3.7356  -3.6674
    -3.5903  -3.5827  -3.5569  -3.5021  -3.3929  -3.3782  -3.3610  -3.3582
    -3.3426  -3.2998  -3.2206  -3.2136  -3.1979  -3.1800  -3.1394  -3.1184
    -3.1079  -3.0703  -3.0574  -3.0363  -3.0325  -3.0259  -2.8621  -2.6138
    -2.5458  -2.5232  -2.5071  -2.4969  -2.4871  -2.4353  -2.4249  -2.4098
    -2.3580  -2.3132  -2.2463  -2.2348  -2.2245  -2.0722  -2.0448  -1.8028
    -1.7861  -1.7208  -1.6977  -1.6875  -1.6549  -1.6153  -1.5547  -1.5474
    -1.5055  -1.4979  -1.4942  -1.4859  -1.4767  -1.4635  -1.4390  -1.4295
    -1.4046  -1.3994  -1.3853  -1.3769  -1.3582  -1.3346  -1.3157  -1.2949
    -1.2915  -1.2704  -1.2142  -1.1049  -1.0969  -1.0848  -1.0558  -1.0351
    -1.0272  -1.0047  -0.9850  -0.9738  -0.9465  -0.9456  -0.9070  -0.8462
    -0.8434  -0.8013  -0.7970  -0.7834  -0.7447  -0.6916  -0.6835  -0.6636
    -0.6549  -0.6115  -0.6077  -0.4924  -0.3157  -0.2711  -0.2392  -0.2159
    -0.1543  -0.1436  -0.1406  -0.1116  -0.0679  -0.0139  -0.0105   0.0015
     0.0437   0.0620   0.0846   0.0946   0.1104   0.1401   0.2191   0.2581
     0.2832   0.3157   0.3496   0.3570   0.3966   0.5145   0.5525   0.5663
     0.5848   0.5925   0.6110   0.6274   0.6618   0.7046   0.7780   0.7905
     0.7975   0.8404   0.8712   0.8801   0.9153   0.9356   0.9469   1.0158
     1.0195   1.0362   1.0410   1.0421   1.0470   1.0591   1.0732   1.0829
     1.1220   1.1347   1.1460   1.1511   1.1574   1.2211   1.2291   1.2583
     1.2628   1.2739   1.3044   1.3203   1.3468   1.3808   1.4002   1.4047
     1.4074   1.4229   1.4316   1.4440   1.4704   1.4794   1.5091   1.5182
     1.5552   1.5672   1.6532   1.6796   1.7960   1.8006   1.8146   1.8474
     1.8548   1.8709   1.9244   2.2607   2.3422   2.6394   2.6829   2.7271
     2.7366   3.1790   3.8660   4.4824   4.9153   5.0125   5.0419   5.3026
     5.4141   5.6876   5.7363   6.3512   6.4517   6.6283   6.6622   6.6757
     6.6899   6.7813

          k = 0.0000 0.2309 0.0000 ( 93142 PWs)   bands (ev):

   -14.1063 -11.3595  -7.6698  -6.8497  -5.7985  -5.3918  -5.0824  -4.9306
    -4.8043  -4.6821  -4.6032  -4.4535  -4.3811  -4.3456  -4.3257  -4.2888
    -4.1329  -4.1064  -3.9815  -3.9685  -3.9489  -3.9227  -3.7073  -3.6316
    -3.5959  -3.5378  -3.5116  -3.4915  -3.4386  -3.4294  -3.3917  -3.3624
    -3.3363  -3.3219  -3.2681  -3.2346  -3.2083  -3.1868  -3.1422  -3.1311
    -3.0897  -3.0326  -2.9620  -2.9354  -2.9021  -2.8605  -2.8036  -2.6817
    -2.6271  -2.6148  -2.5742  -2.5624  -2.5343  -2.4783  -2.4092  -2.3414
    -2.3231  -2.2777  -2.2525  -2.2422  -2.1634  -2.1153  -2.0851  -1.9556
    -1.8787  -1.8596  -1.8272  -1.8078  -1.7750  -1.7387  -1.7194  -1.6875
    -1.6671  -1.6391  -1.6111  -1.5677  -1.5387  -1.5122  -1.4960  -1.4705
    -1.4480  -1.3914  -1.3791  -1.3245  -1.3017  -1.2835  -1.2762  -1.2498
    -1.2321  -1.2116  -1.1722  -1.1486  -1.1085  -1.0864  -1.0691  -1.0531
    -1.0383  -1.0116  -0.9898  -0.9692  -0.9645  -0.9268  -0.9116  -0.8785
    -0.8668  -0.8547  -0.8368  -0.8157  -0.7750  -0.7628  -0.7361  -0.6744
    -0.6506  -0.6202  -0.6014  -0.5837  -0.5598  -0.5525  -0.5383  -0.4497
    -0.3503  -0.2935  -0.2178  -0.2063  -0.1677  -0.1376  -0.1323  -0.1008
    -0.0671  -0.0138   0.0561   0.1071   0.1238   0.1800   0.1850   0.2154
     0.2410   0.2631   0.2988   0.3141   0.3411   0.3899   0.4424   0.4647
     0.4773   0.5092   0.5874   0.6113   0.6302   0.6415   0.6658   0.6698
     0.7349   0.7561   0.8288   0.8415   0.8640   0.8778   0.8931   0.9353
     0.9757   0.9837   1.0448   1.0538   1.0646   1.0923   1.1347   1.1703
     1.2056   1.2213   1.2573   1.2765   1.3478   1.3511   1.3722   1.3861
     1.4030   1.4232   1.4624   1.4877   1.4970   1.5146   1.5343   1.5522
     1.5639   1.6221   1.6743   1.7046   1.7165   1.7559   1.7752   1.7971
     1.8162   1.8268   1.8497   1.8721   1.9267   1.9660   1.9836   2.0181
     2.1175   2.1419   2.1631   2.1794   2.4780   2.6898   2.9608   3.2558
     3.3453   3.4227   3.7814   4.4036   4.6809   4.9553   5.2591   5.3637
     5.5172   5.6038   5.7341   5.8594   5.9950   6.3940   6.4436   6.5212
     6.6643   6.7605

          k = 0.0000 0.4619 0.0000 ( 93214 PWs)   bands (ev):

   -14.1058 -11.3596  -7.6706  -6.4314  -5.8281  -5.5927  -5.1583  -4.9398
    -4.7865  -4.7068  -4.6094  -4.5232  -4.3430  -4.1993  -4.0798  -4.0527
    -3.9936  -3.9763  -3.8737  -3.8497  -3.7969  -3.7765  -3.7546  -3.6767
    -3.6384  -3.6022  -3.5988  -3.5832  -3.5408  -3.5191  -3.4593  -3.4310
    -3.4035  -3.2891  -3.2155  -3.1871  -3.1595  -3.1402  -3.1213  -3.0460
    -2.9602  -2.9339  -2.9244  -2.8988  -2.8714  -2.7986  -2.7540  -2.6638
    -2.6371  -2.6190  -2.5796  -2.5435  -2.4999  -2.4739  -2.4537  -2.4324
    -2.3821  -2.3511  -2.3156  -2.3090  -2.2246  -2.2121  -2.1794  -2.1190
    -2.0490  -2.0323  -1.9985  -1.9898  -1.9309  -1.8465  -1.8215  -1.8040
    -1.7625  -1.7323  -1.6811  -1.6746  -1.6390  -1.6057  -1.5666  -1.5343
    -1.5091  -1.4517  -1.4340  -1.4096  -1.3728  -1.3535  -1.3406  -1.3022
    -1.2897  -1.2739  -1.2575  -1.2509  -1.2311  -1.2134  -1.1914  -1.1426
    -1.1122  -1.0963  -1.0799  -1.0425  -1.0094  -0.9701  -0.9381  -0.9184
    -0.8958  -0.8778  -0.8374  -0.8162  -0.7816  -0.7605  -0.7173  -0.6832
    -0.6419  -0.6222  -0.5807  -0.5565  -0.5250  -0.4916  -0.4155  -0.3981
    -0.3558  -0.3228  -0.2795  -0.2344  -0.2262  -0.2026  -0.1706  -0.1513
    -0.1243  -0.1062  -0.0918  -0.0754  -0.0639  -0.0419  -0.0103   0.0229
     0.0923   0.1246   0.1446   0.1684   0.2051   0.2411   0.2980   0.3817
     0.4113   0.4501   0.4847   0.5748   0.5816   0.6165   0.6474   0.6770
     0.7106   0.7362   0.7586   0.7913   0.8058   0.8511   0.8981   0.9060
     0.9558   0.9854   0.9966   1.0224   1.0392   1.0878   1.1515   1.2240
     1.2434   1.2472   1.2784   1.3601   1.3758   1.4019   1.4121   1.4638
     1.4801   1.5399   1.5533   1.5669   1.5882   1.6608   1.6795   1.7238
     1.7308   1.7432   1.7573   1.8021   1.8253   1.9198   1.9611   1.9766
     1.9914   2.0187   2.0899   2.1546   2.2404   2.3312   2.5010   2.6456
     2.8716   3.0308   3.0497   3.2232   3.3046   3.4330   3.6777   3.8300
     4.0242   4.1795   4.2673   4.3332   4.4029   4.4941   4.7000   4.8066
     4.9608   5.1435   5.3684   5.5066   5.7813   5.9067   6.1351   6.3050
     6.4439   6.6465

          k = 0.2000-0.1155 0.0000 ( 93142 PWs)   bands (ev):

   -14.1063 -11.3591  -7.6669  -6.8522  -5.7964  -5.3871  -5.1376  -4.8589
    -4.7817  -4.6977  -4.6552  -4.4524  -4.3650  -4.3482  -4.3198  -4.2797
    -4.1371  -4.0889  -4.0044  -3.9600  -3.9479  -3.9115  -3.6808  -3.6417
    -3.6014  -3.5304  -3.5139  -3.5007  -3.4358  -3.4285  -3.4070  -3.3433
    -3.3321  -3.3024  -3.2724  -3.2481  -3.1985  -3.1754  -3.1409  -3.1339
    -3.1098  -3.0115  -2.9993  -2.9366  -2.8999  -2.8674  -2.8236  -2.6838
    -2.6473  -2.6264  -2.6103  -2.5542  -2.5479  -2.4615  -2.4251  -2.3476
    -2.3385  -2.2883  -2.2643  -2.2134  -2.1927  -2.0881  -2.0790  -1.9792
    -1.8933  -1.8571  -1.8370  -1.8167  -1.7797  -1.7479  -1.7213  -1.6779
    -1.6750  -1.6287  -1.5784  -1.5624  -1.5421  -1.5203  -1.4940  -1.4474
    -1.4051  -1.3940  -1.3617  -1.3327  -1.3089  -1.3017  -1.2825  -1.2571
    -1.2484  -1.2329  -1.1628  -1.1497  -1.1282  -1.0812  -1.0684  -1.0463
    -1.0386  -1.0242  -0.9880  -0.9558  -0.9376  -0.9163  -0.9032  -0.8748
    -0.8604  -0.8466  -0.8076  -0.7912  -0.7832  -0.7640  -0.7227  -0.7090
    -0.6618  -0.6203  -0.6044  -0.5823  -0.5524  -0.5502  -0.5011  -0.4679
    -0.3820  -0.2945  -0.2304  -0.1525  -0.1432  -0.1237  -0.1180  -0.0459
    -0.0371   0.0269   0.0479   0.1179   0.1305   0.1729   0.1928   0.2271
     0.2448   0.2764   0.2970   0.3213   0.3263   0.4290   0.4383   0.4636
     0.4815   0.4912   0.5240   0.6205   0.6228   0.6569   0.6773   0.6868
     0.7486   0.7673   0.8078   0.8376   0.8424   0.8600   0.8934   0.9367
     0.9568   0.9855   1.0208   1.0549   1.0597   1.0845   1.1163   1.1792
     1.2095   1.2193   1.2607   1.2837   1.3131   1.3574   1.3777   1.4006
     1.4076   1.4141   1.4654   1.4757   1.4892   1.5156   1.5187   1.5575
     1.5756   1.6376   1.6538   1.7042   1.7317   1.7495   1.7663   1.7818
     1.7887   1.8150   1.8415   1.8430   1.9152   1.9294   1.9837   2.0024
     2.1257   2.1405   2.1612   2.3562   2.4127   2.5173   3.0672   3.1979
     3.3494   3.4295   3.9334   4.3518   4.6498   4.9996   5.2187   5.2725
     5.5426   5.5619   5.7275   5.8836   5.9914   6.4591   6.4950   6.5681
     6.6068   6.8098

          k = 0.2000 0.1155 0.0000 ( 93142 PWs)   bands (ev):

   -14.1063 -11.3593  -7.6713  -6.8494  -5.7914  -5.3826  -5.0991  -4.9356
    -4.7945  -4.6831  -4.6068  -4.4535  -4.3797  -4.3448  -4.3208  -4.2851
    -4.1471  -4.1067  -3.9907  -3.9594  -3.9498  -3.9138  -3.6833  -3.6416
    -3.5929  -3.5469  -3.5110  -3.5029  -3.4302  -3.4245  -3.4011  -3.3611
    -3.3381  -3.3213  -3.2636  -3.2380  -3.2224  -3.1800  -3.1385  -3.1327
    -3.0948  -3.0340  -2.9736  -2.9258  -2.9011  -2.8643  -2.7942  -2.6922
    -2.6278  -2.6171  -2.5768  -2.5593  -2.5327  -2.5009  -2.4091  -2.3392
    -2.3210  -2.2752  -2.2504  -2.2221  -2.1990  -2.1006  -2.0819  -1.9542
    -1.8814  -1.8612  -1.8240  -1.8136  -1.7707  -1.7415  -1.7153  -1.6810
    -1.6659  -1.6379  -1.6168  -1.5716  -1.5417  -1.5158  -1.4939  -1.4716
    -1.4409  -1.3865  -1.3768  -1.3255  -1.2978  -1.2874  -1.2820  -1.2453
    -1.2331  -1.2100  -1.1701  -1.1508  -1.1003  -1.0877  -1.0682  -1.0525
    -1.0379  -1.0127  -0.9953  -0.9755  -0.9603  -0.9246  -0.9070  -0.8805
    -0.8633  -0.8524  -0.8306  -0.8142  -0.7769  -0.7597  -0.7317  -0.6734
    -0.6623  -0.6190  -0.6002  -0.5820  -0.5534  -0.5504  -0.5133  -0.4743
    -0.3579  -0.2907  -0.2160  -0.1973  -0.1661  -0.1349  -0.1271  -0.1065
    -0.0648   0.0042   0.0645   0.1015   0.1272   0.1798   0.1856   0.2190
     0.2438   0.2602   0.2996   0.3145   0.3440   0.4012   0.4423   0.4658
     0.4795   0.5073   0.5765   0.6131   0.6221   0.6354   0.6615   0.6698
     0.7322   0.7569   0.8233   0.8415   0.8660   0.8774   0.8908   0.9370
     0.9731   0.9814   1.0381   1.0552   1.0630   1.0886   1.1355   1.1653
     1.2104   1.2223   1.2612   1.2814   1.3407   1.3502   1.3702   1.3819
     1.4005   1.4239   1.4623   1.4847   1.4959   1.5146   1.5349   1.5505
     1.5643   1.6182   1.6771   1.7033   1.7204   1.7558   1.7721   1.7963
     1.8102   1.8262   1.8484   1.8682   1.9249   1.9618   1.9836   2.0095
     2.1212   2.1424   2.1604   2.2002   2.4866   2.6609   2.9736   3.2445
     3.3530   3.4177   3.7869   4.4308   4.6902   4.9627   5.2087   5.3841
     5.5240   5.5952   5.7339   5.8954   5.9389   6.3963   6.4586   6.5051
     6.6747   6.8088

          k = 0.2000 0.3464 0.0000 ( 93118 PWs)   bands (ev):

   -14.1059 -11.3595  -7.6734  -6.5638  -5.6721  -5.3600  -5.3383  -5.2107
    -4.8715  -4.7208  -4.2932  -4.2764  -4.2541  -4.2500  -4.1883  -4.1712
    -4.1466  -4.0772  -4.0596  -4.0325  -3.7505  -3.7160  -3.6715  -3.6520
    -3.6397  -3.6083  -3.5650  -3.4875  -3.4666  -3.4471  -3.4015  -3.3628
    -3.3195  -3.3093  -3.2834  -3.2543  -3.2174  -3.2035  -3.1930  -3.1582
    -3.1014  -3.0481  -2.9353  -2.8483  -2.7858  -2.7526  -2.6948  -2.6656
    -2.6487  -2.6241  -2.5811  -2.5597  -2.4742  -2.4387  -2.4241  -2.4095
    -2.3371  -2.3063  -2.2898  -2.2548  -2.2099  -2.1847  -2.1434  -2.1330
    -2.0941  -1.9654  -1.9250  -1.9005  -1.8799  -1.8679  -1.8070  -1.7830
    -1.7558  -1.7290  -1.7035  -1.6385  -1.6082  -1.5768  -1.5578  -1.5394
    -1.5357  -1.4802  -1.4167  -1.4077  -1.3627  -1.3383  -1.2817  -1.2742
    -1.2538  -1.2339  -1.2216  -1.2003  -1.1768  -1.1628  -1.1432  -1.1226
    -1.0987  -1.0729  -1.0212  -0.9915  -0.9720  -0.9541  -0.9200  -0.9000
    -0.8938  -0.8862  -0.8527  -0.8310  -0.8138  -0.7968  -0.7816  -0.7529
    -0.7153  -0.6928  -0.6462  -0.6364  -0.5981  -0.5459  -0.5102  -0.4785
    -0.4089  -0.3631  -0.2986  -0.2602  -0.2406  -0.1892  -0.1760  -0.1537
    -0.1153  -0.0676  -0.0322  -0.0271   0.0059   0.0511   0.0598   0.1213
     0.1618   0.1921   0.2266   0.2526   0.2702   0.2813   0.3636   0.4054
     0.4428   0.4755   0.4924   0.5221   0.5784   0.6127   0.6189   0.6380
     0.7210   0.7460   0.7810   0.7943   0.8126   0.8260   0.8547   0.8565
     0.8941   0.9023   0.9692   1.0180   1.0723   1.0894   1.1514   1.2257
     1.3005   1.3533   1.3695   1.3933   1.4110   1.4626   1.4970   1.5255
     1.5419   1.5657   1.5751   1.5844   1.6117   1.6213   1.6516   1.6675
     1.7176   1.7417   1.7676   1.7799   1.8160   1.8423   1.8726   1.9882
     2.0130   2.0637   2.0690   2.0860   2.1324   2.1938   2.2450   2.4159
     2.4419   2.7463   2.7748   3.0988   3.2704   3.3334   3.3669   3.5573
     3.8447   4.0692   4.0901   4.2424   4.2898   4.6695   5.0139   5.1237
     5.4443   5.5185   5.6867   5.7776   5.9313   6.0669   6.1464   6.1998
     6.2832   6.4174

          k = 0.2000-0.5774 0.0000 ( 93110 PWs)   bands (ev):

   -14.1057 -11.3593  -7.6703  -6.0630  -6.0245  -5.5746  -5.4224  -4.9957
    -4.8385  -4.7541  -4.5585  -4.2509  -4.2304  -4.1170  -4.0834  -3.9720
    -3.9610  -3.8779  -3.8601  -3.8445  -3.7548  -3.7368  -3.7252  -3.7047
    -3.6782  -3.6488  -3.6207  -3.5508  -3.5290  -3.5232  -3.4941  -3.4791
    -3.3700  -3.3267  -3.2593  -3.2221  -3.2104  -3.1859  -3.1326  -3.0946
    -3.0491  -3.0310  -2.9439  -2.9116  -2.8166  -2.7502  -2.7363  -2.7066
    -2.6412  -2.5989  -2.5506  -2.5191  -2.4491  -2.4334  -2.3980  -2.3644
    -2.3151  -2.3039  -2.2945  -2.2115  -2.1860  -2.1710  -2.1429  -2.1164
    -2.0789  -2.0562  -2.0445  -2.0157  -1.9927  -1.9659  -1.9175  -1.8832
    -1.8368  -1.8033  -1.7637  -1.7189  -1.6626  -1.6472  -1.6128  -1.5787
    -1.5610  -1.5523  -1.5253  -1.4767  -1.4491  -1.4049  -1.3833  -1.3710
    -1.3626  -1.2843  -1.2424  -1.2309  -1.2159  -1.1932  -1.1528  -1.0870
    -1.0581  -1.0280  -1.0079  -0.9910  -0.9619  -0.9522  -0.9387  -0.9132
    -0.9054  -0.8919  -0.8551  -0.8362  -0.8008  -0.7822  -0.7739  -0.7613
    -0.7349  -0.7273  -0.7090  -0.6967  -0.5980  -0.5509  -0.4737  -0.4402
    -0.3968  -0.3447  -0.3020  -0.2801  -0.2563  -0.2184  -0.2144  -0.1847
    -0.1544  -0.1347  -0.1044  -0.0745  -0.0492  -0.0231   0.0427   0.0925
     0.1031   0.1226   0.1843   0.2194   0.2431   0.2895   0.3454   0.4037
     0.4302   0.4521   0.4635   0.5163   0.5303   0.5475   0.5611   0.6209
     0.6449   0.6690   0.6846   0.7328   0.7500   0.7805   0.8086   0.8634
     0.9094   0.9501   1.0310   1.0648   1.0941   1.1936   1.2267   1.2487
     1.2863   1.3398   1.3549   1.3809   1.4453   1.4860   1.5136   1.5326
     1.5557   1.5843   1.6241   1.6387   1.6906   1.7094   1.7242   1.7433
     1.7507   1.7773   1.7926   1.8563   1.8866   1.9241   1.9869   2.0039
     2.0301   2.0638   2.0773   2.1286   2.2285   2.4028   2.8066   2.9740
     3.1627   3.1762   3.3859   3.4082   3.4876   3.5648   3.7807   4.0147
     4.1315   4.2422   4.3207   4.5228   4.6669   4.7260   4.8673   4.9257
     5.0369   5.0734   5.1601   5.3056   5.5002   5.6496   6.0223   6.1140
     6.2172   6.2724

          k = 0.2000-0.3464 0.0000 ( 93118 PWs)   bands (ev):

   -14.1059 -11.3591  -7.6666  -6.5704  -5.6780  -5.3690  -5.3428  -5.2168
    -4.8479  -4.7238  -4.2948  -4.2559  -4.2503  -4.2270  -4.2044  -4.1853
    -4.1475  -4.0802  -4.0569  -4.0252  -3.7433  -3.6889  -3.6706  -3.6622
    -3.6304  -3.5986  -3.5795  -3.4750  -3.4600  -3.4354  -3.4082  -3.3732
    -3.3218  -3.3165  -3.2918  -3.2516  -3.2015  -3.1930  -3.1825  -3.1547
    -3.1045  -3.0410  -2.9576  -2.8625  -2.8037  -2.7577  -2.7199  -2.6875
    -2.6501  -2.6382  -2.6219  -2.5692  -2.5265  -2.4504  -2.4349  -2.3853
    -2.3703  -2.3297  -2.2751  -2.2184  -2.2007  -2.1744  -2.1510  -2.1227
    -2.1031  -1.9838  -1.9513  -1.9364  -1.9013  -1.8282  -1.8098  -1.7987
    -1.7763  -1.7294  -1.7083  -1.6129  -1.5933  -1.5751  -1.5454  -1.5148
    -1.4995  -1.4540  -1.4348  -1.3998  -1.3694  -1.3341  -1.2954  -1.2732
    -1.2624  -1.2523  -1.2147  -1.2042  -1.1779  -1.1519  -1.1286  -1.1140
    -1.0683  -1.0346  -1.0105  -0.9844  -0.9627  -0.9582  -0.9279  -0.9095
    -0.8839  -0.8676  -0.8507  -0.8329  -0.8212  -0.8100  -0.7872  -0.7592
    -0.7246  -0.6804  -0.6437  -0.6189  -0.5727  -0.5277  -0.4941  -0.4608
    -0.4214  -0.3446  -0.3065  -0.2582  -0.2027  -0.1867  -0.1613  -0.1322
    -0.1028  -0.0839  -0.0425  -0.0091   0.0142   0.0337   0.0760   0.0990
     0.1564   0.1909   0.2236   0.2645   0.2732   0.3095   0.3486   0.4117
     0.4445   0.4609   0.5032   0.5184   0.5794   0.6020   0.6302   0.6596
     0.7021   0.7411   0.7565   0.7841   0.8068   0.8226   0.8434   0.8631
     0.8772   0.9101   0.9560   1.0254   1.0706   1.0812   1.1657   1.2400
     1.3011   1.3586   1.3670   1.3855   1.4227   1.4734   1.5005   1.5138
     1.5409   1.5663   1.5839   1.5982   1.6189   1.6256   1.6492   1.6715
     1.7137   1.7327   1.7625   1.7959   1.8080   1.8478   1.8979   1.9416
     1.9826   2.0244   2.0520   2.0758   2.1247   2.1490   2.2648   2.2848
     2.5888   2.7667   2.8450   3.0493   3.1422   3.2783   3.3563   3.6992
     3.8071   4.0938   4.1964   4.2479   4.3343   4.5014   4.9767   5.1130
     5.4206   5.5073   5.6283   5.7954   5.9094   6.0723   6.1307   6.2186
     6.3954   6.4483

          k = 0.4000-0.2309 0.0000 ( 93214 PWs)   bands (ev):

   -14.1058 -11.3585  -7.6639  -6.4376  -5.8290  -5.5861  -5.1961  -4.9310
    -4.7530  -4.7213  -4.6597  -4.4740  -4.3129  -4.1859  -4.0721  -4.0263
    -4.0125  -3.9815  -3.8906  -3.8302  -3.7832  -3.7709  -3.7504  -3.6554
    -3.6250  -3.6133  -3.5777  -3.5655  -3.5384  -3.4951  -3.4517  -3.4408
    -3.4125  -3.3175  -3.2368  -3.1809  -3.1661  -3.1454  -3.1341  -3.0458
    -3.0023  -2.9622  -2.9357  -2.9138  -2.8861  -2.8310  -2.7790  -2.7317
    -2.6447  -2.6304  -2.5753  -2.5624  -2.4960  -2.4662  -2.4487  -2.4354
    -2.4191  -2.3781  -2.3573  -2.2927  -2.2355  -2.2134  -2.1693  -2.1263
    -2.0857  -2.0511  -2.0149  -1.9943  -1.9815  -1.8366  -1.8040  -1.7996
    -1.7561  -1.7324  -1.6690  -1.6565  -1.6464  -1.5535  -1.5201  -1.5030
    -1.4697  -1.4472  -1.4417  -1.3987  -1.3833  -1.3684  -1.3399  -1.3194
    -1.2964  -1.2774  -1.2575  -1.2494  -1.2167  -1.2089  -1.1496  -1.1472
    -1.1275  -1.0923  -1.0752  -1.0232  -1.0166  -0.9902  -0.9706  -0.8806
    -0.8717  -0.8601  -0.8375  -0.7926  -0.7561  -0.7360  -0.6893  -0.6745
    -0.6159  -0.6022  -0.5763  -0.5257  -0.5038  -0.4806  -0.4302  -0.3496
    -0.3179  -0.3120  -0.2772  -0.2547  -0.2370  -0.2243  -0.1679  -0.1413
    -0.1322  -0.1003  -0.0959  -0.0615  -0.0381  -0.0339  -0.0003   0.0567
     0.1044   0.1482   0.1581   0.1694   0.1864   0.2290   0.3843   0.3896
     0.4230   0.4298   0.4768   0.5574   0.6081   0.6090   0.6440   0.6768
     0.7219   0.7256   0.7681   0.7778   0.7974   0.8363   0.8909   0.9099
     0.9578   0.9686   1.0049   1.0195   1.0643   1.0702   1.1530   1.2037
     1.2409   1.2549   1.2757   1.3515   1.3892   1.4072   1.4143   1.4432
     1.4872   1.5251   1.5427   1.5814   1.6146   1.6467   1.6747   1.7108
     1.7254   1.7306   1.7474   1.7669   1.8039   1.8908   1.9268   1.9648
     1.9769   1.9948   2.0704   2.0999   2.2380   2.3632   2.3850   2.6428
     2.9211   2.9841   3.0471   3.2643   3.2795   3.5676   3.7117   3.7637
     3.9992   4.2111   4.2815   4.3443   4.3792   4.4831   4.6383   4.7140
     4.9530   5.2319   5.3698   5.4916   5.6524   5.9179   6.1302   6.3981
     6.4874   6.6987

          k = 0.4000-0.0000 0.0000 ( 93118 PWs)   bands (ev):

   -14.1059 -11.3588  -7.6690  -6.5694  -5.6581  -5.3704  -5.3425  -5.2289
    -4.8532  -4.7219  -4.2943  -4.2615  -4.2461  -4.2256  -4.2033  -4.1859
    -4.1485  -4.0771  -4.0595  -4.0249  -3.7463  -3.6930  -3.6671  -3.6598
    -3.6106  -3.5928  -3.5518  -3.5140  -3.4564  -3.4351  -3.4186  -3.3671
    -3.3275  -3.3128  -3.2961  -3.2529  -3.2213  -3.1895  -3.1622  -3.1385
    -3.1180  -3.0360  -2.9912  -2.9017  -2.8093  -2.7498  -2.7178  -2.6833
    -2.6523  -2.6352  -2.6151  -2.5774  -2.5360  -2.4548  -2.4280  -2.4044
    -2.3564  -2.3238  -2.2709  -2.2286  -2.1937  -2.1758  -2.1446  -2.1111
    -2.1028  -1.9763  -1.9546  -1.9401  -1.9061  -1.8299  -1.8133  -1.7877
    -1.7739  -1.7349  -1.7066  -1.6116  -1.5935  -1.5765  -1.5456  -1.5146
    -1.4982  -1.4531  -1.4210  -1.3993  -1.3678  -1.3348  -1.2923  -1.2701
    -1.2613  -1.2544  -1.2118  -1.2055  -1.1776  -1.1491  -1.1218  -1.1147
    -1.0637  -1.0465  -1.0121  -0.9917  -0.9630  -0.9488  -0.9246  -0.9073
    -0.8848  -0.8646  -0.8523  -0.8305  -0.8178  -0.8119  -0.7857  -0.7592
    -0.7244  -0.6891  -0.6448  -0.6154  -0.5614  -0.5262  -0.5029  -0.4501
    -0.4220  -0.3369  -0.2862  -0.2531  -0.2017  -0.1835  -0.1554  -0.1295
    -0.0993  -0.0800  -0.0481  -0.0173   0.0133   0.0346   0.0830   0.1074
     0.1436   0.1910   0.2261   0.2642   0.2714   0.3176   0.3479   0.4112
     0.4454   0.4633   0.5006   0.5177   0.5756   0.5941   0.6275   0.6500
     0.6960   0.7379   0.7557   0.7856   0.8060   0.8196   0.8432   0.8612
     0.8776   0.9061   0.9543   1.0270   1.0669   1.0774   1.1675   1.2540
     1.2911   1.3529   1.3710   1.3850   1.4219   1.4762   1.5006   1.5165
     1.5394   1.5663   1.5826   1.5979   1.6181   1.6256   1.6497   1.6693
     1.7152   1.7292   1.7654   1.7907   1.8101   1.8466   1.9028   1.9369
     1.9820   2.0209   2.0511   2.0806   2.1231   2.1472   2.2670   2.2758
     2.5904   2.7469   2.8579   3.0387   3.1409   3.2752   3.3514   3.6818
     3.8342   4.0902   4.1785   4.2590   4.3300   4.5212   5.0007   5.1367
     5.4207   5.4918   5.6238   5.7906   5.9215   6.0742   6.1224   6.1940
     6.3219   6.4800

          k = 0.4000 0.2309 0.0000 ( 93214 PWs)   bands (ev):

   -14.1058 -11.3592  -7.6747  -6.4294  -5.8046  -5.5928  -5.1711  -4.9543
    -4.7672  -4.7168  -4.6228  -4.5111  -4.3477  -4.1956  -4.0802  -4.0517
    -3.9911  -3.9786  -3.8638  -3.8496  -3.7988  -3.7666  -3.7551  -3.6565
    -3.6314  -3.6088  -3.5991  -3.5719  -3.5412  -3.5158  -3.4604  -3.4371
    -3.4063  -3.3276  -3.2328  -3.1838  -3.1663  -3.1414  -3.1217  -3.0401
    -2.9970  -2.9265  -2.9230  -2.9066  -2.8780  -2.8095  -2.7594  -2.6710
    -2.6408  -2.6086  -2.5725  -2.5320  -2.5123  -2.4695  -2.4516  -2.4313
    -2.3902  -2.3478  -2.3400  -2.3019  -2.2218  -2.2038  -2.1722  -2.1171
    -2.0559  -2.0245  -2.0040  -1.9836  -1.9255  -1.8764  -1.8259  -1.8026
    -1.7577  -1.7273  -1.6880  -1.6739  -1.6325  -1.5928  -1.5680  -1.5324
    -1.5008  -1.4450  -1.4365  -1.4092  -1.3723  -1.3512  -1.3434  -1.3024
    -1.2859  -1.2713  -1.2584  -1.2446  -1.2284  -1.2066  -1.1896  -1.1261
    -1.1108  -1.0975  -1.0768  -1.0359  -1.0010  -0.9735  -0.9357  -0.9216
    -0.8926  -0.8697  -0.8389  -0.8181  -0.7916  -0.7592  -0.7125  -0.6675
    -0.6377  -0.6221  -0.5669  -0.5505  -0.5153  -0.4730  -0.4347  -0.3999
    -0.3652  -0.3198  -0.2792  -0.2338  -0.2227  -0.1989  -0.1721  -0.1545
    -0.1292  -0.1129  -0.0953  -0.0785  -0.0539  -0.0367  -0.0062   0.0367
     0.0921   0.1208   0.1506   0.1716   0.2026   0.2382   0.3049   0.3791
     0.4084   0.4552   0.4677   0.5743   0.5784   0.6213   0.6405   0.6782
     0.7085   0.7343   0.7601   0.7866   0.8051   0.8522   0.8958   0.9066
     0.9580   0.9875   0.9993   1.0178   1.0382   1.0938   1.1583   1.2197
     1.2423   1.2449   1.2828   1.3541   1.3709   1.4010   1.4126   1.4573
     1.4798   1.5373   1.5526   1.5656   1.5893   1.6614   1.6791   1.7239
     1.7321   1.7407   1.7547   1.8034   1.8240   1.9107   1.9591   1.9733
     1.9904   2.0182   2.0858   2.1538   2.2397   2.3451   2.4763   2.6240
     2.8660   3.0319   3.0368   3.2190   3.3106   3.4432   3.6718   3.8364
     4.0214   4.1808   4.2666   4.3337   4.4104   4.5101   4.7119   4.8240
     4.9624   5.1076   5.3863   5.5151   5.8008   5.8779   6.0835   6.3493
     6.4954   6.6171

          k = 0.4000-0.6928 0.0000 ( 93110 PWs)   bands (ev):

   -14.1057 -11.3591  -7.6727  -6.0694  -6.0048  -5.5920  -5.3980  -4.9888
    -4.9012  -4.7114  -4.5609  -4.2574  -4.2295  -4.1128  -4.0853  -3.9713
    -3.9594  -3.8791  -3.8572  -3.8257  -3.7599  -3.7366  -3.7246  -3.7036
    -3.6861  -3.6443  -3.6084  -3.5471  -3.5309  -3.5178  -3.4899  -3.4741
    -3.3764  -3.3652  -3.2614  -3.2298  -3.2169  -3.1809  -3.1275  -3.0969
    -3.0542  -3.0434  -2.9413  -2.9030  -2.8341  -2.7646  -2.7140  -2.7006
    -2.6641  -2.6131  -2.5607  -2.5104  -2.4549  -2.4064  -2.3996  -2.3670
    -2.3166  -2.2991  -2.2918  -2.2115  -2.1854  -2.1818  -2.1312  -2.1174
    -2.0804  -2.0615  -2.0468  -2.0133  -1.9958  -1.9660  -1.9094  -1.8967
    -1.8403  -1.8054  -1.7624  -1.7130  -1.6532  -1.6481  -1.6130  -1.5796
    -1.5654  -1.5489  -1.5226  -1.4719  -1.4413  -1.3968  -1.3863  -1.3735
    -1.3545  -1.2763  -1.2427  -1.2287  -1.2113  -1.1896  -1.1402  -1.0953
    -1.0540  -1.0390  -1.0043  -0.9936  -0.9579  -0.9480  -0.9380  -0.9104
    -0.9048  -0.8887  -0.8559  -0.8313  -0.7963  -0.7830  -0.7720  -0.7606
    -0.7360  -0.7278  -0.7101  -0.6957  -0.5981  -0.5359  -0.4703  -0.4416
    -0.4053  -0.3518  -0.3002  -0.2788  -0.2661  -0.2254  -0.2110  -0.1797
    -0.1606  -0.1305  -0.1037  -0.0738  -0.0417  -0.0249   0.0351   0.0951
     0.1030   0.1211   0.1918   0.2229   0.2468   0.3036   0.3443   0.4093
     0.4251   0.4526   0.4598   0.5125   0.5308   0.5445   0.5636   0.6178
     0.6460   0.6695   0.6867   0.7286   0.7548   0.7813   0.8041   0.8589
     0.9061   0.9432   1.0270   1.0689   1.1026   1.1991   1.2237   1.2430
     1.2808   1.3353   1.3560   1.3810   1.4472   1.4821   1.5147   1.5337
     1.5525   1.5836   1.6259   1.6341   1.6904   1.7077   1.7211   1.7464
     1.7524   1.7784   1.7931   1.8585   1.8861   1.9270   1.9833   2.0005
     2.0284   2.0671   2.0764   2.1363   2.2318   2.3788   2.8148   2.9468
     3.1644   3.1761   3.3825   3.3880   3.4968   3.5740   3.8083   4.0209
     4.1421   4.2358   4.2831   4.5097   4.6752   4.7280   4.8517   4.9218
     5.0176   5.0618   5.2302   5.3368   5.5238   5.6765   5.9897   6.0517
     6.2059   6.2650

          k = 0.4000-0.4619 0.0000 ( 93110 PWs)   bands (ev):

   -14.1057 -11.3587  -7.6662  -6.0663  -6.0326  -5.5733  -5.3913  -5.0334
    -4.9394  -4.5979  -4.5758  -4.2693  -4.2212  -4.1051  -4.0864  -3.9820
    -3.9692  -3.8706  -3.8513  -3.8077  -3.7478  -3.7313  -3.7255  -3.7177
    -3.6708  -3.6530  -3.6077  -3.5362  -3.5314  -3.5233  -3.4828  -3.4727
    -3.3784  -3.3178  -3.2697  -3.2518  -3.2186  -3.1754  -3.1432  -3.0926
    -3.0674  -3.0400  -2.9890  -2.9006  -2.8524  -2.8026  -2.7310  -2.6922
    -2.6606  -2.6305  -2.5609  -2.5434  -2.4569  -2.4031  -2.3833  -2.3553
    -2.3207  -2.2839  -2.2715  -2.2603  -2.2340  -2.1920  -2.1324  -2.1177
    -2.1055  -2.0615  -2.0532  -2.0414  -1.9942  -1.9646  -1.9500  -1.8663
    -1.8118  -1.7868  -1.7619  -1.7179  -1.6594  -1.6459  -1.6042  -1.5888
    -1.5539  -1.5225  -1.5137  -1.4624  -1.4379  -1.4125  -1.3753  -1.3602
    -1.3302  -1.2979  -1.2318  -1.2222  -1.2110  -1.1947  -1.1547  -1.0678
    -1.0421  -1.0352  -0.9929  -0.9756  -0.9668  -0.9499  -0.9277  -0.8927
    -0.8822  -0.8752  -0.8532  -0.8385  -0.8111  -0.7854  -0.7718  -0.7565
    -0.7418  -0.7265  -0.7038  -0.6804  -0.5838  -0.5158  -0.4643  -0.4388
    -0.3844  -0.3709  -0.3088  -0.3064  -0.2580  -0.2290  -0.2260  -0.1778
    -0.1677  -0.1200  -0.0984  -0.0548  -0.0330  -0.0185   0.0542   0.0947
     0.0995   0.1097   0.2131   0.2498   0.2851   0.3088   0.3413   0.3993
     0.4268   0.4559   0.4697   0.5121   0.5393   0.5484   0.5743   0.6357
     0.6363   0.6585   0.6851   0.7183   0.7385   0.7601   0.8176   0.8387
     0.9087   0.9562   1.0249   1.0632   1.0935   1.2045   1.2158   1.2272
     1.2606   1.3332   1.3537   1.3901   1.4621   1.4798   1.5186   1.5388
     1.5723   1.5905   1.6104   1.6177   1.6801   1.7098   1.7232   1.7387
     1.7510   1.7780   1.8094   1.8576   1.9076   1.9282   1.9749   1.9901
     2.0058   2.0499   2.0622   2.1576   2.2054   2.2935   2.7682   2.9818
     3.1575   3.2177   3.4096   3.4556   3.4804   3.6631   3.7103   3.9882
     4.0911   4.2495   4.3094   4.4166   4.6575   4.7772   4.8337   4.9269
     5.0586   5.1219   5.1565   5.3174   5.5376   5.5704   5.9671   6.0399
     6.1929   6.2768

     the Fermi energy is     1.7956 ev

!    total energy              =  -27816.15219534 Ry

     total all-electron energy =  -1326876.209890 Ry
     estimated scf accuracy    <       0.00000043 Ry
     smearing contrib. (-TS)   =       0.00237012 Ry
     internal energy E=F+TS    =  -27816.15456547 Ry

     The total energy is F=E-TS. E is the sum of the following terms:
     one-electron contribution =  -29808.49306339 Ry
     hartree contribution      =   15206.75110111 Ry
     xc contribution           =    -907.51136832 Ry
     ewald contribution        =   13186.73341720 Ry
     one-center paw contrib.   =  -25493.63465206 Ry

     convergence has been achieved in  21 iterations

     negative rho (up, down):  1.364E-02 0.000E+00

     Forces acting on atoms (cartesian axes, Ry/au):

     atom    1 type  1   force =    -0.00244344   -0.00007648   -0.00450070
     atom    2 type  1   force =     0.00163996   -0.00092241   -0.00583101
     atom    3 type  1   force =    -0.00098169   -0.00008435   -0.00469362
     atom    4 type  1   force =    -0.00096616    0.00227576   -0.00465962
     atom    5 type  1   force =    -0.00139698   -0.00004845   -0.00304215
     atom    6 type  1   force =     0.00035735   -0.00014771   -0.00285119
     atom    7 type  1   force =    -0.00094861    0.00045401   -0.00412251
     atom    8 type  1   force =    -0.00051385    0.00129485   -0.00308641
     atom    9 type  1   force =    -0.00043313    0.00100665   -0.00476490
     atom   10 type  1   force =    -0.00408171    0.00179804    0.00255966
     atom   11 type  1   force =    -0.00207791    0.00043011    0.00231020
     atom   12 type  1   force =     0.00536643    0.00215370    0.00778634
     atom   13 type  1   force =     0.00068623   -0.00382648    0.00128152
     atom   14 type  1   force =     0.00153180   -0.00099729    0.00890753
     atom   15 type  1   force =     0.00055338   -0.00620674    0.00635271
     atom   16 type  1   force =     0.00331702    0.00125055    0.00251673
     atom   17 type  1   force =    -0.00178681    0.00118863    0.00285922
     atom   18 type  1   force =     0.00153370   -0.00089885   -0.00061748
     atom   19 type  1   force =    -0.00045829    0.00034758   -0.00053532
     atom   20 type  1   force =    -0.00014336    0.00035887    0.00078809
     atom   21 type  1   force =     0.00021150    0.00000021    0.00018130
     atom   22 type  1   force =     0.00001484    0.00077395    0.00144073
     atom   23 type  1   force =     0.00017102   -0.00005273   -0.00026405
     atom   24 type  1   force =     0.00016135    0.00070108    0.00028997
     atom   25 type  1   force =    -0.00039066    0.00046387    0.00006865
     atom   26 type  1   force =    -0.00009433   -0.00014447    0.00060461
     atom   27 type  1   force =     0.00036553    0.00012533    0.00046102
     atom   28 type  1   force =     0.00003736    0.00088712   -0.00008697
     atom   29 type  1   force =    -0.00130793   -0.00105184    0.00051676
     atom   30 type  1   force =     0.00052124   -0.00018261   -0.00177316
     atom   31 type  1   force =     0.00013528    0.00072299   -0.00097339
     atom   32 type  1   force =     0.00035053    0.00193406    0.00127724
     atom   33 type  1   force =    -0.00092266    0.00145263   -0.00026209
     atom   34 type  1   force =    -0.00011113   -0.00196467    0.00012054
     atom   35 type  1   force =    -0.00047962   -0.00115755    0.00238171
     atom   36 type  1   force =     0.00046182   -0.00064543   -0.00099082
     atom   37 type  2   force =    -0.00028392   -0.00018249    0.00268948
     atom   38 type  2   force =     0.00067057   -0.00074032   -0.00019529
     atom   39 type  2   force =    -0.00007077   -0.00252281   -0.00414220
     atom   40 type  3   force =    -0.00010423   -0.00141007   -0.00251209
     atom   41 type  3   force =    -0.00091918    0.00057150    0.00148159
     atom   42 type  3   force =     0.00093521    0.00304297    0.00204163
     atom   43 type  3   force =     0.00189423    0.00002932    0.00098773

     Total force =     0.009925     Total SCF correction =     0.002694
     SCF correction compared to forces is large: reduce conv_thr to get better values

     negative rho (up, down):  1.364E-02 0.000E+00

     negative rho (up, down):  1.364E-02 0.000E+00

     negative rho (up, down):  1.364E-02 0.000E+00

     negative rho (up, down):  1.364E-02 0.000E+00

     negative rho (up, down):  1.364E-02 0.000E+00

     negative rho (up, down):  1.364E-02 0.000E+00

     negative rho (up, down):  1.364E-02 0.000E+00

     negative rho (up, down):  1.364E-02 0.000E+00

     negative rho (up, down):  1.364E-02 0.000E+00

     negative rho (up, down):  1.364E-02 0.000E+00

     negative rho (up, down):  1.364E-02 0.000E+00

     negative rho (up, down):  1.364E-02 0.000E+00

     negative rho (up, down):  1.364E-02 0.000E+00

     negative rho (up, down):  1.364E-02 0.000E+00

     negative rho (up, down):  1.364E-02 0.000E+00

     negative rho (up, down):  1.364E-02 0.000E+00

     negative rho (up, down):  1.364E-02 0.000E+00

     negative rho (up, down):  1.364E-02 0.000E+00

     negative rho (up, down):  1.364E-02 0.000E+00

     negative rho (up, down):  1.364E-02 0.000E+00

     negative rho (up, down):  1.364E-02 0.000E+00

     negative rho (up, down):  1.364E-02 0.000E+00

     negative rho (up, down):  1.364E-02 0.000E+00

     negative rho (up, down):  1.364E-02 0.000E+00

     negative rho (up, down):  1.364E-02 0.000E+00

     negative rho (up, down):  1.364E-02 0.000E+00

     negative rho (up, down):  1.364E-02 0.000E+00

     negative rho (up, down):  1.364E-02 0.000E+00

     negative rho (up, down):  1.364E-02 0.000E+00

     negative rho (up, down):  1.364E-02 0.000E+00

     negative rho (up, down):  1.364E-02 0.000E+00

     negative rho (up, down):  1.364E-02 0.000E+00

     negative rho (up, down):  1.364E-02 0.000E+00

     negative rho (up, down):  1.364E-02 0.000E+00
 BEEFens 2000 ensemble energies
             -0.607524707248141E+02
             -0.361880378206757E+01
             -0.158549641872487E+02
              0.429880635014998E+02
             -0.221335731455945E+02
             -0.205480795130517E+02
             -0.352755512399817E+02
             -0.866089996011518E+02
             -0.465448026019485E+02
             -0.473066497698982E+02
             -0.369703948104066E+02
              0.227525658616548E+01
              0.408262912971088E+01
              0.761631839594523E+01
              0.266327638131111E+01
              0.475411220907425E+02
             -0.209043276393842E+02
             -0.230389286719106E+02
              0.193355875731949E+02
             -0.112499804764641E+03
              0.536924370671339E+02
             -0.289969195988444E+02
             -0.335300420461254E+01
             -0.114116920560254E+02
             -0.883766696036537E+01
             -0.464640120728703E+01
              0.883694695007599E+02
             -0.187238716490387E+02
             -0.901803216854262E+01
             -0.519101853213230E+02
              0.816314119363594E+02
             -0.187376242776363E+02
             -0.375495929094071E+02
              0.249456443332615E+02
             -0.284213865398334E+01
              0.164464537767751E+02
             -0.484585504225709E+01
              0.108042599665012E+02
              0.288793450540722E+02
             -0.103383788337690E+03
              0.558932550180792E+02
              0.142490869996124E+02
             -0.172475808046568E+01
             -0.361887105063667E+02
              0.123300797650545E+02
             -0.146857974662876E+02
              0.399027459960829E+02
              0.365174901333003E+02
             -0.308246439723770E+02
             -0.275519513789513E+02
             -0.328826174590467E+02
             -0.352492962625647E+02
              0.136544041305220E+02
             -0.491517651564818E+02
              0.115734585811315E+02
              0.623744514162398E+02
              0.636159614443980E+02
              0.356122063604255E+02
              0.154272722076006E+02
              0.270832816799266E+02
              0.892311998199398E+02
              0.212875778284609E+02
             -0.549154061498413E+02
             -0.157168012433432E+02
             -0.236286742190140E+02
              0.630607695710061E+02
             -0.774203140595787E+02
             -0.672393262415919E+02
             -0.259781091419515E+02
             -0.648325128560680E+01
             -0.471333975686604E+02
              0.270956146122996E+02
              0.802578637845727E+01
              0.869312766508642E+01
             -0.397563552186541E+02
             -0.347269567286453E+02
             -0.542498973643952E+02
              0.390728645206838E+02
             -0.296330010114694E+02
              0.265508819963423E+02
             -0.715670241442015E+01
             -0.318369157659536E+02
             -0.576797270362551E+02
             -0.176864595719742E+02
             -0.908305644549296E+01
             -0.124905033072630E+02
              0.412560432232989E+02
              0.683572719321845E+02
             -0.386064658450171E+02
             -0.795547345796246E+02
             -0.219797327670573E+02
              0.111624575592424E+03
             -0.592968202633088E+02
              0.356494353579821E+02
             -0.959061838992693E+01
             -0.663833432186171E+02
              0.254700492687956E+02
              0.398272853250395E+02
             -0.199013774796981E+02
              0.400546631686993E+02
             -0.296299906340566E+02
             -0.478873706608506E+02
              0.866999135693084E+02
              0.454516868650270E+02
              0.336615851578423E+02
              0.146638469594270E+02
              0.205853538392960E+02
              0.857396129249750E+02
             -0.256905658070414E+02
              0.787593073576831E+01
             -0.142552836440763E+03
              0.181302650639016E+02
             -0.716968710782449E+02
              0.151048103719213E+02
              0.204808834173325E+02
             -0.333299919807347E+02
             -0.557717975062927E+02
              0.654635015387635E+01
             -0.304526813156431E+02
              0.308471561706003E+02
             -0.530310599294359E+02
              0.170357219738742E+01
             -0.357377497007872E+02
             -0.424734712717782E+01
             -0.102449023699785E+01
              0.181453046630576E+02
              0.142733777102376E+01
             -0.652069575785720E+01
              0.591064047022160E+02
              0.909224600045285E+02
              0.484697736584865E+02
              0.830976838091433E+02
             -0.115203445510997E+02
              0.143259668971604E+02
              0.541554434210761E+02
             -0.110723699136080E+02
             -0.736477655852780E+02
             -0.384583183855824E+02
             -0.522224972131257E+02
             -0.276987099880882E+02
              0.327497790231513E+02
             -0.116915104084360E+03
             -0.187257567039252E+02
              0.414623263497355E+02
             -0.386697377743473E+02
             -0.365687042451477E+02
              0.544741296067996E+02
              0.401197762006256E+02
             -0.354164449977904E+02
              0.138011732466563E+02
             -0.273480197307302E+02
              0.343590591679456E+02
              0.446811657009192E+01
              0.211245257483746E+02
             -0.885509782753475E+02
             -0.480637225523681E+02
             -0.995916605805928E+01
              0.322825856829124E+01
             -0.367158854151112E+02
              0.106140597290956E+03
             -0.230938949935576E+02
             -0.398906873380222E+02
              0.389314809607117E+02
             -0.494686492489018E+02
             -0.363795232054869E+02
              0.325216919057250E+02
              0.124674042704719E+02
              0.164642542212798E+02
              0.116746777051017E+02
             -0.132992358214435E+02
              0.225166544891285E+02
              0.590697572401859E+02
             -0.311923324337358E+02
              0.162721297427236E+02
              0.935300350518736E+02
              0.341067227845665E+02
             -0.728678495997656E+01
             -0.188889445572886E+02
              0.153505638943250E+03
             -0.164414944667057E+02
              0.363687597847423E+02
              0.194799187052921E+02
              0.361876452030704E+02
              0.893048443718492E+02
              0.543474410136067E+02
             -0.241216176063678E+01
              0.228076144940426E+02
              0.485550470262191E+02
              0.363946907032285E+02
             -0.526134270893565E+02
              0.936941478739164E+02
             -0.826416653559631E+02
             -0.198215780477584E+02
              0.583408179583750E+02
              0.678462136026491E+01
              0.791096403486154E+01
              0.341116116571168E+02
              0.299276896558782E+02
              0.353926192578226E+02
             -0.638281175458069E+02
              0.287311684131816E+01
             -0.297781638490836E+02
             -0.871204180145135E+01
             -0.146460974210981E+01
             -0.724585365636645E+01
             -0.415582438745332E+01
              0.860134162894396E+02
             -0.101105347088611E+02
             -0.276683343924621E+02
             -0.496462228144356E+01
              0.140169097257550E+02
             -0.564736803018565E+02
             -0.407847037663472E+02
             -0.382406039087918E+02
             -0.630974791850838E+02
             -0.170012135755492E+02
             -0.447914376435779E+02
              0.163497952145537E+02
             -0.239099731258210E+01
             -0.104519556460125E+02
             -0.934989705281495E+01
              0.807877848458844E+01
             -0.242843293882701E+02
              0.689963022866455E+02
             -0.808044976268927E+02
             -0.141193305329348E+02
             -0.174163768269816E+02
              0.182041552996423E+02
              0.214773549184250E+02
             -0.464420794708419E+02
             -0.202064813789385E+02
              0.441355733182313E+02
             -0.276339845113209E+02
              0.187162875001762E+02
              0.383111456391563E+02
             -0.322403974664996E+01
              0.114268265142355E+03
             -0.230182011578261E+02
             -0.341362202499270E+02
              0.578015800137297E+01
             -0.228536496627270E+02
              0.528247101207683E+02
             -0.337781874688760E+02
              0.106700660164005E+02
              0.641034419885540E+02
             -0.126333230419152E+02
              0.120356759189906E+03
              0.125997053259304E+03
             -0.650542605964220E+02
              0.591166185311972E+02
              0.166828138838124E+02
             -0.518324068655662E+02
              0.216378121939111E+02
              0.354347671876291E+02
              0.363233679850055E+02
              0.135438996043607E+01
              0.159924951462247E+02
              0.696456505090055E+02
             -0.247221118515631E+02
              0.181327063842756E+02
              0.739547177043239E+02
             -0.372883634034077E+02
             -0.129993538226393E+02
              0.509213690784679E+02
              0.297789596578252E+02
              0.781170516217518E+02
              0.223040532179148E+02
              0.626695271199799E+01
              0.280678534948158E+02
              0.383722044262493E+02
             -0.472295500867722E+02
              0.332926141692798E+01
              0.130067795903906E+02
              0.113914936767839E+02
              0.220787065070702E+02
             -0.575440624263535E+02
              0.366463229651135E+02
             -0.444363218644470E+02
             -0.347735929059503E+02
              0.178211949680228E+02
             -0.181443064251888E+02
              0.555795231431334E+02
             -0.256170532893189E+02
              0.267076782330302E+02
              0.368609104159608E+02
              0.830011008934456E+02
              0.575151733973014E+02
              0.462204798348567E+02
             -0.105541073024741E+02
             -0.393031599860109E+01
             -0.332288227712470E+02
              0.751509368418463E+02
              0.798081693893387E+02
              0.362348295794572E+02
             -0.192283604810639E+02
              0.512365621160878E+02
             -0.162739277821719E+02
              0.214881683910439E+02
              0.615209554498231E+02
              0.214337280765344E+01
             -0.104485551137664E+02
             -0.283188757361354E+02
             -0.512297119937533E+02
              0.946364050137288E+02
              0.440315064503553E+02
             -0.559875958877314E+02
             -0.966148178067633E+01
              0.250066517348775E+02
             -0.996756594331060E+01
              0.592862265782081E+02
              0.152402618734701E+02
              0.800149119493218E+02
              0.279777148456717E+02
             -0.264222104277784E+02
              0.249178220970324E+02
             -0.502998526342208E+01
             -0.323916003319950E+02
              0.133357579376067E+02
              0.205876849318114E+02
              0.933766576645965E+02
              0.798142517093295E+02
              0.551646802243918E+02
              0.731449882993811E+02
              0.800577956011116E+01
             -0.273936083911497E+02
              0.163339323022075E+02
             -0.368346679722690E+02
             -0.476909387093725E+02
             -0.564162645775241E+02
             -0.266893091703544E+02
             -0.109809774302167E+03
             -0.291864077953876E+02
             -0.838187176323916E+02
              0.210326626613944E+02
             -0.477442494222805E+02
              0.397436944105949E+02
             -0.942440346810215E+02
             -0.330440075430833E+02
              0.548895152584427E+02
              0.207938378177452E+02
             -0.831665411690018E+02
              0.631569849532980E+02
             -0.257129347375637E+02
              0.513015954262374E+02
             -0.242881955966777E+02
             -0.752165440925977E+02
              0.112157199347735E+02
             -0.612039275166811E+02
             -0.168112444248348E+02
             -0.148815503954813E+01
              0.418655600890734E+02
              0.127147722722751E+03
             -0.462175454491286E+02
             -0.363119581903759E+02
             -0.986856454418387E+00
             -0.130248236177065E+02
             -0.823482173444880E+02
             -0.597381366504636E+02
              0.517758068041362E+02
             -0.289140858492200E+02
              0.169653623374503E+02
             -0.489944487073033E+02
             -0.132087330651337E+02
             -0.437737534716012E+02
              0.566108388216538E+02
              0.151236403397992E+02
             -0.231950674531065E+02
             -0.127173290741659E+02
              0.668519962900150E+01
             -0.619144609931880E+01
              0.442012581263922E+02
             -0.252283922411116E+02
              0.278015960942560E+01
              0.339661172131235E+02
              0.171400683040280E+02
             -0.160060306954351E+02
              0.156441212735797E+03
              0.538624089327743E+02
              0.118823547075273E+01
              0.161773113450683E+02
             -0.615335708874815E+02
              0.315404346725854E+02
             -0.722683037332821E+02
             -0.252591785120825E+02
             -0.523331655491476E+02
             -0.220296180855621E+02
              0.569901680947416E+02
             -0.537598524999743E+02
              0.161229479332441E+02
             -0.409354796542209E+01
              0.387809250926108E+01
             -0.434210748437762E+02
             -0.478799714518728E+02
             -0.402041388864359E+01
             -0.425209436199146E+02
             -0.217470745691086E+02
             -0.438949327043575E+02
             -0.119306535722960E+02
             -0.359296353153096E+02
             -0.517029140986799E+02
              0.212876541986166E+02
             -0.209379027979700E+02
              0.188061540617387E+02
              0.975111130448859E+01
             -0.738854376478018E+02
             -0.548606562083931E+02
             -0.398808291356287E+02
              0.354488022923645E+02
              0.269300045961234E+01
             -0.627285523149126E+02
              0.586278285842026E+02
             -0.401644578626576E+02
              0.545595499334709E+02
             -0.289888705066819E+02
             -0.446452140502561E+02
              0.298838114646009E+02
             -0.658566116799288E+02
             -0.380149338653315E+02
              0.673215002417704E+02
              0.204255055225201E+02
             -0.360552872916630E+02
              0.489946974807556E+02
             -0.174134495869909E+02
             -0.323154895478754E+02
             -0.302066897773499E+02
             -0.501285598258702E+02
              0.249682953182641E+02
             -0.933953505584227E+02
             -0.840968536879215E+02
             -0.734752310224417E+01
             -0.307151541887743E+02
             -0.576299440936903E+02
              0.722787412659793E+02
              0.131689478969198E+03
             -0.361087969480126E+02
             -0.256386106017817E+01
             -0.637644275688552E+02
              0.651384359015568E+02
              0.170946502598406E+02
             -0.181788386898780E+02
             -0.410429837543855E+02
              0.148814004604850E+02
             -0.586787975662649E+02
             -0.197783182511084E+02
             -0.905609256333830E+02
              0.337321690074552E+02
              0.169058871761528E+02
              0.182913032097531E+01
             -0.707799746179990E+01
             -0.330113257641240E+02
             -0.760150663108078E+01
              0.125676038623497E+03
             -0.199224693499871E+02
             -0.437901808583695E+02
             -0.684736545999629E+02
              0.109359252093743E+02
             -0.342602331505946E+02
              0.591571473772936E+01
              0.261873905713856E+02
              0.102177162487798E+02
              0.278335299230806E+02
              0.120119545047619E+02
              0.630328942374957E+02
              0.317042404634392E+02
             -0.326999381378901E+02
              0.356317904197223E+02
              0.379916278023287E+02
              0.121034647830137E+02
              0.487299214413209E+02
             -0.225230907616780E+02
              0.766573398923946E+02
              0.172729482928359E+02
             -0.272590011092563E+02
             -0.723136195502082E+01
             -0.186547445225748E+02
              0.262005197562075E+02
             -0.234777133450963E+02
             -0.145404107195162E+00
             -0.850027827975157E+01
              0.810722862573496E+02
              0.500683184669078E+02
             -0.687775535626131E+02
             -0.477147528374383E+01
             -0.555939403563488E+02
             -0.159661373965891E+02
             -0.268452660297595E+02
              0.377039068794522E+01
              0.584446747078266E+00
             -0.257868152001342E+02
              0.816025244574377E+01
             -0.603962592809201E+01
             -0.128546325113406E+02
              0.860042736517053E+02
              0.182014427384895E+02
             -0.807970589388923E+02
             -0.458734159995394E+02
              0.946095803412954E+02
              0.278047715510857E+02
             -0.106946357993646E+02
              0.104681277317638E+03
             -0.195065366070562E+02
             -0.123132827942009E+02
             -0.540705653503437E+01
              0.107525231840337E+02
              0.272842567791589E+02
              0.780815223955562E+01
              0.305714980287198E+02
             -0.188124420231269E+02
             -0.304279272639498E+02
             -0.418262909757916E+02
             -0.477355459104790E+02
              0.464437356643944E+02
              0.127024267634783E+02
              0.387999978643777E+02
              0.133644624585681E+02
              0.856632525372349E+02
              0.156737864256538E+02
             -0.846974117585913E+02
             -0.334770579332556E+02
              0.133774710638985E+02
             -0.303150299566444E+02
              0.627313396419552E+02
             -0.887801225373914E+01
              0.148969552324878E+02
              0.497933368227399E+02
             -0.708342873755831E+02
              0.149904790218666E+03
              0.208887326033520E+02
              0.271692495026612E+02
              0.348059830930051E+02
              0.103658998776900E+02
             -0.157655076764934E+01
              0.358775046821905E+02
             -0.357457116606386E+02
              0.774302009009164E+02
              0.685713247164602E+02
             -0.406403390566720E+02
              0.149605888526524E+02
              0.671040713882148E+02
             -0.224218949968488E+02
              0.154675871966449E+02
              0.435411974552007E+02
              0.422711177372594E+02
             -0.785581521935969E+02
             -0.152691245873636E+02
             -0.356398430747821E+02
             -0.148813140820977E+01
             -0.765928033913553E+01
             -0.543307040010404E+01
             -0.180822176199255E+02
             -0.294093766548770E+02
              0.635847314877255E+01
              0.111798749802979E+02
              0.536225412589156E+02
             -0.390827498797340E+02
              0.374992421568345E+02
              0.439071033822250E+02
             -0.186704782855626E+02
              0.873046784849013E+02
             -0.698720069534543E+02
             -0.103304507837669E+03
             -0.661102155835291E+01
             -0.268641517631227E+01
              0.385688576584130E+01
              0.790417027752717E+02
             -0.107040074482445E+02
              0.417183228681679E+02
              0.444365314832233E+02
              0.385835710234088E+02
             -0.995673912987399E+01
              0.628255703845879E+02
             -0.133801281135213E+02
             -0.307913383551146E+02
             -0.479643188558505E+02
              0.589589832788197E+01
              0.369874728071841E+02
             -0.603361132034820E+01
              0.393418481253873E+02
             -0.176516033851664E+01
              0.655885922439296E+02
              0.187560138396862E+02
              0.999814129073000E+01
             -0.121675035253415E+02
              0.332459601223576E+02
              0.363199385955167E+02
              0.232898608087042E+02
             -0.520025235791934E+00
             -0.551217614690812E+02
              0.261110723507717E+02
              0.175465181915014E+02
              0.402989104362367E+02
              0.272574615458416E+02
              0.373005772197928E+02
             -0.606209350874866E+01
              0.251480701476346E+02
             -0.299042009676896E+02
             -0.197404501913456E+01
             -0.569841092152961E+02
             -0.308505562874507E+02
              0.379319386028099E+02
             -0.936649721480774E+02
              0.294649915105140E+02
              0.184158087893276E+02
              0.841279499042652E+02
             -0.300587284310623E+02
              0.329820028720931E+02
             -0.137934129265757E+02
             -0.464622272900357E+02
             -0.762457101893925E+02
             -0.527982718268370E+01
             -0.860982351413076E+02
              0.199811615508695E+02
             -0.247765403760185E+02
              0.306268719838383E+02
              0.237297023902742E+02
             -0.241440668322585E+02
             -0.265722622651218E+02
              0.391495945102228E+02
             -0.588879500233712E+02
             -0.116845374057057E+02
             -0.196260885076489E+02
              0.212998961062442E+02
             -0.889887690496022E+01
              0.363187420282918E+01
             -0.200740738567891E+02
              0.559439494701885E+02
             -0.440260568270453E+02
              0.787659729544760E+01
              0.586070865343667E+02
             -0.323818598729344E+02
              0.361329735589146E+01
             -0.881221576184669E+01
             -0.670146254707740E+02
             -0.483011393992038E+02
             -0.860731687837077E+01
              0.241178862972088E+02
              0.302830089568842E+02
              0.859508372904139E+01
             -0.417145475941413E+01
              0.152012135233682E+02
             -0.440319005336728E+02
              0.332319504458997E+01
             -0.531762975674906E+02
             -0.325185071393809E+02
              0.475404053596775E+02
             -0.295565573713161E+02
              0.623309564663107E+02
             -0.214905205860480E+02
              0.354105485407325E+02
              0.241987498463672E+02
             -0.644772166828181E+02
             -0.280729989907327E+02
              0.934884095784602E+01
             -0.372317301060862E+02
             -0.340147270145790E+02
             -0.831153264187860E+02
             -0.539960965366870E+02
             -0.511027313923437E+02
             -0.416173892747617E+02
             -0.990777334626245E+00
              0.999624721516071E+01
              0.105709074918178E+01
              0.153600302705082E+02
             -0.550075819705003E+02
              0.141959967055875E+02
              0.257108228867439E+02
             -0.667636972673774E+02
             -0.702695716630500E+02
             -0.431780962501755E+02
             -0.172431863907227E+02
              0.178607629389048E+02
              0.454876072210834E+01
             -0.426527921616235E+02
              0.366574020702007E+02
             -0.216498541270324E+02
              0.518129368461030E+02
             -0.888383667443082E+02
              0.598542635987687E+02
             -0.214786206128943E+01
             -0.368963008418655E+02
             -0.216762418792858E+02
              0.471661411018465E+01
              0.375337420499513E+02
             -0.757079253073659E+02
             -0.120979542294852E+02
             -0.216810749635702E+02
              0.511539087013331E+02
              0.865793322064694E+02
             -0.966478815308317E+02
              0.945173373390768E+02
              0.468196800422887E+02
             -0.726431984478641E+02
             -0.366983268692389E+02
              0.752899062455192E+02
              0.632672547492509E+02
             -0.181286577228994E+02
             -0.464818052182528E+01
              0.735004840962904E+01
              0.650050898500391E+02
             -0.509205588974810E+02
              0.158530073223977E+02
             -0.473450864186974E+01
              0.348069528158301E+02
             -0.747841309931289E+02
             -0.648274793713507E+01
             -0.351337706041542E+02
              0.461323106257952E+02
              0.469278404604881E+02
             -0.863027772356592E+02
             -0.487640475762377E+02
             -0.256501945432907E+02
             -0.339973507252376E+02
             -0.109436237004786E+02
[...]
              0.283758766779465E+02
              0.141953682045959E+03
              0.242649068020346E+02
              0.122765021903995E+02
             -0.464917852348144E+02
             -0.638329649689572E+02
             -0.189066978116555E+02
              0.329836382265892E+02
             -0.427531751081983E+01
              0.190206454047540E+02
              0.336547080441528E+02
             -0.587276760848724E+02
              0.222654389492460E+02
              0.582332181397012E+02
              0.553523844905095E+02
             -0.421648052814817E+01
             -0.136348243447583E+01
             -0.993733661399617E+01
             -0.482683508228907E+02
             -0.675797355589301E+02
              0.786197252834171E+02
             -0.525007870631097E+01
             -0.588379516737964E+02
              0.173178762714707E+01
             -0.205628492845239E+02
              0.939278135363365E+02
             -0.216778997879707E+02
             -0.354057915310971E+02
              0.335641796798776E+02
             -0.145921830839765E+02
              0.390086697697191E+02
             -0.236544593630589E+01
              0.101176148074759E+03
              0.490289158990383E+02
             -0.507659952298617E+01
             -0.322408198787783E+02
              0.232594035359248E+02
             -0.529064243663580E+02
             -0.127933030304243E+02
              0.586397083826822E+02
             -0.287938405038605E+02
             -0.438767400323746E+02
             -0.223481656478270E+02
              0.519271746851158E+02
              0.124907765015690E+02
             -0.849632858560046E+02
              0.304193611350188E+02
              0.151991701680038E+02
              0.578049080412464E+01
             -0.513936161729182E+02
             -0.376006501983534E+01
              0.323459205881847E+02
              0.513172430917020E+02
              0.633268162624707E+02
              0.229404624519816E+02
              0.781412660084953E+00
             -0.498599316445392E+02
             -0.510370384962451E+02
             -0.748437403925013E+02
             -0.616763046896529E+01
              0.309308125747762E+02
             -0.377390469059361E+01
              0.547420454659878E+02
             -0.318291257696583E+02
              0.166732489808055E+02
             -0.102922762961111E+02
             -0.289733729073868E+02
              0.586168121513185E+02
              0.792369070578701E+01
              0.604869059198689E+02
              0.509262256590796E+01
              0.265179133994547E+02
             -0.192887288994521E+02
              0.586720490392963E+02
             -0.111564152539550E+02
             -0.129378108645724E+00
             -0.790935407282761E+02
             -0.128380243239460E+02
              0.719696446073124E+02
              0.673782449184602E+02
              0.252137160518779E+02
             -0.130596929321223E+02
              0.344549335633957E+01
             -0.173823127411336E+02
             -0.208970339429425E+01
              0.908664234943455E+02
              0.126101931469645E+01
             -0.190747789350675E+02
             -0.110854643172998E+03
             -0.552951561408079E+02
             -0.375351413627134E+02
             -0.659156030692967E+02
             -0.556082913604328E+02
             -0.683274334732571E+02
             -0.447501976120263E+02
             -0.411090210571219E+02
             -0.452380706223523E+02
              0.483863445359746E+02
             -0.294315957785127E+02
             -0.996152082216311E+02
              0.419260665812214E+02
             -0.260321841040294E+02
             -0.791640870814111E+02
              0.944879558149844E+02
             -0.219937791979148E+02
              0.228198857698846E+02
              0.455439395697956E+02
             -0.132909483104567E+01
              0.254666540973903E+02
              0.470146442570092E+01
              0.423369086736784E+00
             -0.150656390014818E+02
             -0.716355122785526E+02
              0.133264122152421E+02
             -0.129488711434494E+03
              0.624836465224847E+02
             -0.440965283815275E+02
             -0.163259164860203E+02
             -0.158481611124075E+02
              0.717101006308791E+01
             -0.227838316505668E+02
              0.297412528953990E+02
             -0.521221858091493E+02
              0.367487420458106E+02
              0.371198158430525E+02
              0.168473501773456E+02
              0.100520452496298E+02
              0.198039920558672E+02
              0.623502352253701E+01
              0.310648916393207E+02
             -0.797982762067903E+01
             -0.593059566727165E+02
              0.757776401011932E+01
             -0.153020915940211E+02
             -0.192913676376702E+01
              0.506772516399498E+02
             -0.827551959512494E+02
             -0.150010261620088E+01
              0.582103185835933E+00
              0.996566278074090E+01
              0.318738174445780E+02
             -0.123665303923634E+02
              0.836569770859179E+02
              0.487878244318907E+02
             -0.183377883890034E+02
             -0.957292321390798E+01
              0.107196992520898E+01
              0.770309017153676E+02
             -0.586701644951664E+02
             -0.105858636444887E+03
              0.309412081870838E+02
             -0.163181279012652E+02
             -0.139552327221302E+02
              0.130767146192005E+02
              0.769161553867114E+02
              0.464481321381552E+02
             -0.153590914293213E+02
             -0.503547647658769E+02
             -0.551455200116918E+01
              0.306657274274008E+02
             -0.111775707283379E+02
             -0.756536284179858E+02
             -0.272835216565065E+01
             -0.890873997098420E+02
             -0.476162327227171E+02
              0.769384843094493E+02
             -0.483988267954850E+02
             -0.637213499049677E+02
             -0.514768660753802E+02
             -0.350199268877483E+02
              0.341124509219747E+02
              0.822378875463422E+02
             -0.358221581470218E+01
              0.276833355542175E+02
             -0.183979669960061E+02
             -0.694608918332555E+02
              0.465509173246858E+02
             -0.445458553967279E+02
              0.321941595090315E+02
              0.376463717932505E+02
             -0.657779733537461E+01
              0.390757876936311E+02
              0.438650297061048E+02
              0.100781532456998E+03
             -0.156045435966321E+02
             -0.456735877980251E+02
             -0.613446522001393E+02
             -0.124195664420009E+02
             -0.233446759842392E+02
              0.103091890547877E+03
             -0.449356320829231E+02
              0.105317186466701E+02
              0.971729716677748E+01
             -0.264766990486947E+02
             -0.799601340512877E+02
             -0.699441299735219E+01
              0.980775744270964E+02
              0.941180388760456E+01
              0.809364360368551E+01
             -0.527592870780025E+02
             -0.605964663183595E+02
             -0.565735727358376E+01
              0.500852360591084E+02
             -0.222116722327226E+02
              0.108059689707531E+03
             -0.435928526758064E+02
              0.146524817880763E+02
             -0.224270712807803E+02
             -0.719012464823049E+02
              0.169078485330493E+01
             -0.502245856740008E+02
             -0.761326990703233E+02
              0.616971289376380E+01
              0.237046612040729E+01
              0.514528167769616E+02
              0.187562342751973E+02
             -0.323876320701795E+02
              0.230162906054293E+02
             -0.811756031790706E+02
             -0.522161988009356E+02
              0.902595065595333E+02
              0.142347760334644E+02
             -0.187960875854709E+02
             -0.352552288321939E+02
             -0.268982710518901E+01
             -0.588775060187027E+01
              0.830924844918403E+02
              0.418012242446283E+02
             -0.166091949410066E+02
             -0.121807769285671E+02
             -0.427929034295331E+02
             -0.200696374058534E+02
             -0.670546064424006E+02
              0.460098672576043E+02
              0.546344867094518E+01
              0.144890183806248E+02
              0.156336500508103E+02
             -0.584700853879308E+00
             -0.168656210948922E+02
             -0.306216661525648E+01
             -0.100534501742503E+03
             -0.229877253672308E+02
             -0.765431973390497E+01
             -0.948695632965837E+01
              0.546876879528518E+02
              0.624379763873829E+02
              0.165024315914868E+02
             -0.971378220616274E+02
              0.648150518807718E+02
             -0.215249724624608E+02
             -0.377354680490157E+02
             -0.864986055227788E+02
             -0.387077255219855E+02
              0.565090864485869E+02
              0.244465592451550E+02
              0.515083923854348E+01
              0.292611910491323E+02
             -0.565344399688861E+02
             -0.422799887920427E+02
              0.515863308446970E+02
              0.387622398544711E+02
              0.519285888576990E+02
             -0.120270994575131E+01
              0.686276245744261E+01
              0.569913923450497E+02
              0.963577331449853E+02
             -0.300342958255572E+02
              0.323171785877307E+02
             -0.118880531865148E+02
             -0.412489490052509E+02
             -0.314556028452757E+02
             -0.300451707086735E+02
             -0.131513448832747E+02
             -0.523878955624997E+02
             -0.217317745633234E+02
             -0.141265031994046E+03
              0.369080899339002E+02
              0.207182986510289E+02
             -0.394238537245216E+01
             -0.380287764153717E+02
             -0.204347683384985E+02
             -0.527379645502930E+02
              0.151123992007933E+02
              0.820669129571609E+02
             -0.252334708060444E+02
             -0.163192454700902E+02
              0.238298519424869E+02
             -0.489756910536597E+02
              0.881187113920970E+02
              0.154518565784439E+02
              0.226255729554501E+02
              0.490731910508752E+02
              0.319639511050093E+01
              0.542655321371606E+02
              0.143224333559207E+02
             -0.106470130750367E+02
              0.734092972102468E+01
              0.781536611188358E+00
              0.727772684588118E+02
              0.101095811113801E+02
              0.120723216697785E+02
             -0.130085692767531E+02
              0.132324675432974E+02
             -0.912016056153323E+02
             -0.326042273567779E+02
             -0.457827384601279E+02
              0.485674613074249E+02
             -0.291452195393533E+02
             -0.658837798651473E+02
              0.538970861262975E+02
             -0.122139415496344E+02
              0.440392712546001E+02
             -0.899408005403498E+02
              0.232065029688671E+02
              0.857861422073819E+01
              0.584261998634702E+01
             -0.834286404992702E+01
             -0.904687887260548E+01
              0.479775900820384E+02
              0.200333136282052E+01
             -0.475627465015364E+02
             -0.176336061767298E+02
              0.276753900348670E+02
             -0.118020401887703E+03
             -0.930439976980323E+02
              0.396473762653949E+01
              0.117863361362960E+02
             -0.413662486897428E+02
             -0.387796367878650E+01
              0.112193227189189E+03
              0.306777277207149E+02
             -0.571999458061382E+02
              0.925896514436724E+01
             -0.966056657108284E+01
              0.105701785491424E+02
             -0.337957815457340E+02
              0.195619795324224E+02
              0.284769498668318E+02
             -0.300969415578987E+01
              0.108272506984460E+03
             -0.140187581607177E+02
             -0.316168053190137E+02
              0.143369478931963E+02
              0.466954649721928E+02
             -0.356005994557214E+02
             -0.317981857304410E+01
              0.965575572369223E+02
             -0.464703960817144E+01
              0.622042546779791E+02
              0.135586494801806E+02
             -0.902813921231710E+01
             -0.305399698014354E+02
              0.566919569850874E+02
             -0.514786650289640E+02
             -0.220629380184852E+01
             -0.170266966177855E+02
             -0.405494983828930E+02
              0.184953013033202E+02
              0.239404232675980E+02
              0.115953068832952E+02
              0.723507997024285E+00
             -0.384965162947221E+02
              0.215579194667604E+02
             -0.674331475246112E+01
             -0.246702310379170E+02
             -0.210776347915690E+02
              0.203432817957384E+02
             -0.595819150925604E+01
             -0.349509128394799E+02
             -0.106715366362856E+03
              0.102992743212822E+02
              0.248733405821174E+02
             -0.387652526344483E+02
             -0.211182583116411E+02
              0.807702654278185E+02
              0.652905690028163E+01
              0.311296431080095E+02
              0.392796474490044E+01
              0.322234421560805E+02
              0.645639036046748E+01
             -0.373303138757167E+02
             -0.233819837049447E+01
              0.876758700283563E+01
              0.274143878510633E+02
              0.782491845600396E+02
              0.507884763765293E+02
              0.182965347806203E+00
              0.169084859324670E+02
              0.613684660532777E+02
              0.236191099329107E+02
             -0.753420183137887E+02
             -0.273941119717223E+02
              0.151051086540215E+02
              0.563167430253543E+01
              0.255315061633980E+02
             -0.548210928492185E+02
              0.899016099601309E+01
              0.386255474304938E+02
              0.498473786080362E+02
             -0.435298047554479E+02
             -0.689545799999530E+01
             -0.208506499202610E+01
             -0.134063977100786E+02
             -0.365808624626213E+02
             -0.215319167877706E+02
             -0.204444735726850E+01
              0.794114162521004E+01
              0.421722776690292E+02
             -0.308710315686120E+02
              0.826848091841534E+02
              0.327824320353469E+02
              0.219938734783142E+02
              0.333305248195373E+02
              0.323316520259327E+02
              0.346441615388029E+02
              0.537679614734767E+02
             -0.434285709010090E+02
              0.620110320799294E+02
             -0.112359707150482E+03
              0.307651739731794E+02
             -0.106614956153646E+03
              0.855391400094250E+02
              0.691338967578682E+02
             -0.109946139158961E+02
             -0.493608053833007E+02
             -0.429875275389909E+02
             -0.623968521727658E+02
             -0.629330610726650E+02
              0.552208979879960E+02
              0.405886584227554E+02
              0.237074467387968E+02
              0.374010708165679E+02
              0.403650515804363E+02
             -0.382504045012374E+02
             -0.197942577909774E+02
              0.586884326546682E+02
             -0.116085728361893E+02
              0.552122270507612E+02
              0.700151682124574E+02
             -0.554419841712427E+01
             -0.706969786995287E+02
             -0.896146640294887E+00
             -0.246257421817766E+01
             -0.883848096723284E+01
             -0.178944328542184E+01
             -0.653467208781880E+02
             -0.210773430220239E+02
              0.540831887634211E+01
              0.900303330217773E+01
              0.469369903759095E+02
             -0.398200714731742E+02
              0.657768308870467E+02
             -0.425638141440857E+02
              0.210635704841333E+02
              0.350763358107026E+02
 
 BEEF-vdW xc energy contributions
           1 :   -783.571780046597     
           2 :    719.881968117030     
           3 :   -609.547248724728     
           4 :    479.550887981732     
           5 :   -357.385803677980     
           6 :    262.937810361069     
           7 :   -203.940888330927     
           8 :    175.912235622497     
           9 :   -166.163289313197     
          10 :    159.981373157961     
          11 :   -146.453946196096     
          12 :    121.737584717184     
          13 :   -88.9158725734030     
          14 :    55.0736725455009     
          15 :   -27.2761156510180     
          16 :    9.27644143039527     
          17 :  -0.234942588932086     
          18 :   -4.29772904980382     
          19 :    9.86007356522430     
          20 :   -20.3532438799034     
          21 :    36.3597022276772     
          22 :   -55.1696450744387     
          23 :    72.3293898063473     
          24 :   -83.8643011598710     
          25 :    88.0867445844505     
          26 :   -86.1968654222482     
          27 :    81.4928902843093     
          28 :   -77.6689662020447     
          29 :    77.0609109942911     
          30 :   -79.6657189360345     
          31 :   -85.9956069900337     
          32 :   -65.9267749169749     

     Writing output data file ./pwscf.save/
 
     init_run     :    323.33s CPU    327.89s WALL (       1 calls)
     electrons    :  13989.12s CPU  14135.28s WALL (       1 calls)
     forces       :    101.56s CPU    102.88s WALL (       1 calls)

     Called by init_run:
     wfcinit      :    275.39s CPU    278.95s WALL (       1 calls)
     potinit      :     44.93s CPU     45.27s WALL (       1 calls)
     hinit0       :      1.16s CPU      1.19s WALL (       1 calls)

     Called by electrons:
     c_bands      :  11752.84s CPU  11866.96s WALL (      22 calls)
     sum_band     :   1577.29s CPU   1591.33s WALL (      22 calls)
     v_of_rho     :    115.68s CPU    120.55s WALL (      22 calls)
     newd         :     32.93s CPU     46.24s WALL (      22 calls)
     PAW_pot      :    154.48s CPU    154.48s WALL (      22 calls)
     mix_rho      :    401.50s CPU    402.18s WALL (      22 calls)
     vdW_kernel   :     33.86s CPU     33.86s WALL (       1 calls)

     Called by c_bands:
     init_us_2    :     85.41s CPU     85.66s WALL (     598 calls)
     cegterg      :  10834.94s CPU  10948.76s WALL (     286 calls)

     Called by *egterg:
     cdiaghg      :    127.38s CPU    127.41s WALL (    1777 calls)
     h_psi        :   6746.27s CPU   6785.41s WALL (    1803 calls)
     s_psi        :   1214.98s CPU   1215.02s WALL (    1803 calls)
     g_psi        :     18.21s CPU     18.22s WALL (    1504 calls)

     Called by h_psi:
     h_psi:calbec :   1124.41s CPU   1124.54s WALL (    1803 calls)
     vloc_psi     :   4380.24s CPU   4381.29s WALL (    1803 calls)
     add_vuspsi   :   1213.06s CPU   1213.14s WALL (    1803 calls)

     General routines
     calbec       :   1643.82s CPU   1643.97s WALL (    2141 calls)
     fft          :     50.83s CPU     50.84s WALL (    3342 calls)
     ffts         :    129.84s CPU    129.86s WALL (    9514 calls)
     fftw         :   4561.75s CPU   4562.32s WALL (  367398 calls)
 
     Parallel routines
 
     PWSCF        :      4h 2m CPU      4h 4m WALL

 
   This run was terminated on:   2:51:42   4Jan2023            

=------------------------------------------------------------------------------=
   JOB DONE.
=------------------------------------------------------------------------------=
