
     Program PWSCF v.6.7MaX starts on  3Jan2023 at 22:46: 5 

     This program is part of the open-source Quantum ESPRESSO suite
     for quantum simulation of materials; please cite
         "P. Giannozzi et al., J. Phys.:Condens. Matter 21 395502 (2009);
         "P. Giannozzi et al., J. Phys.:Condens. Matter 29 465901 (2017);
          URL http://www.quantum-espresso.org", 
     in publications or presentations arising from this work. More details at
     http://www.quantum-espresso.org/quote

     Parallel version (MPI), running on     1 processors

     MPI processes distributed on     1 nodes
     Reading input from chcch3-ensemble.in
Warning: card &CELL ignored
Warning: card / ignored

     Current dimensions of program PWSCF are:
     Max number of different atomic species (ntypx) = 10
     Max number of k-points (npk) =  40000
     Max angular momentum in pseudopotentials (lmaxx) =  3
     file Pt.pbe-n-kjpaw_psl.1.0.0.UPF: wavefunction(s)  6S 5D renormalized
     file C.pbe-n-kjpaw_psl.1.0.0.UPF: wavefunction(s)  2S 2P renormalized
     file H.pbe-kjpaw_psl.1.0.0.UPF: wavefunction(s)  1S renormalized

     **************************************************************************
     Initializing libbeef V0.1.2 with the BEEF-vdW functional.
     Citation: Wellendorff et al., PRB 85, 235149 (2012).
     **************************************************************************


     IMPORTANT: XC functional enforced from input :
     Exchange-correlation= BEEF-VDW
                           (   1   4  43  14   2   0   0)
     Any further DFT definition will be discarded
     Please, verify this is what you really want


     Subspace diagonalization in iterative solution of the eigenvalue problem:
     a serial algorithm will be used

 
     G-vector sticks info
     --------------------
     sticks:   dense  smooth     PW     G-vecs:    dense   smooth      PW
     Sum        4267    4267   1159               760235   760235  107149
 


     bravais-lattice index     =            0
     lattice parameter (alat)  =      16.0349  a.u.
     unit-cell volume          =   12103.5045 (a.u.)^3
     number of atoms/cell      =           43
     number of atomic types    =            3
     number of electrons       =       376.00
     number of Kohn-Sham states=          226
     kinetic-energy cutoff     =      60.0000  Ry
     charge density cutoff     =     240.0000  Ry
     scf convergence threshold =      1.0E-06
     mixing beta               =       0.7000
     number of iterations used =            8  local-TF  mixing
     Exchange-correlation= BEEF-VDW
                           (   1   4  43  14   2   0   0)

     celldm(1)=  16.034858  celldm(2)=   0.000000  celldm(3)=   0.000000
     celldm(4)=   0.000000  celldm(5)=   0.000000  celldm(6)=   0.000000

     crystal axes: (cart. coord. in units of alat)
               a(1) = (   1.000000   0.000000   0.000000 )  
               a(2) = (   0.500000   0.866025   0.000000 )  
               a(3) = (   0.000000   0.000000   3.389887 )  

     reciprocal axes: (cart. coord. in units 2 pi/alat)
               b(1) = (  1.000000 -0.577350  0.000000 )  
               b(2) = (  0.000000  1.154701  0.000000 )  
               b(3) = (  0.000000  0.000000  0.294995 )  


     PseudoPot. # 1 for Pt read from file:
     /users/bkreitz1/quantum-espresso/potentials/Pt.pbe-n-kjpaw_psl.1.0.0.UPF
     MD5 check sum: 04dc8a03c51ece93fc7b5889c2958091
     Pseudo is Projector augmented-wave + core cor, Zval = 10.0
     Generated using 'atomic' code by A. Dal Corso  v.6.7MaX
     Shape of augmentation charge: PSQ
     Using radial grid of 1277 points,  6 beta functions with: 
                l(1) =   0
                l(2) =   0
                l(3) =   1
                l(4) =   1
                l(5) =   2
                l(6) =   2
     Q(r) pseudized with 0 coefficients 


     PseudoPot. # 2 for C  read from file:
     /users/bkreitz1/quantum-espresso/potentials/C.pbe-n-kjpaw_psl.1.0.0.UPF
     MD5 check sum: a169b0ebad56f5ec0d79c4633f80bf22
     Pseudo is Projector augmented-wave + core cor, Zval =  4.0
     Generated using 'atomic' code by A. Dal Corso  v.6.7MaX
     Shape of augmentation charge: PSQ
     Using radial grid of 1073 points,  4 beta functions with: 
                l(1) =   0
                l(2) =   0
                l(3) =   1
                l(4) =   1
     Q(r) pseudized with 0 coefficients 


     PseudoPot. # 3 for H  read from file:
     /users/bkreitz1/quantum-espresso/potentials/H.pbe-kjpaw_psl.1.0.0.UPF
     MD5 check sum: ae98473e6dc62675f0d0baffdab24f65
     Pseudo is Projector augmented-wave, Zval =  1.0
     Generated using 'atomic' code by A. Dal Corso  v.6.7MaX
     Shape of augmentation charge: PSQ
     Using radial grid of  929 points,  2 beta functions with: 
                l(1) =   0
                l(2) =   0
     Q(r) pseudized with 0 coefficients 


     atomic species   valence    mass     pseudopotential
        Pt            10.00   195.08400     Pt( 1.00)
        C              4.00    12.01100     C ( 1.00)
        H              1.00     1.00800     H ( 1.00)

     No symmetry found



   Cartesian axes

     site n.     atom                  positions (alat units)
         1           Pt  tau(   1) = (   0.0000000   0.0000000   1.0017346  )
         2           Pt  tau(   2) = (   0.3333333   0.0000000   1.0017346  )
         3           Pt  tau(   3) = (   0.6666667   0.0000000   1.0017346  )
         4           Pt  tau(   4) = (   0.1666667   0.2886751   1.0017346  )
         5           Pt  tau(   5) = (   0.5000000   0.2886751   1.0017346  )
         6           Pt  tau(   6) = (   0.8333333   0.2886751   1.0017346  )
         7           Pt  tau(   7) = (   0.3333333   0.5773503   1.0017346  )
         8           Pt  tau(   8) = (   0.6666667   0.5773503   1.0017346  )
         9           Pt  tau(   9) = (   1.0000000   0.5773503   1.0017346  )
        10           Pt  tau(  10) = (   0.1666667   0.0962250   1.2739001  )
        11           Pt  tau(  11) = (   0.5000000   0.0962250   1.2739001  )
        12           Pt  tau(  12) = (   0.8333333   0.0962250   1.2739001  )
        13           Pt  tau(  13) = (   0.3333333   0.3849002   1.2739001  )
        14           Pt  tau(  14) = (   0.6666667   0.3849002   1.2739001  )
        15           Pt  tau(  15) = (   1.0000000   0.3849002   1.2739001  )
        16           Pt  tau(  16) = (   0.5000000   0.6735753   1.2739001  )
        17           Pt  tau(  17) = (   0.8333333   0.6735753   1.2739001  )
        18           Pt  tau(  18) = (   1.1666667   0.6735753   1.2739001  )
        19           Pt  tau(  19) = (  -0.0011412   0.1930229   1.5433609  )
        20           Pt  tau(  20) = (   0.3324361   0.1928476   1.5425914  )
        21           Pt  tau(  21) = (   0.6661696   0.1929527   1.5429702  )
        22           Pt  tau(  22) = (   0.1659274   0.4813615   1.5425469  )
        23           Pt  tau(  23) = (   0.4990050   0.4813450   1.5421158  )
        24           Pt  tau(  24) = (   0.8326981   0.4812669   1.5424225  )
        25           Pt  tau(  25) = (   0.3326386   0.7702058   1.5426291  )
        26           Pt  tau(  26) = (   0.6657941   0.7704835   1.5422902  )
        27           Pt  tau(  27) = (   0.9991513   0.7702038   1.5423593  )
        28           Pt  tau(  28) = (  -0.0020267   0.0010071   1.8170631  )
        29           Pt  tau(  29) = (   0.3314060   0.0010566   1.8165213  )
        30           Pt  tau(  30) = (   0.6646640   0.0006650   1.8165117  )
        31           Pt  tau(  31) = (   0.1646250   0.2897133   1.8169320  )
        32           Pt  tau(  32) = (   0.4977319   0.2896417   1.8164005  )
        33           Pt  tau(  33) = (   0.8311749   0.2903440   1.8186653  )
        34           Pt  tau(  34) = (   0.3312566   0.5784383   1.8164969  )
        35           Pt  tau(  35) = (   0.6642074   0.5785828   1.8148290  )
        36           Pt  tau(  36) = (   0.9984657   0.5785451   1.8162065  )
        37           C   tau(  37) = (   0.7497725   0.3045535   2.2007791  )
        38           C   tau(  38) = (   0.7648421   0.4430786   2.2313660  )
        39           C   tau(  39) = (   0.7818565   0.6093105   2.2700124  )
        40           H   tau(  40) = (   0.7366181   0.1820814   2.1783754  )
        41           H   tau(  41) = (   0.9059368   0.6439042   2.2722019  )
        42           H   tau(  42) = (   0.7220516   0.6832127   2.1831015  )
        43           H   tau(  43) = (   0.7307324   0.6343902   2.3867146  )

     number of k points=    13  Marzari-Vanderbilt smearing, width (Ry)=  0.0200
                       cart. coord. in units 2pi/alat
        k(    1) = (   0.0000000   0.0000000   0.0000000), wk =   0.0800000
        k(    2) = (   0.0000000   0.2309401   0.0000000), wk =   0.1600000
        k(    3) = (   0.0000000   0.4618802   0.0000000), wk =   0.1600000
        k(    4) = (   0.2000000  -0.1154701   0.0000000), wk =   0.1600000
        k(    5) = (   0.2000000   0.1154701   0.0000000), wk =   0.1600000
        k(    6) = (   0.2000000   0.3464102   0.0000000), wk =   0.1600000
        k(    7) = (   0.2000000  -0.5773503   0.0000000), wk =   0.1600000
        k(    8) = (   0.2000000  -0.3464102   0.0000000), wk =   0.1600000
        k(    9) = (   0.4000000  -0.2309401   0.0000000), wk =   0.1600000
        k(   10) = (   0.4000000  -0.0000000   0.0000000), wk =   0.1600000
        k(   11) = (   0.4000000   0.2309401   0.0000000), wk =   0.1600000
        k(   12) = (   0.4000000  -0.6928203   0.0000000), wk =   0.1600000
        k(   13) = (   0.4000000  -0.4618802   0.0000000), wk =   0.1600000

     Dense  grid:   760235 G-vectors     FFT dimensions: (  80,  80, 270)

     Estimated max dynamical RAM per process >       9.23 GB

     Check: negative core charge=   -0.000002

     Initial potential from superposition of free atoms

     starting charge  375.99373, renormalised to  376.00000

     negative rho (up, down):  1.120E-02 0.000E+00


     %%%%%%%%%%%%%%%%%%%%%%%%%%%%%%%%%%%%%%%%%%%%%%%%%%%%%%%%%%%%%%%%%%%%%%%%
     %                                                                      %
     % You are using vdW-DF, which was implemented by the Thonhauser group. %
     % Please cite the following two papers that made this development      %
     % possible and the two reviews that describe the various versions:     %
     %                                                                      %
     %   T. Thonhauser et al., PRL 115, 136402 (2015).                      %
     %   T. Thonhauser et al., PRB 76, 125112 (2007).                       %
     %   K. Berland et al., Rep. Prog. Phys. 78, 066501 (2015).             %
     %   D.C. Langreth et al., J. Phys.: Condens. Matter 21, 084203 (2009). %
     %                                                                      %
     %                                                                      %
     % If you are calculating the stress with vdW-DF, please also cite:     %
     %                                                                      %
     %   R. Sabatini et al., J. Phys.: Condens. Matter 24, 424209 (2012).   %
     %                                                                      %
     %%%%%%%%%%%%%%%%%%%%%%%%%%%%%%%%%%%%%%%%%%%%%%%%%%%%%%%%%%%%%%%%%%%%%%%%


     Starting wfcs are  340 randomized atomic wfcs
     Checking if some PAW data can be deallocated... 

     total cpu time spent up to now is      349.5 secs

     Self-consistent Calculation

     iteration #  1     ecut=    60.00 Ry     beta= 0.70
     Davidson diagonalization with overlap
     ethr =  1.00E-02,  avg # of iterations =  2.5

     Threshold (ethr) on eigenvalues was too large:
     Diagonalizing with lowered threshold

     Davidson diagonalization with overlap
     ethr =  6.22E-04,  avg # of iterations =  4.1

     negative rho (up, down):  1.072E-02 0.000E+00

     total cpu time spent up to now is     1754.7 secs

     total energy              =  -27815.90059708 Ry
     estimated scf accuracy    <       2.57272239 Ry

     iteration #  2     ecut=    60.00 Ry     beta= 0.70
     Davidson diagonalization with overlap
     ethr =  6.84E-04,  avg # of iterations =  3.0

     negative rho (up, down):  9.260E-03 0.000E+00

     total cpu time spent up to now is     2380.4 secs

     total energy              =  -27815.95678795 Ry
     estimated scf accuracy    <       1.10985758 Ry

     iteration #  3     ecut=    60.00 Ry     beta= 0.70
     Davidson diagonalization with overlap
     ethr =  2.95E-04,  avg # of iterations =  5.5

     negative rho (up, down):  5.387E-03 0.000E+00

     total cpu time spent up to now is     3036.8 secs

     total energy              =  -27815.96061690 Ry
     estimated scf accuracy    <       0.34727623 Ry

     iteration #  4     ecut=    60.00 Ry     beta= 0.70
     Davidson diagonalization with overlap
     c_bands:  1 eigenvalues not converged
     ethr =  9.24E-05,  avg # of iterations = 13.3

     negative rho (up, down):  3.468E-03 0.000E+00

     total cpu time spent up to now is     3937.3 secs

     total energy              =  -27816.02309029 Ry
     estimated scf accuracy    <       0.09048021 Ry

     iteration #  5     ecut=    60.00 Ry     beta= 0.70
     Davidson diagonalization with overlap
     ethr =  2.41E-05,  avg # of iterations =  8.4

     negative rho (up, down):  2.423E-03 0.000E+00

     total cpu time spent up to now is     4698.9 secs

     total energy              =  -27816.02899238 Ry
     estimated scf accuracy    <       0.03433682 Ry

     iteration #  6     ecut=    60.00 Ry     beta= 0.70
     Davidson diagonalization with overlap
     c_bands:  1 eigenvalues not converged
     c_bands:  1 eigenvalues not converged
     c_bands:  1 eigenvalues not converged
     c_bands:  2 eigenvalues not converged
     c_bands:  1 eigenvalues not converged
     c_bands:  1 eigenvalues not converged
     ethr =  9.13E-06,  avg # of iterations = 15.9

     negative rho (up, down):  2.174E-03 0.000E+00

     total cpu time spent up to now is     5516.2 secs

     total energy              =  -27816.03055507 Ry
     estimated scf accuracy    <       0.06813114 Ry

     iteration #  7     ecut=    60.00 Ry     beta= 0.70
     Davidson diagonalization with overlap
     c_bands:  1 eigenvalues not converged
     c_bands:  1 eigenvalues not converged
     c_bands:  2 eigenvalues not converged
     c_bands:  1 eigenvalues not converged
     c_bands:  1 eigenvalues not converged
     ethr =  9.13E-06,  avg # of iterations = 15.5

     negative rho (up, down):  3.713E-03 0.000E+00

     total cpu time spent up to now is     6254.9 secs

     total energy              =  -27816.02963224 Ry
     estimated scf accuracy    <       0.02753737 Ry

     iteration #  8     ecut=    60.00 Ry     beta= 0.70
     Davidson diagonalization with overlap
     c_bands:  1 eigenvalues not converged
     c_bands:  2 eigenvalues not converged
     c_bands:  1 eigenvalues not converged
     ethr =  7.32E-06,  avg # of iterations = 14.3

     negative rho (up, down):  1.827E-02 0.000E+00

     total cpu time spent up to now is     6981.8 secs

     total energy              =  -27816.02987240 Ry
     estimated scf accuracy    <       0.02742087 Ry

     iteration #  9     ecut=    60.00 Ry     beta= 0.70
     Davidson diagonalization with overlap
     c_bands:  2 eigenvalues not converged
     ethr =  7.29E-06,  avg # of iterations =  9.9

     negative rho (up, down):  2.496E-02 0.000E+00

     total cpu time spent up to now is     7640.2 secs

     total energy              =  -27816.03011774 Ry
     estimated scf accuracy    <       0.00651871 Ry

     iteration # 10     ecut=    60.00 Ry     beta= 0.70
     Davidson diagonalization with overlap
     c_bands:  1 eigenvalues not converged
     c_bands:  1 eigenvalues not converged
     c_bands:  2 eigenvalues not converged
     c_bands:  3 eigenvalues not converged
     ethr =  1.73E-06,  avg # of iterations = 14.8

     negative rho (up, down):  2.631E-02 0.000E+00

     total cpu time spent up to now is     8399.7 secs

     total energy              =  -27816.03027185 Ry
     estimated scf accuracy    <       0.00263114 Ry

     iteration # 11     ecut=    60.00 Ry     beta= 0.70
     Davidson diagonalization with overlap
     c_bands:  1 eigenvalues not converged
     ethr =  7.00E-07,  avg # of iterations =  5.7

     negative rho (up, down):  2.098E-02 0.000E+00

     total cpu time spent up to now is     9025.4 secs

     total energy              =  -27816.03012254 Ry
     estimated scf accuracy    <       0.00108283 Ry

     iteration # 12     ecut=    60.00 Ry     beta= 0.70
     Davidson diagonalization with overlap
     c_bands:  1 eigenvalues not converged
     ethr =  2.88E-07,  avg # of iterations = 13.9

     negative rho (up, down):  1.908E-02 0.000E+00

     total cpu time spent up to now is     9759.2 secs

     total energy              =  -27816.03010499 Ry
     estimated scf accuracy    <       0.00046751 Ry

     iteration # 13     ecut=    60.00 Ry     beta= 0.70
     Davidson diagonalization with overlap
     ethr =  1.24E-07,  avg # of iterations =  2.6

     negative rho (up, down):  1.786E-02 0.000E+00

     total cpu time spent up to now is    10364.3 secs

     total energy              =  -27816.03009887 Ry
     estimated scf accuracy    <       0.00018268 Ry

     iteration # 14     ecut=    60.00 Ry     beta= 0.70
     Davidson diagonalization with overlap
     ethr =  4.86E-08,  avg # of iterations =  5.2

     negative rho (up, down):  1.728E-02 0.000E+00

     total cpu time spent up to now is    11032.7 secs

     total energy              =  -27816.03010482 Ry
     estimated scf accuracy    <       0.00007213 Ry

     iteration # 15     ecut=    60.00 Ry     beta= 0.70
     Davidson diagonalization with overlap
     ethr =  1.92E-08,  avg # of iterations =  4.4

     negative rho (up, down):  1.557E-02 0.000E+00

     total cpu time spent up to now is    11698.4 secs

     total energy              =  -27816.03009983 Ry
     estimated scf accuracy    <       0.00002920 Ry

     iteration # 16     ecut=    60.00 Ry     beta= 0.70
     Davidson diagonalization with overlap
     ethr =  7.77E-09,  avg # of iterations =  4.6

     negative rho (up, down):  1.506E-02 0.000E+00

     total cpu time spent up to now is    12374.9 secs

     total energy              =  -27816.03009936 Ry
     estimated scf accuracy    <       0.00002800 Ry

     iteration # 17     ecut=    60.00 Ry     beta= 0.70
     Davidson diagonalization with overlap
     ethr =  7.45E-09,  avg # of iterations =  2.0

     negative rho (up, down):  1.448E-02 0.000E+00

     total cpu time spent up to now is    12956.2 secs

     total energy              =  -27816.03009811 Ry
     estimated scf accuracy    <       0.00001189 Ry

     iteration # 18     ecut=    60.00 Ry     beta= 0.70
     Davidson diagonalization with overlap
     ethr =  3.16E-09,  avg # of iterations =  2.0

     negative rho (up, down):  1.389E-02 0.000E+00

     total cpu time spent up to now is    13552.4 secs

     total energy              =  -27816.03009698 Ry
     estimated scf accuracy    <       0.00001076 Ry

     iteration # 19     ecut=    60.00 Ry     beta= 0.70
     Davidson diagonalization with overlap
     ethr =  2.86E-09,  avg # of iterations =  2.0

     negative rho (up, down):  1.336E-02 0.000E+00

     total cpu time spent up to now is    14126.4 secs

     total energy              =  -27816.03009644 Ry
     estimated scf accuracy    <       0.00000618 Ry

     iteration # 20     ecut=    60.00 Ry     beta= 0.70
     Davidson diagonalization with overlap
     c_bands:  1 eigenvalues not converged
     ethr =  1.64E-09,  avg # of iterations =  3.4

     negative rho (up, down):  1.302E-02 0.000E+00

     total cpu time spent up to now is    14730.2 secs

     total energy              =  -27816.03009685 Ry
     estimated scf accuracy    <       0.00000296 Ry

     iteration # 21     ecut=    60.00 Ry     beta= 0.70
     Davidson diagonalization with overlap
     ethr =  7.87E-10,  avg # of iterations =  2.4

     negative rho (up, down):  1.256E-02 0.000E+00

     total cpu time spent up to now is    15335.0 secs

     total energy              =  -27816.03009767 Ry
     estimated scf accuracy    <       0.00000115 Ry

     iteration # 22     ecut=    60.00 Ry     beta= 0.70
     Davidson diagonalization with overlap
     ethr =  3.05E-10,  avg # of iterations =  4.0

     negative rho (up, down):  1.249E-02 0.000E+00

     total cpu time spent up to now is    16055.9 secs

     total energy              =  -27816.03009805 Ry
     estimated scf accuracy    <       0.00000105 Ry

     iteration # 23     ecut=    60.00 Ry     beta= 0.70
     Davidson diagonalization with overlap
     ethr =  2.80E-10,  avg # of iterations =  1.2

     negative rho (up, down):  1.252E-02 0.000E+00

     total cpu time spent up to now is    16574.1 secs

     End of self-consistent calculation

          k = 0.0000 0.0000 0.0000 ( 95019 PWs)   bands (ev):

   -13.0030 -11.0010  -7.3872  -6.6558  -6.0752  -5.0016  -4.9706  -4.9669
    -4.9644  -4.9629  -4.9606  -4.9595  -4.9528  -4.6903  -4.4082  -4.4075
    -4.4067  -4.4056  -4.4043  -4.4041  -4.1005  -4.0731  -3.9338  -3.9332
    -3.9318  -3.9299  -3.9290  -3.9276  -3.7176  -3.7158  -3.7152  -3.7142
    -3.7138  -3.7126  -3.4905  -3.4889  -3.4825  -3.4819  -3.4716  -3.4699
    -3.4691  -3.4681  -3.4660  -3.4632  -3.4532  -3.4489  -2.8718  -2.8715
    -2.8398  -2.8369  -2.7857  -2.7843  -2.7827  -2.7811  -2.7801  -2.7788
    -2.6452  -2.6439  -2.5445  -2.5411  -2.0415  -2.0374  -2.0372  -2.0348
    -2.0332  -2.0295  -1.9704  -1.8803  -1.8801  -1.8506  -1.8489  -1.8357
    -1.8341  -1.8238  -1.8183  -1.8165  -1.8156  -1.8146  -1.8132  -1.8103
    -1.7774  -1.7772  -1.6287  -1.6262  -1.6231  -1.6224  -1.6164  -1.6129
    -1.4764  -1.4677  -1.4652  -1.4609  -1.4599  -1.4566  -1.3685  -1.3674
    -1.2708  -1.2688  -1.2080  -1.2067  -1.2040  -1.1995  -1.1612  -1.1606
    -1.1503  -1.1500  -1.0289  -1.0019  -1.0004  -0.9980  -0.9947  -0.9915
    -0.9845  -0.5025  -0.5014  -0.4987  -0.4978  -0.4976  -0.4949  -0.4844
    -0.4342  -0.4283  -0.4254  -0.4249  -0.4213  -0.3561  -0.3505  -0.2959
    -0.2248  -0.1845  -0.1823  -0.1810  -0.1752  -0.0631  -0.0539  -0.0437
    -0.0378  -0.0249  -0.0241  -0.0217   0.0320   0.2298   0.2307   0.2312
     0.2328   0.2340   0.2368   0.3083   0.3160   0.4893   0.4899   0.4937
     0.4968   0.4993   0.5148   0.6617   0.6644   0.6652   0.6665   0.6678
     0.6714   0.7054   0.7069   0.7075   0.7104   0.7205   0.7598   0.8397
     0.8425   0.8598   0.8599   0.8614   0.8634   0.8646   0.8653   0.9630
     0.9670   0.9689   0.9701   0.9720   0.9739   0.9744   0.9766   1.0673
     1.0697   1.0736   1.0744   1.0752   1.0757   1.1695   1.1736   1.1813
     1.1827   1.1864   1.1873   1.3047   1.3930   1.4081   1.5034   1.5063
     1.5090   1.5108   1.5117   1.5138   2.3389   2.3864   2.3899   2.3916
     2.4027   2.4072   2.4895   4.6985   4.7064   4.7110   4.7297   4.7403
     4.7739   5.5625   6.2488   6.2603   6.2649   6.3071   6.3163   6.3233
     6.3254   6.5258

          k = 0.0000 0.2309 0.0000 ( 94958 PWs)   bands (ev):

   -13.0029 -11.0013  -7.2402  -6.6538  -5.9308  -5.4791  -5.0829  -5.0788
    -4.8545  -4.8179  -4.7721  -4.7336  -4.7281  -4.6913  -4.5216  -4.5015
    -4.3456  -4.3437  -4.3268  -4.3239  -4.0970  -4.0724  -4.0482  -3.9140
    -3.9116  -3.8819  -3.8744  -3.8161  -3.8129  -3.7476  -3.7443  -3.7432
    -3.7399  -3.6563  -3.6385  -3.6363  -3.5150  -3.5141  -3.5125  -3.4555
    -3.4533  -3.2994  -3.2927  -3.2633  -3.2607  -3.2346  -2.9976  -2.9948
    -2.9528  -2.9094  -2.9055  -2.8648  -2.8627  -2.6884  -2.6859  -2.6213
    -2.6152  -2.5740  -2.5417  -2.5376  -2.3375  -2.2404  -2.2381  -2.1603
    -2.1532  -2.1176  -2.0778  -2.0362  -2.0336  -2.0174  -1.9954  -1.9937
    -1.9490  -1.8768  -1.8648  -1.8490  -1.8405  -1.7750  -1.7486  -1.7456
    -1.6983  -1.6885  -1.6831  -1.6159  -1.5792  -1.5744  -1.5660  -1.5588
    -1.4687  -1.4634  -1.4612  -1.4562  -1.4448  -1.3725  -1.3696  -1.3531
    -1.3388  -1.2820  -1.2781  -1.2729  -1.2255  -1.2214  -1.1869  -1.1772
    -1.1690  -1.0857  -1.0176  -0.9974  -0.9949  -0.9931  -0.9901  -0.9674
    -0.9568  -0.9547  -0.9062  -0.9033  -0.8747  -0.8711  -0.6813  -0.5878
    -0.5272  -0.4860  -0.4812  -0.4727  -0.4642  -0.4450  -0.4420  -0.3144
    -0.2811  -0.2748  -0.2425  -0.1560  -0.1385  -0.1198  -0.0954  -0.0819
    -0.0727  -0.0014   0.0013   0.0244   0.0509   0.0957   0.1072   0.1097
     0.1322   0.1401   0.3278   0.3473   0.3602   0.3626   0.3654   0.3960
     0.4038   0.4876   0.4979   0.5114   0.5392   0.5710   0.6036   0.6059
     0.6081   0.6162   0.7222   0.7280   0.7501   0.7545   0.8474   0.8993
     0.9017   0.9074   0.9097   0.9309   0.9700   0.9940   1.0378   1.0394
     1.0976   1.1016   1.1056   1.1495   1.1548   1.1555   1.1605   1.1621
     1.1656   1.2355   1.2365   1.3964   1.3976   1.4042   1.4229   1.4299
     1.4353   1.4696   1.5071   1.5128   1.5296   1.6275   1.6293   1.6523
     1.8077   1.8139   1.8173   1.8501   1.9086   2.2650   2.2830   2.9830
     2.9859   3.0413   3.1452   4.0040   4.4426   4.4710   5.1320   5.1338
     5.2772   5.2864   5.5067   5.6825   6.0913   6.1001   6.2815   6.3710
     6.4547   6.4982

          k = 0.0000 0.4619 0.0000 ( 94998 PWs)   bands (ev):

   -13.0028 -11.0017  -6.8178  -6.6502  -6.1806  -5.5251  -5.1156  -5.1136
    -4.9704  -4.7461  -4.6957  -4.5928  -4.4640  -4.4269  -4.3911  -4.3874
    -4.2126  -4.2051  -4.1741  -4.1660  -4.1623  -4.0946  -4.0709  -4.0335
    -4.0076  -4.0057  -3.9551  -3.9513  -3.8907  -3.8597  -3.8173  -3.8162
    -3.7802  -3.5444  -3.5427  -3.5273  -3.5249  -3.5248  -3.5229  -3.3002
    -3.2970  -3.2394  -3.2383  -3.2275  -3.2264  -3.0454  -2.9429  -2.9414
    -2.9334  -2.9304  -2.8672  -2.8643  -2.8197  -2.8020  -2.7996  -2.7227
    -2.7194  -2.5938  -2.5929  -2.5418  -2.5384  -2.4466  -2.4111  -2.3668
    -2.3637  -2.3603  -2.2215  -2.1429  -2.1362  -2.1195  -2.1176  -2.0334
    -2.0259  -2.0127  -1.8972  -1.8851  -1.8750  -1.8719  -1.7546  -1.7533
    -1.7493  -1.7489  -1.7472  -1.6722  -1.6574  -1.6559  -1.6461  -1.6239
    -1.6220  -1.6211  -1.6061  -1.5642  -1.4966  -1.4861  -1.4749  -1.4699
    -1.4345  -1.4276  -1.3981  -1.3209  -1.2583  -1.2210  -1.2193  -1.1870
    -1.1822  -1.1489  -1.1391  -1.1372  -1.0117  -1.0075  -0.9927  -0.9320
    -0.9283  -0.8806  -0.7542  -0.7435  -0.7246  -0.6594  -0.5902  -0.5770
    -0.5590  -0.5566  -0.5467  -0.5392  -0.5343  -0.4732  -0.4436  -0.4226
    -0.4106  -0.4035  -0.3898  -0.3818  -0.3699  -0.3389  -0.3197  -0.2012
    -0.1989  -0.1735  -0.1518  -0.0959  -0.0558  -0.0051   0.0008   0.0293
     0.1338   0.1374   0.2024   0.2823   0.3010   0.3240   0.3340   0.3537
     0.3854   0.3915   0.4506   0.4596   0.4961   0.4997   0.5608   0.6033
     0.6088   0.6581   0.6622   0.6734   0.6757   0.7541   0.8573   0.8690
     0.9413   0.9545   0.9553   0.9605   1.0537   1.0626   1.0637   1.1584
     1.1605   1.1663   1.1744   1.2362   1.2613   1.2636   1.2715   1.3911
     1.3953   1.4153   1.4196   1.4227   1.4274   1.4445   1.4580   1.6198
     1.6564   1.6630   1.6651   1.6711   1.8601   1.8957   2.2730   2.2863
     2.3405   2.5943   2.7095   2.7103   3.1093   3.1135   3.3117   3.4441
     3.9213   3.9226   3.9370   4.0971   4.1923   4.2005   4.3377   4.3719
     4.5901   4.5934   5.2108   5.2241   5.7174   5.7425   5.9497   6.1608
     6.2216   6.3885

          k = 0.2000-0.1155 0.0000 ( 94958 PWs)   bands (ev):

   -13.0030 -11.0011  -7.2403  -6.6549  -5.9308  -5.4819  -5.0795  -5.0785
    -4.8544  -4.8181  -4.7773  -4.7282  -4.7278  -4.6906  -4.5217  -4.5011
    -4.3463  -4.3450  -4.3270  -4.3245  -4.0974  -4.0735  -4.0454  -3.9124
    -3.9122  -3.8847  -3.8747  -3.8144  -3.8132  -3.7466  -3.7444  -3.7441
    -3.7426  -3.6582  -3.6359  -3.6342  -3.5191  -3.5150  -3.5136  -3.4536
    -3.4519  -3.2983  -3.2941  -3.2625  -3.2600  -3.2309  -2.9957  -2.9944
    -2.9542  -2.9091  -2.9076  -2.8643  -2.8627  -2.6873  -2.6839  -2.6186
    -2.6169  -2.5738  -2.5416  -2.5394  -2.3325  -2.2397  -2.2394  -2.1513
    -2.1499  -2.1122  -2.0710  -2.0451  -2.0407  -2.0198  -1.9959  -1.9955
    -1.9498  -1.8748  -1.8551  -1.8427  -1.8419  -1.7751  -1.7658  -1.7645
    -1.6980  -1.6816  -1.6802  -1.6171  -1.5882  -1.5587  -1.5530  -1.5514
    -1.4763  -1.4740  -1.4567  -1.4554  -1.4446  -1.3717  -1.3697  -1.3546
    -1.3486  -1.2829  -1.2739  -1.2689  -1.2261  -1.2246  -1.1862  -1.1844
    -1.1675  -1.0852  -1.0228  -1.0029  -0.9993  -0.9944  -0.9873  -0.9651
    -0.9571  -0.9546  -0.9068  -0.8995  -0.8745  -0.8711  -0.6676  -0.5841
    -0.5299  -0.4881  -0.4793  -0.4733  -0.4685  -0.4444  -0.4426  -0.3039
    -0.2832  -0.2752  -0.2531  -0.1598  -0.1329  -0.1101  -0.1071  -0.0967
    -0.0602  -0.0041   0.0024   0.0168   0.0382   0.0957   0.1064   0.1096
     0.1388   0.1399   0.3215   0.3473   0.3618   0.3632   0.3655   0.3916
     0.4074   0.4825   0.5073   0.5125   0.5382   0.5771   0.6043   0.6071
     0.6086   0.6147   0.7222   0.7293   0.7526   0.7554   0.8471   0.8986
     0.9007   0.9054   0.9098   0.9275   0.9718   0.9855   1.0379   1.0404
     1.0971   1.1024   1.1049   1.1527   1.1543   1.1573   1.1595   1.1600
     1.1671   1.2310   1.2321   1.3910   1.3920   1.4145   1.4245   1.4355
     1.4361   1.4750   1.5155   1.5161   1.5295   1.6266   1.6284   1.6522
     1.8128   1.8147   1.8166   1.8512   1.8998   2.2709   2.2900   2.9748
     2.9833   3.0427   3.1471   3.9976   4.4509   4.4729   5.1315   5.1337
     5.2653   5.2838   5.5445   5.6732   6.0893   6.1096   6.2177   6.3768
     6.4832   6.5004

          k = 0.2000 0.1155 0.0000 ( 94958 PWs)   bands (ev):

   -13.0029 -11.0012  -7.2402  -6.6542  -5.9308  -5.4790  -5.0828  -5.0791
    -4.8543  -4.8177  -4.7719  -4.7334  -4.7283  -4.6916  -4.5225  -4.5016
    -4.3454  -4.3434  -4.3259  -4.3237  -4.0980  -4.0726  -4.0473  -3.9141
    -3.9117  -3.8811  -3.8740  -3.8162  -3.8134  -3.7471  -3.7447  -3.7432
    -3.7402  -3.6562  -3.6390  -3.6359  -3.5152  -3.5137  -3.5126  -3.4557
    -3.4531  -3.2991  -3.2931  -3.2638  -3.2604  -3.2347  -2.9976  -2.9951
    -2.9527  -2.9088  -2.9057  -2.8649  -2.8626  -2.6893  -2.6854  -2.6211
    -2.6153  -2.5739  -2.5416  -2.5375  -2.3377  -2.2402  -2.2383  -2.1609
    -2.1535  -2.1173  -2.0782  -2.0373  -2.0322  -2.0171  -1.9954  -1.9936
    -1.9488  -1.8767  -1.8649  -1.8488  -1.8407  -1.7750  -1.7475  -1.7450
    -1.6983  -1.6882  -1.6836  -1.6158  -1.5788  -1.5750  -1.5661  -1.5600
    -1.4682  -1.4634  -1.4612  -1.4566  -1.4448  -1.3723  -1.3700  -1.3528
    -1.3383  -1.2823  -1.2793  -1.2727  -1.2258  -1.2216  -1.1864  -1.1770
    -1.1691  -1.0851  -1.0219  -1.0017  -0.9931  -0.9900  -0.9885  -0.9673
    -0.9578  -0.9532  -0.9106  -0.8996  -0.8750  -0.8706  -0.6806  -0.5881
    -0.5272  -0.4852  -0.4813  -0.4721  -0.4643  -0.4454  -0.4425  -0.3148
    -0.2802  -0.2689  -0.2411  -0.1617  -0.1337  -0.1200  -0.0962  -0.0906
    -0.0591  -0.0007   0.0030   0.0129   0.0464   0.0955   0.1065   0.1107
     0.1322   0.1397   0.3279   0.3497   0.3603   0.3622   0.3654   0.3971
     0.4042   0.4832   0.5033   0.5115   0.5391   0.5700   0.6031   0.6055
     0.6084   0.6156   0.7212   0.7287   0.7491   0.7543   0.8504   0.8993
     0.9014   0.9070   0.9111   0.9312   0.9702   0.9939   1.0375   1.0400
     1.0967   1.1014   1.1055   1.1496   1.1546   1.1550   1.1610   1.1616
     1.1670   1.2361   1.2366   1.3966   1.3977   1.4041   1.4228   1.4297
     1.4347   1.4694   1.5067   1.5122   1.5296   1.6278   1.6287   1.6522
     1.8082   1.8134   1.8171   1.8530   1.9051   2.2647   2.2844   2.9790
     2.9836   3.0449   3.1474   4.0059   4.4455   4.4690   5.1319   5.1342
     5.2648   5.2785   5.5436   5.6690   6.0937   6.1100   6.2925   6.3621
     6.4796   6.4915

          k = 0.2000 0.3464 0.0000 ( 94968 PWs)   bands (ev):

   -13.0028 -11.0016  -6.9546  -6.6513  -5.7292  -5.7253  -5.6540  -4.6996
    -4.6498  -4.6492  -4.6212  -4.6162  -4.5821  -4.5760  -4.5739  -4.5572
    -4.4611  -4.4603  -4.1002  -4.0789  -4.0698  -4.0694  -4.0654  -4.0599
    -4.0003  -3.9823  -3.8424  -3.8114  -3.8084  -3.7831  -3.7823  -3.7227
    -3.6660  -3.6613  -3.6207  -3.6189  -3.5817  -3.5308  -3.5297  -3.4903
    -3.4883  -3.4090  -3.1416  -3.0418  -3.0388  -3.0274  -3.0051  -3.0040
    -2.9851  -2.9848  -2.9306  -2.9127  -2.7547  -2.7523  -2.7434  -2.6665
    -2.6383  -2.5917  -2.5892  -2.5633  -2.4846  -2.4828  -2.3151  -2.3116
    -2.2954  -2.2157  -2.2138  -2.1793  -2.1754  -2.1726  -2.0991  -2.0970
    -1.9464  -1.9207  -1.9197  -1.9125  -1.8516  -1.8497  -1.7894  -1.7883
    -1.7816  -1.7784  -1.6608  -1.6204  -1.6176  -1.6044  -1.6030  -1.6008
    -1.5836  -1.5520  -1.5367  -1.4616  -1.4575  -1.4334  -1.4264  -1.3704
    -1.3656  -1.3048  -1.2794  -1.2404  -1.2367  -1.2354  -1.1896  -1.1878
    -1.1854  -1.1722  -1.1682  -1.1408  -1.1361  -1.1261  -1.0668  -1.0629
    -0.9622  -0.9316  -0.9206  -0.8563  -0.8460  -0.8423  -0.8386  -0.6604
    -0.6599  -0.5183  -0.5013  -0.4909  -0.4598  -0.4548  -0.4322  -0.4293
    -0.3886  -0.3806  -0.3609  -0.3493  -0.2971  -0.2668  -0.2095  -0.1383
    -0.1151  -0.0561  -0.0428  -0.0144  -0.0046   0.0341   0.0511   0.0641
     0.1859   0.1887   0.2042   0.2433   0.2453   0.3264   0.3772   0.3933
     0.4030   0.4121   0.4738   0.4824   0.4864   0.4986   0.5022   0.5229
     0.5283   0.5336   0.5533   0.6816   0.7377   0.7447   0.8790   0.8829
     0.9005   1.0453   1.0468   1.0483   1.0569   1.1553   1.1802   1.1940
     1.1983   1.1997   1.2364   1.2397   1.2648   1.2699   1.2725   1.3280
     1.3348   1.3439   1.4187   1.4450   1.4461   1.4792   1.4809   1.5250
     1.6527   1.7055   1.7083   1.7908   1.7960   1.7975   1.8192   1.9490
     1.9509   2.4064   2.4763   2.4777   3.0106   3.0126   3.0451   3.0547
     3.7303   3.7456   3.8342   3.9324   3.9831   3.9914   4.6394   5.1217
     5.1738   5.1870   5.3653   5.7289   5.8450   5.8711   5.9167   5.9482
     5.9627   6.0576

          k = 0.2000-0.5774 0.0000 ( 95006 PWs)   bands (ev):

   -13.0028 -11.0017  -6.6527  -6.4209  -6.4145  -5.8109  -5.1623  -5.1567
    -4.6955  -4.6463  -4.6440  -4.5121  -4.4785  -4.3711  -4.3672  -4.2618
    -4.2588  -4.1590  -4.1338  -4.1336  -4.1123  -4.0990  -4.0937  -4.0745
    -4.0586  -4.0297  -3.9353  -3.9281  -3.9253  -3.8865  -3.8794  -3.7822
    -3.6890  -3.6717  -3.6057  -3.5136  -3.5084  -3.4949  -3.4932  -3.4785
    -3.3654  -3.3639  -3.2726  -3.2678  -3.0947  -3.0871  -3.0274  -2.9285
    -2.9262  -2.8766  -2.8744  -2.7656  -2.7163  -2.6693  -2.6666  -2.6475
    -2.6073  -2.6027  -2.5722  -2.4678  -2.4656  -2.4379  -2.4354  -2.4298
    -2.4271  -2.4229  -2.3552  -2.3482  -2.2240  -2.1979  -2.1538  -2.1440
    -2.0306  -1.9963  -1.9924  -1.9876  -1.9449  -1.9002  -1.8987  -1.8142
    -1.7887  -1.7877  -1.7822  -1.7518  -1.7222  -1.6731  -1.6666  -1.6238
    -1.5750  -1.5703  -1.5504  -1.5468  -1.4356  -1.3963  -1.3840  -1.3480
    -1.3438  -1.3033  -1.3004  -1.2903  -1.2825  -1.2586  -1.2432  -1.2039
    -1.2017  -1.1759  -1.1553  -1.1543  -1.1519  -1.1489  -1.1296  -1.1052
    -1.0382  -1.0361  -1.0323  -0.8281  -0.8180  -0.7238  -0.7198  -0.6166
    -0.6084  -0.5992  -0.5823  -0.5507  -0.5140  -0.5100  -0.5035  -0.4881
    -0.4213  -0.3846  -0.3706  -0.3594  -0.3005  -0.2841  -0.2422  -0.2171
    -0.1795  -0.1113  -0.0519  -0.0094   0.0409   0.0537   0.0632   0.0730
     0.1590   0.1620   0.1724   0.1874   0.1940   0.2299   0.2438   0.2741
     0.3572   0.3705   0.3819   0.4291   0.4336   0.4532   0.4616   0.4751
     0.5103   0.6383   0.6868   0.7212   0.7934   0.8102   0.8765   0.8809
     0.9645   1.0070   1.0118   1.0193   1.1170   1.1278   1.1923   1.2264
     1.2334   1.2420   1.2471   1.2827   1.2999   1.3231   1.3994   1.4029
     1.4285   1.4522   1.4538   1.4558   1.4824   1.5187   1.6592   1.6600
     1.6636   1.6686   1.6700   1.7430   1.8130   1.8571   1.9979   2.8166
     2.8172   3.0405   3.0722   3.1123   3.2177   3.2231   3.2290   3.6695
     3.8271   3.8298   4.2844   4.3061   4.3172   4.4293   4.4358   4.6392
     4.7271   4.7907   4.8861   5.1602   5.2561   5.2721   5.7434   5.8986
     5.9146   6.0753

          k = 0.2000-0.3464 0.0000 ( 94968 PWs)   bands (ev):

   -13.0029 -11.0014  -6.9549  -6.6525  -5.7289  -5.7268  -5.6542  -4.6977
    -4.6540  -4.6495  -4.6201  -4.6171  -4.5759  -4.5745  -4.5741  -4.5585
    -4.4612  -4.4600  -4.1013  -4.0783  -4.0726  -4.0690  -4.0674  -4.0621
    -4.0047  -3.9809  -3.8385  -3.8139  -3.8090  -3.7831  -3.7827  -3.7161
    -3.6621  -3.6607  -3.6212  -3.6194  -3.5801  -3.5354  -3.5293  -3.4890
    -3.4877  -3.4157  -3.1407  -3.0388  -3.0371  -3.0257  -3.0051  -2.9991
    -2.9866  -2.9850  -2.9317  -2.9129  -2.7538  -2.7510  -2.7416  -2.6660
    -2.6391  -2.5908  -2.5867  -2.5661  -2.4842  -2.4837  -2.3106  -2.3098
    -2.2929  -2.2080  -2.2060  -2.1803  -2.1749  -2.1689  -2.0991  -2.0967
    -1.9460  -1.9322  -1.9170  -1.9163  -1.8561  -1.8520  -1.7899  -1.7884
    -1.7822  -1.7762  -1.6512  -1.6183  -1.6155  -1.6099  -1.6005  -1.5969
    -1.5833  -1.5559  -1.5356  -1.4693  -1.4621  -1.4361  -1.4306  -1.3701
    -1.3648  -1.3034  -1.2854  -1.2448  -1.2423  -1.2355  -1.1930  -1.1888
    -1.1862  -1.1682  -1.1629  -1.1401  -1.1347  -1.1290  -1.0687  -1.0650
    -0.9623  -0.9259  -0.9212  -0.8579  -0.8484  -0.8436  -0.8396  -0.6596
    -0.6568  -0.5193  -0.5036  -0.4932  -0.4623  -0.4571  -0.4305  -0.4252
    -0.3890  -0.3768  -0.3638  -0.3485  -0.2935  -0.2600  -0.2197  -0.1454
    -0.1083  -0.0600  -0.0375  -0.0152  -0.0070   0.0356   0.0447   0.0592
     0.1834   0.1866   0.2010   0.2425   0.2465   0.3259   0.3768   0.3968
     0.4026   0.4128   0.4784   0.4812   0.4845   0.5027   0.5054   0.5226
     0.5255   0.5390   0.5564   0.6749   0.7372   0.7496   0.8762   0.8815
     0.9008   1.0453   1.0473   1.0491   1.0561   1.1531   1.1857   1.1937
     1.1975   1.2014   1.2375   1.2389   1.2612   1.2639   1.2698   1.3257
     1.3329   1.3539   1.4150   1.4385   1.4488   1.4800   1.4813   1.5234
     1.6614   1.7113   1.7158   1.7926   1.7960   1.7979   1.8220   1.9469
     1.9502   2.4015   2.4743   2.4766   3.0132   3.0175   3.0473   3.0568
     3.7271   3.7457   3.8300   3.9335   3.9825   3.9958   4.6413   5.1219
     5.1819   5.1866   5.3614   5.7423   5.8144   5.8770   5.9193   5.9516
     5.9652   6.0523

          k = 0.4000-0.2309 0.0000 ( 94998 PWs)   bands (ev):

   -13.0029 -11.0012  -6.8184  -6.6530  -6.1817  -5.5252  -5.1138  -5.1127
    -4.9705  -4.7508  -4.6916  -4.5928  -4.4654  -4.4300  -4.3869  -4.3866
    -4.2120  -4.2042  -4.1730  -4.1669  -4.1647  -4.1002  -4.0724  -4.0338
    -4.0057  -4.0037  -3.9549  -3.9544  -3.8907  -3.8626  -3.8155  -3.8152
    -3.7814  -3.5427  -3.5420  -3.5255  -3.5243  -3.5223  -3.5206  -3.2983
    -3.2973  -3.2377  -3.2368  -3.2264  -3.2242  -3.0470  -2.9426  -2.9420
    -2.9326  -2.9309  -2.8662  -2.8651  -2.8114  -2.8033  -2.8018  -2.7222
    -2.7212  -2.5917  -2.5902  -2.5401  -2.5379  -2.4431  -2.4015  -2.3614
    -2.3594  -2.3586  -2.2208  -2.1454  -2.1315  -2.1235  -2.1207  -2.0351
    -2.0320  -2.0012  -1.9047  -1.9034  -1.8792  -1.8720  -1.7558  -1.7502
    -1.7496  -1.7470  -1.7415  -1.6706  -1.6552  -1.6527  -1.6522  -1.6246
    -1.6195  -1.6185  -1.6024  -1.5636  -1.4992  -1.4773  -1.4757  -1.4692
    -1.4254  -1.4235  -1.4046  -1.3288  -1.2596  -1.2317  -1.2303  -1.1824
    -1.1805  -1.1536  -1.1515  -1.1483  -1.0100  -1.0078  -0.9971  -0.9350
    -0.9323  -0.8795  -0.7524  -0.7461  -0.7172  -0.6602  -0.5829  -0.5771
    -0.5650  -0.5605  -0.5378  -0.5364  -0.5326  -0.4435  -0.4421  -0.4330
    -0.4117  -0.4078  -0.3917  -0.3817  -0.3739  -0.3424  -0.3110  -0.2058
    -0.2044  -0.1715  -0.1624  -0.0965  -0.0643  -0.0096  -0.0049   0.0284
     0.1331   0.1360   0.2182   0.2724   0.3005   0.3173   0.3248   0.3471
     0.3914   0.3925   0.4473   0.4714   0.4995   0.5023   0.5605   0.6063
     0.6102   0.6606   0.6622   0.6734   0.6744   0.7525   0.8550   0.8715
     0.9390   0.9519   0.9554   0.9606   1.0515   1.0634   1.0647   1.1551
     1.1597   1.1637   1.1723   1.2398   1.2550   1.2568   1.2717   1.3912
     1.3929   1.4171   1.4191   1.4315   1.4321   1.4522   1.4530   1.6199
     1.6644   1.6654   1.6731   1.6751   1.8597   1.8946   2.2806   2.2933
     2.3345   2.5905   2.7088   2.7096   3.1100   3.1124   3.3052   3.4508
     3.9215   3.9221   3.9515   4.0858   4.1870   4.1999   4.3496   4.3765
     4.5888   4.5943   5.2107   5.2324   5.7121   5.7509   5.9489   6.1580
     6.2436   6.3986

          k = 0.4000-0.0000 0.0000 ( 94968 PWs)   bands (ev):

   -13.0029 -11.0013  -6.9550  -6.6530  -5.7303  -5.7253  -5.6541  -4.6968
    -4.6542  -4.6489  -4.6227  -4.6127  -4.5788  -4.5750  -4.5721  -4.5602
    -4.4616  -4.4597  -4.0991  -4.0766  -4.0730  -4.0700  -4.0665  -4.0630
    -4.0049  -3.9811  -3.8386  -3.8136  -3.8093  -3.7835  -3.7823  -3.7164
    -3.6642  -3.6590  -3.6217  -3.6186  -3.5803  -3.5356  -3.5288  -3.4901
    -3.4873  -3.4152  -3.1407  -3.0402  -3.0356  -3.0263  -3.0052  -2.9990
    -2.9866  -2.9850  -2.9317  -2.9127  -2.7540  -2.7508  -2.7420  -2.6662
    -2.6390  -2.5916  -2.5862  -2.5658  -2.4851  -2.4827  -2.3128  -2.3083
    -2.2930  -2.2084  -2.2056  -2.1815  -2.1740  -2.1690  -2.0991  -2.0969
    -1.9457  -1.9323  -1.9169  -1.9153  -1.8562  -1.8518  -1.7909  -1.7883
    -1.7817  -1.7753  -1.6514  -1.6183  -1.6155  -1.6098  -1.5997  -1.5976
    -1.5835  -1.5559  -1.5354  -1.4696  -1.4618  -1.4367  -1.4299  -1.3715
    -1.3637  -1.3038  -1.2862  -1.2462  -1.2409  -1.2350  -1.1926  -1.1882
    -1.1869  -1.1696  -1.1633  -1.1407  -1.1372  -1.1258  -1.0677  -1.0649
    -0.9624  -0.9301  -0.9188  -0.8582  -0.8479  -0.8432  -0.8395  -0.6610
    -0.6556  -0.5177  -0.5061  -0.4940  -0.4594  -0.4564  -0.4287  -0.4257
    -0.3864  -0.3768  -0.3656  -0.3467  -0.2929  -0.2600  -0.2191  -0.1451
    -0.0983  -0.0684  -0.0551  -0.0141  -0.0049   0.0354   0.0477   0.0617
     0.1802   0.1848   0.2062   0.2410   0.2472   0.3280   0.3739   0.3961
     0.4028   0.4186   0.4778   0.4837   0.4860   0.4977   0.5064   0.5213
     0.5275   0.5388   0.5536   0.6752   0.7368   0.7508   0.8748   0.8844
     0.8991   1.0438   1.0472   1.0492   1.0572   1.1536   1.1852   1.1929
     1.1967   1.2014   1.2374   1.2389   1.2608   1.2646   1.2699   1.3257
     1.3333   1.3532   1.4155   1.4382   1.4490   1.4796   1.4818   1.5235
     1.6609   1.7106   1.7164   1.7934   1.7955   1.7972   1.8242   1.9466
     1.9510   2.3999   2.4746   2.4770   3.0127   3.0177   3.0430   3.0582
     3.7267   3.7518   3.8297   3.9333   3.9792   3.9997   4.6420   5.1219
     5.1694   5.1864   5.3623   5.7847   5.8341   5.8484   5.9468   5.9541
     5.9673   6.0376

          k = 0.4000 0.2309 0.0000 ( 94998 PWs)   bands (ev):

   -13.0029 -11.0015  -6.8179  -6.6511  -6.1806  -5.5250  -5.1154  -5.1139
    -4.9702  -4.7459  -4.6945  -4.5928  -4.4645  -4.4278  -4.3913  -4.3877
    -4.2093  -4.2035  -4.1747  -4.1658  -4.1620  -4.0989  -4.0716  -4.0317
    -4.0073  -4.0056  -3.9551  -3.9513  -3.8904  -3.8584  -3.8176  -3.8162
    -3.7801  -3.5443  -3.5427  -3.5278  -3.5257  -3.5249  -3.5228  -3.3004
    -3.2975  -3.2396  -3.2380  -3.2281  -3.2263  -3.0453  -2.9424  -2.9415
    -2.9334  -2.9302  -2.8668  -2.8645  -2.8200  -2.8023  -2.7997  -2.7222
    -2.7194  -2.5946  -2.5925  -2.5416  -2.5389  -2.4467  -2.4115  -2.3671
    -2.3637  -2.3605  -2.2216  -2.1427  -2.1360  -2.1208  -2.1163  -2.0329
    -2.0258  -2.0130  -1.8960  -1.8850  -1.8774  -1.8696  -1.7571  -1.7530
    -1.7497  -1.7472  -1.7467  -1.6724  -1.6574  -1.6559  -1.6454  -1.6259
    -1.6233  -1.6189  -1.6062  -1.5640  -1.4966  -1.4861  -1.4754  -1.4698
    -1.4348  -1.4278  -1.3976  -1.3207  -1.2583  -1.2218  -1.2186  -1.1885
    -1.1828  -1.1487  -1.1396  -1.1364  -1.0113  -1.0079  -0.9945  -0.9330
    -0.9295  -0.8806  -0.7509  -0.7442  -0.7236  -0.6595  -0.5934  -0.5743
    -0.5619  -0.5559  -0.5466  -0.5375  -0.5350  -0.4736  -0.4437  -0.4262
    -0.4085  -0.4021  -0.3859  -0.3784  -0.3670  -0.3358  -0.3215  -0.2038
    -0.1986  -0.1661  -0.1520  -0.0958  -0.0742  -0.0049  -0.0013   0.0378
     0.1343   0.1364   0.2153   0.2747   0.3018   0.3107   0.3338   0.3535
     0.3855   0.3913   0.4469   0.4646   0.4958   0.4996   0.5608   0.6026
     0.6076   0.6573   0.6608   0.6739   0.6759   0.7594   0.8563   0.8758
     0.9411   0.9532   0.9567   0.9610   1.0529   1.0630   1.0647   1.1575
     1.1620   1.1651   1.1715   1.2368   1.2621   1.2632   1.2716   1.3915
     1.3945   1.4159   1.4183   1.4231   1.4271   1.4440   1.4562   1.6198
     1.6565   1.6632   1.6638   1.6706   1.8601   1.8957   2.2737   2.2888
     2.3430   2.5937   2.7091   2.7103   3.1095   3.1127   3.3115   3.4434
     3.9212   3.9224   3.9393   4.0926   4.1891   4.2020   4.3433   4.3738
     4.5887   4.5942   5.2162   5.2253   5.7088   5.7535   5.9478   6.1519
     6.2372   6.4126

          k = 0.4000-0.6928 0.0000 ( 95006 PWs)   bands (ev):

   -13.0028 -11.0016  -6.6534  -6.4189  -6.4162  -5.8109  -5.1598  -5.1589
    -4.6986  -4.6459  -4.6400  -4.5123  -4.4784  -4.3709  -4.3676  -4.2612
    -4.2590  -4.1605  -4.1360  -4.1337  -4.1126  -4.0970  -4.0954  -4.0792
    -4.0568  -4.0216  -3.9354  -3.9277  -3.9265  -3.8863  -3.8795  -3.7820
    -3.6889  -3.6719  -3.6067  -3.5135  -3.5089  -3.4944  -3.4936  -3.4790
    -3.3651  -3.3641  -3.2710  -3.2698  -3.0944  -3.0874  -3.0273  -2.9282
    -2.9264  -2.8759  -2.8747  -2.7654  -2.7163  -2.6691  -2.6665  -2.6478
    -2.6064  -2.6043  -2.5724  -2.4672  -2.4663  -2.4376  -2.4361  -2.4292
    -2.4273  -2.4235  -2.3523  -2.3507  -2.2235  -2.1979  -2.1534  -2.1449
    -2.0303  -1.9968  -1.9905  -1.9887  -1.9447  -1.8996  -1.8983  -1.8151
    -1.7897  -1.7870  -1.7827  -1.7521  -1.7226  -1.6710  -1.6686  -1.6234
    -1.5750  -1.5713  -1.5493  -1.5470  -1.4351  -1.3958  -1.3847  -1.3476
    -1.3442  -1.3028  -1.3005  -1.2882  -1.2836  -1.2580  -1.2433  -1.2041
    -1.2010  -1.1772  -1.1552  -1.1543  -1.1518  -1.1491  -1.1297  -1.1063
    -1.0392  -1.0350  -1.0328  -0.8294  -0.8186  -0.7228  -0.7208  -0.6167
    -0.6074  -0.5997  -0.5836  -0.5519  -0.5130  -0.5088  -0.4989  -0.4913
    -0.4221  -0.3787  -0.3665  -0.3539  -0.3011  -0.2940  -0.2420  -0.2255
    -0.1796  -0.0964  -0.0628  -0.0067   0.0434   0.0540   0.0628   0.0712
     0.1597   0.1643   0.1693   0.1869   0.2036   0.2278   0.2410   0.2665
     0.3605   0.3646   0.3830   0.4282   0.4319   0.4529   0.4625   0.4782
     0.5054   0.6379   0.6913   0.7241   0.7947   0.8093   0.8767   0.8801
     0.9648   1.0092   1.0127   1.0167   1.1190   1.1248   1.1925   1.2266
     1.2331   1.2432   1.2441   1.2846   1.2974   1.3240   1.3996   1.4025
     1.4290   1.4518   1.4534   1.4575   1.4792   1.5193   1.6590   1.6605
     1.6635   1.6678   1.6697   1.7433   1.8152   1.8571   1.9986   2.8166
     2.8170   3.0436   3.0679   3.1117   3.2185   3.2219   3.2309   3.6736
     3.8270   3.8291   4.2848   4.3080   4.3130   4.4301   4.4351   4.6378
     4.7264   4.7977   4.8728   5.1668   5.2574   5.2695   5.7797   5.8943
     5.9151   6.0674

          k = 0.4000-0.4619 0.0000 ( 95006 PWs)   bands (ev):

   -13.0029 -11.0014  -6.6547  -6.4210  -6.4152  -5.8100  -5.1614  -5.1579
    -4.6971  -4.6499  -4.6399  -4.5118  -4.4777  -4.3678  -4.3668  -4.2619
    -4.2610  -4.1622  -4.1371  -4.1324  -4.1139  -4.0957  -4.0929  -4.0828
    -4.0529  -4.0251  -3.9408  -3.9270  -3.9258  -3.8838  -3.8832  -3.7825
    -3.6902  -3.6697  -3.6023  -3.5121  -3.5112  -3.4942  -3.4929  -3.4741
    -3.3646  -3.3629  -3.2698  -3.2658  -3.0983  -3.0848  -3.0290  -2.9274
    -2.9258  -2.8767  -2.8750  -2.7709  -2.7186  -2.6696  -2.6683  -2.6453
    -2.5971  -2.5970  -2.5717  -2.4668  -2.4641  -2.4350  -2.4337  -2.4279
    -2.4263  -2.4243  -2.3553  -2.3489  -2.2214  -2.1982  -2.1499  -2.1462
    -2.0322  -1.9967  -1.9923  -1.9851  -1.9436  -1.9084  -1.9073  -1.8176
    -1.7884  -1.7847  -1.7818  -1.7526  -1.7205  -1.6700  -1.6628  -1.6308
    -1.5648  -1.5621  -1.5518  -1.5490  -1.4442  -1.3916  -1.3866  -1.3430
    -1.3409  -1.3051  -1.3038  -1.2900  -1.2856  -1.2592  -1.2565  -1.2093
    -1.2081  -1.1625  -1.1574  -1.1561  -1.1514  -1.1482  -1.1393  -1.0991
    -1.0409  -1.0380  -1.0356  -0.8290  -0.8253  -0.7235  -0.7194  -0.6173
    -0.6051  -0.6033  -0.5808  -0.5485  -0.5140  -0.5117  -0.4948  -0.4859
    -0.4215  -0.3761  -0.3719  -0.3526  -0.3043  -0.2889  -0.2432  -0.2229
    -0.1854  -0.0982  -0.0661  -0.0104   0.0421   0.0554   0.0677   0.0696
     0.1572   0.1626   0.1698   0.1846   0.2047   0.2376   0.2469   0.2574
     0.3619   0.3676   0.3847   0.4282   0.4315   0.4550   0.4619   0.4728
     0.4994   0.6408   0.6846   0.7217   0.7967   0.8079   0.8792   0.8820
     0.9668   1.0095   1.0131   1.0175   1.1178   1.1252   1.1926   1.2194
     1.2334   1.2382   1.2423   1.2901   1.2977   1.3265   1.4012   1.4021
     1.4199   1.4518   1.4536   1.4599   1.4801   1.5189   1.6589   1.6681
     1.6690   1.6711   1.6725   1.7427   1.8203   1.8573   1.9966   2.8165
     2.8171   3.0427   3.0666   3.1091   3.2176   3.2207   3.2271   3.6789
     3.8279   3.8295   4.2867   4.3049   4.3150   4.4309   4.4334   4.6623
     4.7346   4.7934   4.8659   5.1684   5.2521   5.2662   5.7694   5.8913
     5.9052   6.1123

     the Fermi energy is     1.4331 ev

!    total energy              =  -27816.03009787 Ry

     total all-electron energy =  -1326876.087793 Ry
     estimated scf accuracy    <       0.00000021 Ry
     smearing contrib. (-TS)   =       0.00268223 Ry
     internal energy E=F+TS    =  -27816.03278010 Ry

     The total energy is F=E-TS. E is the sum of the following terms:
     one-electron contribution =  -30355.58371599 Ry
     hartree contribution      =   15476.27690404 Ry
     xc contribution           =    -907.26326513 Ry
     ewald contribution        =   13464.13753547 Ry
     one-center paw contrib.   =  -25493.60023849 Ry

     convergence has been achieved in  23 iterations

     negative rho (up, down):  1.252E-02 0.000E+00

     Forces acting on atoms (cartesian axes, Ry/au):

     atom    1 type  1   force =     0.00035372    0.00003773   -0.00317913
     atom    2 type  1   force =    -0.00004218   -0.00000800   -0.00388058
     atom    3 type  1   force =     0.00001446   -0.00004054   -0.00312007
     atom    4 type  1   force =     0.00011937   -0.00033685   -0.00306195
     atom    5 type  1   force =     0.00016526   -0.00018406   -0.00313360
     atom    6 type  1   force =     0.00009102   -0.00005349   -0.00325526
     atom    7 type  1   force =     0.00010235   -0.00001432   -0.00318199
     atom    8 type  1   force =     0.00025905    0.00002116   -0.00307816
     atom    9 type  1   force =     0.00001982    0.00005104   -0.00314411
     atom   10 type  1   force =    -0.00057672    0.00035223    0.00427823
     atom   11 type  1   force =    -0.00016857    0.00021192    0.00350696
     atom   12 type  1   force =    -0.00022931    0.00037531    0.00373008
     atom   13 type  1   force =    -0.00045534    0.00018118    0.00262151
     atom   14 type  1   force =    -0.00004913   -0.00011464    0.00270067
     atom   15 type  1   force =    -0.00034610   -0.00010210    0.00318448
     atom   16 type  1   force =    -0.00044304    0.00016027    0.00246079
     atom   17 type  1   force =    -0.00026400    0.00014145    0.00253992
     atom   18 type  1   force =    -0.00012784    0.00003068    0.00282302
     atom   19 type  1   force =     0.00002622    0.00000375   -0.00001484
     atom   20 type  1   force =     0.00000175   -0.00007291    0.00007059
     atom   21 type  1   force =    -0.00021849    0.00010010    0.00014674
     atom   22 type  1   force =    -0.00005759    0.00017907    0.00025998
     atom   23 type  1   force =     0.00009064    0.00009700    0.00039221
     atom   24 type  1   force =    -0.00022291    0.00008912    0.00021112
     atom   25 type  1   force =    -0.00011304    0.00001249    0.00021869
     atom   26 type  1   force =    -0.00000383    0.00007067    0.00020291
     atom   27 type  1   force =    -0.00005126    0.00018534    0.00023143
     atom   28 type  1   force =    -0.00007039    0.00001054    0.00030701
     atom   29 type  1   force =     0.00002744   -0.00017188    0.00067137
     atom   30 type  1   force =     0.00012743    0.00012860    0.00027427
     atom   31 type  1   force =     0.00035602    0.00003921    0.00043003
     atom   32 type  1   force =    -0.00013874    0.00015763    0.00002142
     atom   33 type  1   force =    -0.00003352   -0.00007213   -0.00007238
     atom   34 type  1   force =     0.00014660   -0.00011138    0.00065094
     atom   35 type  1   force =     0.00024342    0.00004609   -0.00001305
     atom   36 type  1   force =    -0.00023702    0.00014126    0.00005651
     atom   37 type  2   force =     0.00155497   -0.00023950   -0.00250917
     atom   38 type  2   force =     0.00038988   -0.00048276    0.00127422
     atom   39 type  2   force =    -0.00357336    0.00091855    0.00695789
     atom   40 type  3   force =    -0.00037337    0.00023431    0.00080089
     atom   41 type  3   force =     0.00011029   -0.00049017    0.00009507
     atom   42 type  3   force =    -0.00083273    0.00041115    0.00051584
     atom   43 type  3   force =     0.00442874   -0.00189314   -0.00999050

     Total force =     0.014155     Total SCF correction =     0.001316

     negative rho (up, down):  1.252E-02 0.000E+00

     negative rho (up, down):  1.252E-02 0.000E+00

     negative rho (up, down):  1.252E-02 0.000E+00

     negative rho (up, down):  1.252E-02 0.000E+00

     negative rho (up, down):  1.252E-02 0.000E+00

     negative rho (up, down):  1.252E-02 0.000E+00

     negative rho (up, down):  1.252E-02 0.000E+00

     negative rho (up, down):  1.252E-02 0.000E+00

     negative rho (up, down):  1.252E-02 0.000E+00

     negative rho (up, down):  1.252E-02 0.000E+00

     negative rho (up, down):  1.252E-02 0.000E+00

     negative rho (up, down):  1.252E-02 0.000E+00

     negative rho (up, down):  1.252E-02 0.000E+00

     negative rho (up, down):  1.252E-02 0.000E+00

     negative rho (up, down):  1.252E-02 0.000E+00

     negative rho (up, down):  1.252E-02 0.000E+00

     negative rho (up, down):  1.252E-02 0.000E+00

     negative rho (up, down):  1.252E-02 0.000E+00

     negative rho (up, down):  1.252E-02 0.000E+00

     negative rho (up, down):  1.252E-02 0.000E+00

     negative rho (up, down):  1.252E-02 0.000E+00

     negative rho (up, down):  1.252E-02 0.000E+00

     negative rho (up, down):  1.252E-02 0.000E+00

     negative rho (up, down):  1.252E-02 0.000E+00

     negative rho (up, down):  1.252E-02 0.000E+00

     negative rho (up, down):  1.252E-02 0.000E+00

     negative rho (up, down):  1.252E-02 0.000E+00

     negative rho (up, down):  1.252E-02 0.000E+00

     negative rho (up, down):  1.252E-02 0.000E+00

     negative rho (up, down):  1.252E-02 0.000E+00

     negative rho (up, down):  1.252E-02 0.000E+00

     negative rho (up, down):  1.252E-02 0.000E+00

     negative rho (up, down):  1.252E-02 0.000E+00

     negative rho (up, down):  1.252E-02 0.000E+00
 BEEFens 2000 ensemble energies
             -0.607488123702065E+02
             -0.360466373175990E+01
             -0.158274625047841E+02
              0.429925123199875E+02
             -0.221527131859413E+02
             -0.205357991820304E+02
             -0.353108405688133E+02
             -0.865999276923161E+02
             -0.465150103471541E+02
             -0.472889438189140E+02
             -0.369675970124881E+02
              0.231671436822026E+01
              0.405940780282322E+01
              0.759433431769025E+01
              0.265269624313564E+01
              0.475475316666898E+02
             -0.208884827342616E+02
             -0.229843017078389E+02
              0.193165463054279E+02
             -0.112512880440414E+03
              0.536970464234689E+02
             -0.289908432749953E+02
             -0.334659594702663E+01
             -0.114264887941694E+02
             -0.879876286323577E+01
             -0.460800143822181E+01
              0.883699633103037E+02
             -0.187846127492136E+02
             -0.898896967590906E+01
             -0.518977253389501E+02
              0.815754180121808E+02
             -0.186827049475642E+02
             -0.375240364582570E+02
              0.249157359938730E+02
             -0.285290889800893E+01
              0.164570592420108E+02
             -0.485202058393082E+01
              0.108000867259960E+02
              0.289102823730974E+02
             -0.103344812539325E+03
              0.559149154071791E+02
              0.142601626768135E+02
             -0.177366815692528E+01
             -0.361496484017762E+02
              0.123371378869273E+02
             -0.147380810992762E+02
              0.398946717573219E+02
              0.365173942640416E+02
             -0.308066450203004E+02
             -0.275228087573358E+02
             -0.328691925195532E+02
             -0.352718845306549E+02
              0.137005900018472E+02
             -0.491258599293168E+02
              0.115912950443678E+02
              0.623843274582390E+02
              0.636425500588779E+02
              0.356362012360538E+02
              0.154130100969148E+02
              0.271152932197123E+02
              0.892770969081347E+02
              0.212370537962938E+02
             -0.549150808689776E+02
             -0.157114875241477E+02
             -0.236336929981934E+02
              0.630194866325594E+02
             -0.773913092112873E+02
             -0.672460208592919E+02
             -0.260288909661601E+02
             -0.656621222511023E+01
             -0.470675722192090E+02
              0.271076248577031E+02
              0.802872680332246E+01
              0.869588933055712E+01
             -0.397937412657111E+02
             -0.347137731806532E+02
             -0.542693630171158E+02
              0.390321649101837E+02
             -0.296542971977734E+02
              0.266068092214391E+02
             -0.719767017836347E+01
             -0.318126437483384E+02
             -0.576311743978049E+02
             -0.176570197352846E+02
             -0.905252653840171E+01
             -0.124577281973059E+02
              0.412868464512502E+02
              0.684146563378452E+02
             -0.386170887266180E+02
             -0.795274688450477E+02
             -0.219809065104320E+02
              0.111604009015964E+03
             -0.593390292187905E+02
              0.356372606068837E+02
             -0.958075697568506E+01
             -0.663536369020995E+02
              0.254605812485449E+02
              0.398153827844964E+02
             -0.199009192069156E+02
              0.400477743239305E+02
             -0.296030628687456E+02
             -0.479089695918285E+02
              0.867122629026450E+02
              0.454153121827970E+02
              0.336561886094418E+02
              0.146377420321265E+02
              0.206160913907935E+02
              0.857196635529253E+02
             -0.257188887723787E+02
              0.789281689618808E+01
             -0.142517756673214E+03
              0.181119982212716E+02
             -0.716732268266544E+02
              0.151217493440301E+02
              0.204887059854273E+02
             -0.333416147150332E+02
             -0.557602374326785E+02
              0.650932662696755E+01
             -0.304619500419706E+02
              0.308430711323018E+02
             -0.530389485586731E+02
              0.168827660569104E+01
             -0.357275040793614E+02
             -0.422170921067209E+01
             -0.102184827347764E+01
              0.181777603146099E+02
              0.142306801496420E+01
             -0.651290576231668E+01
              0.591426905270139E+02
              0.909319669413235E+02
              0.484731721425972E+02
              0.830621572641945E+02
             -0.115287316845317E+02
              0.142776937255197E+02
              0.541656511200129E+02
             -0.110497937479573E+02
             -0.736912154908596E+02
             -0.384917586648804E+02
             -0.522432864042127E+02
             -0.277096019909671E+02
              0.327563935560208E+02
             -0.116898166130497E+03
             -0.187461625847793E+02
              0.414461957655544E+02
             -0.386562985541992E+02
             -0.365600027518306E+02
              0.545117704538713E+02
              0.401184010930252E+02
             -0.354487376603963E+02
              0.138595386064903E+02
             -0.273736517310114E+02
              0.343520722192434E+02
              0.442813530198202E+01
              0.210918784798873E+02
             -0.885699800634235E+02
             -0.480610742364408E+02
             -0.998681597281654E+01
              0.316684825778895E+01
             -0.367317745143242E+02
              0.106153613096171E+03
             -0.230997904644250E+02
             -0.399085218207493E+02
              0.388940012497771E+02
             -0.494448597800875E+02
             -0.363754137158269E+02
              0.325182147551538E+02
              0.124688518590974E+02
              0.164934607633182E+02
              0.116944733547580E+02
             -0.132905172240432E+02
              0.225221043116743E+02
              0.590638034507943E+02
             -0.311716847149925E+02
              0.162594763969533E+02
              0.935566175359852E+02
              0.341176078999289E+02
             -0.729413693626941E+01
             -0.188881229180551E+02
              0.153513269982289E+03
             -0.164459834845194E+02
              0.363814770879676E+02
              0.194948224577516E+02
              0.361563452914578E+02
              0.892739498303590E+02
              0.543178052455778E+02
             -0.237809718850454E+01
              0.228091612215126E+02
              0.485402031131719E+02
              0.363723703152694E+02
             -0.526389405061137E+02
              0.937075423505664E+02
             -0.826847316049718E+02
             -0.197896306097618E+02
              0.583204595569915E+02
              0.681626562331505E+01
              0.787953449018210E+01
              0.340876774555631E+02
              0.299315349662702E+02
              0.353995540321518E+02
             -0.638072066110335E+02
              0.286479281847357E+01
             -0.297867723021300E+02
             -0.867771568751449E+01
             -0.146358849774708E+01
             -0.726091677713448E+01
             -0.416183379062443E+01
              0.860314041971629E+02
             -0.101079447880228E+02
             -0.276524781414913E+02
             -0.496219725116545E+01
              0.140020880680242E+02
             -0.564538252919438E+02
             -0.408329705567515E+02
             -0.382279678949916E+02
             -0.630860299102598E+02
             -0.169680954277416E+02
             -0.447802576896316E+02
              0.163429001990214E+02
             -0.237808325196895E+01
             -0.104646040086369E+02
             -0.934451827246568E+01
              0.807926642468101E+01
             -0.242474037674625E+02
              0.690242729831485E+02
             -0.808431582899964E+02
             -0.141257812678384E+02
             -0.174008975394542E+02
              0.182122071819339E+02
              0.214933258569953E+02
             -0.464119514034217E+02
             -0.201713121011184E+02
              0.441450314199697E+02
             -0.276284068178219E+02
              0.187245736410396E+02
              0.383119275608764E+02
             -0.322308370438816E+01
              0.114220838118086E+03
             -0.229624937088726E+02
             -0.341156562273829E+02
              0.577028683079095E+01
             -0.228667145406027E+02
              0.527960809407785E+02
             -0.338109982115250E+02
              0.106717454469581E+02
              0.640634301123402E+02
             -0.126495283324355E+02
              0.120363536364665E+03
              0.126008156701355E+03
             -0.650653654339390E+02
              0.591266506521220E+02
              0.166926912390546E+02
             -0.518510994590704E+02
              0.216026434529601E+02
              0.354811325407779E+02
              0.363388411810444E+02
              0.133467453693171E+01
              0.160214534102050E+02
              0.697023584386013E+02
             -0.247192054298156E+02
              0.181613930250909E+02
              0.739554889547317E+02
             -0.372806633927834E+02
             -0.130286394066949E+02
              0.509486920014704E+02
              0.297703989282057E+02
              0.780643662056316E+02
              0.223470565569299E+02
              0.629324514732878E+01
              0.280556722128267E+02
              0.383905712181376E+02
             -0.472981223333371E+02
              0.334676032079096E+01
              0.130744664518422E+02
              0.113830082685506E+02
              0.220951416913167E+02
             -0.575844700321600E+02
              0.366094035969451E+02
             -0.444176678356915E+02
             -0.347902464046243E+02
              0.178646921558828E+02
             -0.181394821752732E+02
              0.555782017987966E+02
             -0.255722805310484E+02
              0.267197627365842E+02
              0.368294415241058E+02
              0.829868944807804E+02
              0.575278402378972E+02
              0.462560393107934E+02
             -0.105074286441709E+02
             -0.393485785426344E+01
             -0.332650938505187E+02
              0.751779105068654E+02
              0.797873433876839E+02
              0.362376960875776E+02
             -0.192470214171466E+02
              0.512190067269526E+02
             -0.162478762841643E+02
              0.214752902458277E+02
              0.615369144315048E+02
              0.211846261818667E+01
             -0.104499036015642E+02
             -0.282839816421513E+02
             -0.512869514641679E+02
              0.946490511551955E+02
              0.440807631841557E+02
             -0.559906385840954E+02
             -0.966333875889148E+01
              0.250042767988286E+02
             -0.997910540178270E+01
              0.592838181317722E+02
              0.152037604869951E+02
              0.799867846442221E+02
              0.280348084204066E+02
             -0.263662899832101E+02
              0.248706588818118E+02
             -0.501823726637400E+01
             -0.323448206352986E+02
              0.133284895804791E+02
              0.205471232428135E+02
              0.934242934321995E+02
              0.798187971159057E+02
              0.551789207256072E+02
              0.731038605338515E+02
              0.804583410742885E+01
             -0.274016154845104E+02
              0.163222962324377E+02
             -0.368162526370337E+02
             -0.477268443301275E+02
             -0.564018245577782E+02
             -0.266977407375917E+02
             -0.109818131342504E+03
             -0.292052746475308E+02
             -0.838414626049283E+02
              0.210507433256794E+02
             -0.477560094597882E+02
              0.397597749057708E+02
             -0.942838990270039E+02
             -0.330433033667805E+02
              0.548360810996610E+02
              0.207744543997881E+02
             -0.831844254912882E+02
              0.631160938062905E+02
             -0.257208250792947E+02
              0.513045730115398E+02
             -0.242432153715750E+02
             -0.752222324603341E+02
              0.111982868086521E+02
             -0.612027663755327E+02
             -0.167894196126664E+02
             -0.151354239886692E+01
              0.418457781766653E+02
              0.127146306194604E+03
             -0.462018511961547E+02
             -0.362694260099398E+02
             -0.100148313175009E+01
             -0.130470374025173E+02
             -0.823290506781710E+02
             -0.597304264546653E+02
              0.517499029752320E+02
             -0.288955741774788E+02
              0.169637005349174E+02
             -0.489774103336647E+02
             -0.132238283799365E+02
             -0.437526265350800E+02
              0.565991056066861E+02
              0.150590776373951E+02
             -0.231930196470789E+02
             -0.127369223916630E+02
              0.670817514097055E+01
             -0.620143866758457E+01
              0.441836381759941E+02
             -0.252244014980113E+02
              0.284739613592171E+01
              0.340033508003895E+02
              0.171108137417568E+02
             -0.160478955309579E+02
              0.156416661317097E+03
              0.539129630314464E+02
              0.117434981585862E+01
              0.161301841548927E+02
             -0.615766805173339E+02
              0.315391645633047E+02
             -0.722655148106874E+02
             -0.252468116156665E+02
             -0.523454421186881E+02
             -0.220317112433489E+02
              0.570021641902599E+02
             -0.537812142400082E+02
              0.161444527532759E+02
             -0.411232665585635E+01
              0.385672285254603E+01
             -0.434003719217043E+02
             -0.478667658906293E+02
             -0.405465903527033E+01
             -0.424875389543184E+02
             -0.217070333042842E+02
             -0.438913162227961E+02
             -0.119252387858586E+02
             -0.359371526386151E+02
             -0.516993143918763E+02
              0.212896219880465E+02
             -0.209086740816983E+02
              0.188319191953875E+02
              0.976214165355162E+01
             -0.738995462764739E+02
             -0.548543689914276E+02
             -0.399134170999478E+02
              0.354416210211004E+02
              0.268659913227623E+01
             -0.627185748386779E+02
              0.586621726938791E+02
             -0.401640508069551E+02
              0.545668377559547E+02
             -0.290249204437689E+02
             -0.446540501030065E+02
              0.298200737230430E+02
             -0.658338727673901E+02
             -0.380345519335339E+02
              0.673375241368322E+02
              0.204378428838785E+02
             -0.361255776584769E+02
              0.490557435689002E+02
             -0.174361093714206E+02
             -0.323645990781191E+02
             -0.302121343741397E+02
             -0.501256177575094E+02
              0.250026375352508E+02
             -0.934191903924706E+02
             -0.841021209953880E+02
             -0.736990547810524E+01
             -0.307118884870570E+02
             -0.576524548309061E+02
              0.722587950128499E+02
              0.131695221863898E+03
             -0.361003983188228E+02
             -0.256373438211858E+01
             -0.637827603406876E+02
              0.651237086904777E+02
              0.171126836351575E+02
             -0.182419031110252E+02
             -0.410351597169430E+02
              0.148731726655852E+02
             -0.586669921100768E+02
             -0.198158570526293E+02
             -0.905419006282395E+02
              0.337543834877172E+02
              0.168907655814023E+02
              0.184045734163919E+01
             -0.710167721756136E+01
             -0.330613328260242E+02
             -0.762717864158299E+01
              0.125722773848026E+03
             -0.199011244253237E+02
             -0.438504933385186E+02
             -0.684804694200319E+02
              0.109655724846563E+02
             -0.342836243940470E+02
              0.594877456243469E+01
              0.261970889940425E+02
              0.102307538818554E+02
              0.278475618853607E+02
              0.120261621650911E+02
              0.630175708746780E+02
              0.316803221751451E+02
             -0.327186133278546E+02
              0.356693917392491E+02
              0.379832609199848E+02
              0.120937863159051E+02
              0.487673116822944E+02
             -0.225426861261988E+02
              0.766456688365870E+02
              0.172818823626470E+02
             -0.272617190151495E+02
             -0.725950129173736E+01
             -0.186772144203745E+02
              0.261888372251470E+02
             -0.234368904512509E+02
             -0.169345480532087E+00
             -0.852592487680590E+01
              0.810457203364618E+02
              0.500892374512399E+02
             -0.687412446797133E+02
             -0.479821529040390E+01
             -0.555841321176043E+02
             -0.159373219337588E+02
             -0.268691673932331E+02
              0.378665221324434E+01
              0.609517269775930E+00
             -0.258207654694600E+02
              0.818721620794298E+01
             -0.603857301259609E+01
             -0.128535113870075E+02
              0.859839782868847E+02
              0.181817215610375E+02
             -0.808254488019865E+02
             -0.458842651543258E+02
              0.946327534373348E+02
              0.278207737601574E+02
             -0.106866830661065E+02
              0.104705840843447E+03
             -0.194539616233997E+02
             -0.123086135315565E+02
             -0.542703043233325E+01
              0.107836911313623E+02
              0.273095080812760E+02
              0.780337033006711E+01
              0.305623257723324E+02
             -0.187797017591098E+02
             -0.304620093511848E+02
             -0.418573485746404E+02
             -0.477480075672328E+02
              0.464459116336469E+02
              0.126903565560036E+02
              0.388190418020283E+02
              0.133794507125015E+02
              0.856869793524731E+02
              0.156665381087407E+02
             -0.846996467735910E+02
             -0.334998489716176E+02
              0.133489793887948E+02
             -0.303090991518791E+02
              0.627415315549385E+02
             -0.888666104787490E+01
              0.148779104904565E+02
              0.497957792874467E+02
             -0.708280560455485E+02
              0.149908223215637E+03
              0.209078014652978E+02
              0.271500539077826E+02
              0.348223693569497E+02
              0.103840454033499E+02
             -0.153798585366343E+01
              0.358675025291786E+02
             -0.357932221296495E+02
              0.774580447646962E+02
              0.686097999199418E+02
             -0.406762040143430E+02
              0.149941692025880E+02
              0.671057167276160E+02
             -0.224007444915679E+02
              0.154708102210283E+02
              0.435305811362747E+02
              0.422525015248596E+02
             -0.785866896126556E+02
             -0.152750138969830E+02
             -0.356249793112042E+02
             -0.150115753512722E+01
             -0.769712124172893E+01
             -0.538882142876002E+01
             -0.180519963723428E+02
             -0.294615525594777E+02
              0.639841234555409E+01
              0.111680296183818E+02
              0.536412515282296E+02
             -0.391091013790806E+02
              0.375423783687212E+02
              0.439328932278101E+02
             -0.186258142754677E+02
              0.872983705128715E+02
             -0.698639766984774E+02
             -0.103312913575572E+03
             -0.661238897780474E+01
             -0.271840945264330E+01
              0.384077490905622E+01
              0.790718458767937E+02
             -0.106897097362384E+02
              0.417333162511204E+02
              0.444703424752005E+02
              0.385629881744006E+02
             -0.997726870507427E+01
              0.627938762981712E+02
             -0.133897820665360E+02
             -0.308038573962920E+02
             -0.479811532874048E+02
              0.590394290287728E+01
              0.369780627420789E+02
             -0.601029933996421E+01
              0.393087462930357E+02
             -0.173243238686422E+01
              0.655685086605363E+02
              0.187217587812059E+02
              0.999457049612229E+01
             -0.121696287718634E+02
              0.332489846196141E+02
              0.362934212474745E+02
              0.232589573396490E+02
             -0.508461113740623E+00
             -0.551304434336229E+02
              0.261158687883759E+02
              0.175437052187702E+02
              0.402776294003634E+02
              0.272549109769102E+02
              0.372823863701192E+02
             -0.603317836779053E+01
              0.251919441175700E+02
             -0.298957251054510E+02
             -0.198566193315969E+01
             -0.569767366149907E+02
             -0.308039881679706E+02
              0.379254650416522E+02
             -0.936715682172106E+02
              0.294589924542702E+02
              0.184267166697307E+02
              0.841451761368159E+02
             -0.300192183427606E+02
              0.330097267799784E+02
             -0.137742301261228E+02
             -0.464653196677954E+02
             -0.761891986131317E+02
             -0.531135185922265E+01
             -0.861364199730829E+02
              0.199543646911198E+02
             -0.247684135088851E+02
              0.306257991704730E+02
              0.237495319734785E+02
             -0.241828712319358E+02
             -0.266210401419155E+02
              0.391371669212869E+02
             -0.589395334489859E+02
             -0.117100203177262E+02
             -0.196351632062483E+02
              0.213379796139410E+02
             -0.885986504857101E+01
              0.361686687392728E+01
             -0.200813972204794E+02
              0.559393629626421E+02
             -0.440994949666790E+02
              0.789664703351752E+01
              0.586424408954496E+02
             -0.324026697896623E+02
              0.361860818300590E+01
             -0.878577192180842E+01
             -0.670109102604355E+02
             -0.482591161307578E+02
             -0.859425449278428E+01
              0.241304654006197E+02
              0.302890263077254E+02
              0.861685014832295E+01
             -0.415997407998964E+01
              0.152075329489023E+02
             -0.440218017662135E+02
              0.329210301125175E+01
             -0.531871285061328E+02
             -0.325082702850694E+02
              0.475421660769936E+02
             -0.295473680042289E+02
              0.623656624902647E+02
             -0.215411793020996E+02
              0.353879480321071E+02
              0.242180353349614E+02
             -0.644882956255985E+02
             -0.280527736688393E+02
              0.933698978208599E+01
             -0.372614129098629E+02
             -0.340126839942423E+02
             -0.831240517291808E+02
             -0.539996802882345E+02
             -0.511119961666867E+02
             -0.416054241348011E+02
             -0.988458043979108E+00
              0.999941300108929E+01
              0.109528300592871E+01
              0.153860104768502E+02
             -0.550138633304852E+02
              0.142318984248226E+02
              0.257615892531487E+02
             -0.667613496547146E+02
             -0.702572544870519E+02
             -0.431989264030533E+02
             -0.172799786582436E+02
              0.178612041681866E+02
              0.453818498781197E+01
             -0.426066829244638E+02
              0.366282615564374E+02
             -0.216560739702241E+02
              0.518069576634819E+02
             -0.888320055332712E+02
              0.598832501802466E+02
             -0.217424070320110E+01
             -0.369296171210220E+02
[...]
              0.283627510283894E+02
              0.141919503471730E+03
              0.243075312965221E+02
              0.122855395270393E+02
             -0.464619268429948E+02
             -0.638099538083343E+02
             -0.189246023616143E+02
              0.330362171071443E+02
             -0.428983821337908E+01
              0.190838893703216E+02
              0.336686697730987E+02
             -0.586563192323591E+02
              0.222899835261952E+02
              0.581724076324315E+02
              0.553135403441638E+02
             -0.419414468858542E+01
             -0.133802026136345E+01
             -0.994795354777480E+01
             -0.482821489803223E+02
             -0.675638132032090E+02
              0.786129210319941E+02
             -0.523631085381516E+01
             -0.588300835073990E+02
              0.173101993316095E+01
             -0.205726455221845E+02
              0.939406341137031E+02
             -0.216898200615877E+02
             -0.353996692289585E+02
              0.335927762041225E+02
             -0.146094941142965E+02
              0.390158024317942E+02
             -0.231976613875520E+01
              0.101149305424843E+03
              0.490341145196965E+02
             -0.506844735097062E+01
             -0.322448001288322E+02
              0.232762274548721E+02
             -0.529103359566394E+02
             -0.127824357496349E+02
              0.586414257368660E+02
             -0.288044894385840E+02
             -0.438646154341776E+02
             -0.223492488541733E+02
              0.518983708893711E+02
              0.124674761253935E+02
             -0.849502693449969E+02
              0.304414335788181E+02
              0.152049847831835E+02
              0.580665986878125E+01
             -0.514004948185775E+02
             -0.375107650864197E+01
              0.323350937654449E+02
              0.513061652205971E+02
              0.633607487671598E+02
              0.229548999413934E+02
              0.738591158805377E+00
             -0.498835895535265E+02
             -0.510507730678619E+02
             -0.748163857412636E+02
             -0.621012071320365E+01
              0.309509973583832E+02
             -0.380225943422150E+01
              0.547253175096500E+02
             -0.318414722963831E+02
              0.166356235512957E+02
             -0.103317321409428E+02
             -0.290066066856981E+02
              0.586449704113807E+02
              0.792243535139085E+01
              0.605177201459139E+02
              0.510320359575769E+01
              0.265051801472639E+02
             -0.192815679771566E+02
              0.586655525188351E+02
             -0.112147741091460E+02
             -0.956600670938048E-01
             -0.790912140857401E+02
             -0.128314151812037E+02
              0.719691507032502E+02
              0.673494935020951E+02
              0.252282134046432E+02
             -0.130472466905030E+02
              0.347474180828047E+01
             -0.173914195231709E+02
             -0.211670305649935E+01
              0.908853916904165E+02
              0.126707077058109E+01
             -0.190892986422834E+02
             -0.110829677821411E+03
             -0.552588574822793E+02
             -0.375507004401243E+02
             -0.658919901770170E+02
             -0.556328986361656E+02
             -0.683218316844831E+02
             -0.447731893555954E+02
             -0.410895249108364E+02
             -0.452414917941501E+02
              0.484020926554745E+02
             -0.293939405993513E+02
             -0.995356676507832E+02
              0.419384527271242E+02
             -0.260554045344177E+02
             -0.791502194362478E+02
              0.944798538840147E+02
             -0.220186382816185E+02
              0.227940264034204E+02
              0.455308871901306E+02
             -0.127911622822523E+01
              0.254844305921480E+02
              0.469976568743164E+01
              0.409190969578635E+00
             -0.151086121392109E+02
             -0.716863973253222E+02
              0.133412706860379E+02
             -0.129483264910048E+03
              0.625367086155907E+02
             -0.441142756199030E+02
             -0.163089232239419E+02
             -0.158220520873116E+02
              0.719933563147591E+01
             -0.227692324321337E+02
              0.297065637843907E+02
             -0.521079903792441E+02
              0.367494301646423E+02
              0.371817818513380E+02
              0.168043216487184E+02
              0.101014142981953E+02
              0.198042323892773E+02
              0.624625665908451E+01
              0.310319841481211E+02
             -0.800405744120621E+01
             -0.593653107778422E+02
              0.759203035570050E+01
             -0.153145801079705E+02
             -0.195924330216565E+01
              0.507257334772282E+02
             -0.827576636913046E+02
             -0.145066290802060E+01
              0.580952257774982E+00
              0.996868980569070E+01
              0.318615817038716E+02
             -0.123722754608125E+02
              0.836293421422068E+02
              0.487616265664513E+02
             -0.183144001747560E+02
             -0.953111037931990E+01
              0.108280646483209E+01
              0.770078482312597E+02
             -0.586366918459261E+02
             -0.105851388051750E+03
              0.309688680847838E+02
             -0.163436503004343E+02
             -0.140048573934906E+02
              0.130686078493344E+02
              0.769089885241456E+02
              0.464561588782178E+02
             -0.153524186298573E+02
             -0.503627953091020E+02
             -0.551661988740449E+01
              0.306627330188434E+02
             -0.111916165207041E+02
             -0.756466856602851E+02
             -0.275002109979584E+01
             -0.891069732556153E+02
             -0.476079206900257E+02
              0.769651010677967E+02
             -0.484280802037855E+02
             -0.637417037941324E+02
             -0.514949900476200E+02
             -0.350211925624218E+02
              0.341704281916679E+02
              0.822525868064596E+02
             -0.362153796271775E+01
              0.276726727424126E+02
             -0.184163297857301E+02
             -0.694619751220634E+02
              0.465683858573191E+02
             -0.445695019199779E+02
              0.321714107959507E+02
              0.376243044480024E+02
             -0.658515518291625E+01
              0.390465904504864E+02
              0.438562056611126E+02
              0.100834635919474E+03
             -0.155854475034236E+02
             -0.457013230999890E+02
             -0.613292275511876E+02
             -0.124143838685048E+02
             -0.233800564711669E+02
              0.103084414312547E+03
             -0.449709333258436E+02
              0.105166094544075E+02
              0.968921548708784E+01
             -0.264695198323923E+02
             -0.800118180904649E+02
             -0.700833122325463E+01
              0.980880642520950E+02
              0.942861731793813E+01
              0.808648822392666E+01
             -0.527898402588442E+02
             -0.605725794645477E+02
             -0.567139768695812E+01
              0.500665160094684E+02
             -0.222296386384875E+02
              0.108052046179591E+03
             -0.436700973546338E+02
              0.146521628844909E+02
             -0.223743430297154E+02
             -0.719061108440141E+02
              0.168905266811004E+01
             -0.502230710075396E+02
             -0.761186850997287E+02
              0.619776115919262E+01
              0.234564389432546E+01
              0.514675970728871E+02
              0.187569926743888E+02
             -0.324160777605698E+02
              0.230134109515157E+02
             -0.812295902870913E+02
             -0.521903650780486E+02
              0.902595771744696E+02
              0.141930850937942E+02
             -0.187772288317661E+02
             -0.352399357648191E+02
             -0.271634685150764E+01
             -0.588870955125856E+01
              0.831795578560465E+02
              0.418426234185872E+02
             -0.165763318378334E+02
             -0.121475767811563E+02
             -0.427795852943316E+02
             -0.200493281635252E+02
             -0.670260629453374E+02
              0.460474884071918E+02
              0.548687136859223E+01
              0.144787858561107E+02
              0.156481452443689E+02
             -0.595032643644878E+00
             -0.168780368059862E+02
             -0.302406560826827E+01
             -0.100558807475224E+03
             -0.230041026952881E+02
             -0.769120926104176E+01
             -0.948481927829363E+01
              0.546279247279817E+02
              0.624786617866592E+02
              0.164969612086020E+02
             -0.971449863357791E+02
              0.647876657899373E+02
             -0.215051918967795E+02
             -0.377310234477861E+02
             -0.864992958547016E+02
             -0.386862610514689E+02
              0.565583019180999E+02
              0.245101827350557E+02
              0.517405496718249E+01
              0.292731317445040E+02
             -0.565476254892521E+02
             -0.422918732861143E+02
              0.516071132192620E+02
              0.387426289682041E+02
              0.519106660780300E+02
             -0.115250024666273E+01
              0.688476716478812E+01
              0.569887907539169E+02
              0.963626958785601E+02
             -0.300006389505907E+02
              0.323629146500757E+02
             -0.119663038993973E+02
             -0.412643530419644E+02
             -0.314984896190096E+02
             -0.300865641867377E+02
             -0.131489547456004E+02
             -0.523552438782120E+02
             -0.217157407582645E+02
             -0.141285627022236E+03
              0.369397300607230E+02
              0.206914449316297E+02
             -0.395143709146483E+01
             -0.380339932825941E+02
             -0.204153267157484E+02
             -0.527477003986607E+02
              0.151330842851882E+02
              0.820728391418348E+02
             -0.252216039620158E+02
             -0.163247628798114E+02
              0.238251521902741E+02
             -0.490228956354681E+02
              0.881139460359149E+02
              0.154447449141025E+02
              0.226058523787480E+02
              0.490434972855274E+02
              0.315424239727662E+01
              0.542487680047284E+02
              0.143319797491736E+02
             -0.106322080407610E+02
              0.730584543843901E+01
              0.719381941646247E+00
              0.727410940946601E+02
              0.101447434624758E+02
              0.120996319865085E+02
             -0.130306883281643E+02
              0.132580614043901E+02
             -0.912011510482560E+02
             -0.326135225856707E+02
             -0.457842546043711E+02
              0.485369890978341E+02
             -0.291457771357447E+02
             -0.658769695248735E+02
              0.539131516394765E+02
             -0.122009120256258E+02
              0.440342188120243E+02
             -0.899416423785262E+02
              0.232041442825702E+02
              0.855104231155119E+01
              0.584498935684849E+01
             -0.834351619084288E+01
             -0.904930131960407E+01
              0.480027330418927E+02
              0.198801577009237E+01
             -0.475706434856439E+02
             -0.176506647926127E+02
              0.276519800189312E+02
             -0.118045432441311E+03
             -0.930321413029866E+02
              0.395077114522809E+01
              0.117948070539473E+02
             -0.414037362381518E+02
             -0.388844010180384E+01
              0.112173789875068E+03
              0.306355631521335E+02
             -0.571995449702973E+02
              0.925105293266319E+01
             -0.964003299524749E+01
              0.106078558031407E+02
             -0.338263552070421E+02
              0.195873201628682E+02
              0.284788004255860E+02
             -0.297836366664495E+01
              0.108282347191261E+03
             -0.140212978109459E+02
             -0.316187883735954E+02
              0.143377329166718E+02
              0.466897669804176E+02
             -0.356097762879234E+02
             -0.316904280196913E+01
              0.965871110694771E+02
             -0.463031697562576E+01
              0.622133012919965E+02
              0.135648180974349E+02
             -0.899618633687791E+01
             -0.305262807727805E+02
              0.566698229525788E+02
             -0.514737071672759E+02
             -0.220620448793966E+01
             -0.170213808052148E+02
             -0.405539789970401E+02
              0.185205961080314E+02
              0.239840898180890E+02
              0.115999268682157E+02
              0.715251629100635E+00
             -0.384867984911452E+02
              0.215061885582475E+02
             -0.673441898064880E+01
             -0.246407143608504E+02
             -0.210646779882513E+02
              0.203027567877904E+02
             -0.599450397635326E+01
             -0.349568385899502E+02
             -0.106755613979787E+03
              0.103121107047941E+02
              0.248768925369665E+02
             -0.388018337261789E+02
             -0.211289184985656E+02
              0.807982896047127E+02
              0.655261112306192E+01
              0.311441744872263E+02
              0.392997751725142E+01
              0.322296380830898E+02
              0.648452453921357E+01
             -0.373268291127467E+02
             -0.239220409864754E+01
              0.876109625528704E+01
              0.274294631205951E+02
              0.782207889543903E+02
              0.507755389830766E+02
              0.200521488674781E+00
              0.169723527362599E+02
              0.613844237305942E+02
              0.236178539947481E+02
             -0.753154220010134E+02
             -0.273975532772034E+02
              0.151086189826729E+02
              0.562614077875611E+01
              0.255149733924220E+02
             -0.548073155824692E+02
              0.897155843615988E+01
              0.386693311781367E+02
              0.498323259259265E+02
             -0.435169762169603E+02
             -0.687246127089622E+01
             -0.208739869509265E+01
             -0.133875836579596E+02
             -0.365337305929341E+02
             -0.215261548019000E+02
             -0.207869230703061E+01
              0.795134808821382E+01
              0.421800427091389E+02
             -0.308334937789280E+02
              0.826873474912475E+02
              0.327685681588010E+02
              0.220312796352835E+02
              0.333691740130860E+02
              0.323127130572063E+02
              0.346930650585024E+02
              0.537591743655944E+02
             -0.434335438166425E+02
              0.620228625445763E+02
             -0.112398625816197E+03
              0.307581239954990E+02
             -0.106617620157271E+03
              0.855223500526848E+02
              0.691461078722721E+02
             -0.109903474043093E+02
             -0.493547947335406E+02
             -0.430104059598594E+02
             -0.623796992207382E+02
             -0.629404618419154E+02
              0.552528439087759E+02
              0.405827008633940E+02
              0.236894749549681E+02
              0.373644098744676E+02
              0.403774921252485E+02
             -0.382492287961252E+02
             -0.197935522167718E+02
              0.587152299872776E+02
             -0.116401151746589E+02
              0.552433898404903E+02
              0.700244436889942E+02
             -0.556953685598639E+01
             -0.707070710933225E+02
             -0.836662605115407E+00
             -0.248290737758397E+01
             -0.883372451430967E+01
             -0.181954036686312E+01
             -0.653496958876402E+02
             -0.210291126603064E+02
              0.542468071786049E+01
              0.904386755934033E+01
              0.469480422492383E+02
             -0.398187659383423E+02
              0.657441663215984E+02
             -0.425598429317339E+02
              0.210961060105092E+02
              0.350743971014082E+02
 
 BEEF-vdW xc energy contributions
           1 :   -783.257402755619     
           2 :    719.204732942040     
           3 :   -608.519579376302     
           4 :    478.508657852905     
           5 :   -356.693109793833     
           6 :    262.766730571980     
           7 :   -204.237918418869     
           8 :    176.490992318597     
           9 :   -166.825405459734     
          10 :    160.597839218515     
          11 :   -146.989769387091     
          12 :    122.223209557719     
          13 :   -89.3890588853599     
          14 :    55.5306511814825     
          15 :   -27.6657891307999     
          16 :    9.53861596786044     
          17 :  -0.349263962240911     
          18 :   -4.28987915310381     
          19 :    9.87407749671445     
          20 :   -20.3089770526673     
          21 :    36.2284291107559     
          22 :   -54.9901999069832     
          23 :    72.1827158511103     
          24 :   -83.8240947757942     
          25 :    88.1714414080473     
          26 :   -86.3476283386068     
          27 :    81.6005235671862     
          28 :   -77.6404815395014     
          29 :    76.8789959007012     
          30 :   -79.4018453677305     
          31 :   -85.9642258021933     
          32 :   -65.8096377837693     

     Writing output data file ./pwscf.save/
 
     init_run     :    344.39s CPU    349.28s WALL (       1 calls)
     electrons    :  16063.32s CPU  16224.79s WALL (       1 calls)
     forces       :    103.76s CPU    105.02s WALL (       1 calls)

     Called by init_run:
     wfcinit      :    296.16s CPU    299.98s WALL (       1 calls)
     potinit      :     44.97s CPU     45.34s WALL (       1 calls)
     hinit0       :      1.23s CPU      1.28s WALL (       1 calls)

     Called by electrons:
     c_bands      :  13520.28s CPU  13646.63s WALL (      24 calls)
     sum_band     :   1775.44s CPU   1790.91s WALL (      24 calls)
     v_of_rho     :    124.73s CPU    129.85s WALL (      24 calls)
     newd         :     37.55s CPU     52.15s WALL (      24 calls)
     PAW_pot      :    167.28s CPU    167.29s WALL (      24 calls)
     mix_rho      :    483.76s CPU    484.55s WALL (      24 calls)
     vdW_kernel   :     33.69s CPU     33.69s WALL (       1 calls)

     Called by c_bands:
     init_us_2    :     98.46s CPU     98.76s WALL (     650 calls)
     cegterg      :  12496.19s CPU  12622.21s WALL (     312 calls)

     Called by *egterg:
     cdiaghg      :    126.52s CPU    126.57s WALL (    2387 calls)
     h_psi        :   7692.49s CPU   7735.95s WALL (    2413 calls)
     s_psi        :   1421.27s CPU   1421.28s WALL (    2413 calls)
     g_psi        :     20.73s CPU     20.76s WALL (    2088 calls)

     Called by h_psi:
     h_psi:calbec :   1298.32s CPU   1298.47s WALL (    2413 calls)
     vloc_psi     :   4939.63s CPU   4940.86s WALL (    2413 calls)
     add_vuspsi   :   1420.98s CPU   1421.03s WALL (    2413 calls)

     General routines
     calbec       :   1868.21s CPU   1868.38s WALL (    2777 calls)
     fft          :     53.88s CPU     53.91s WALL (    3464 calls)
     ffts         :    149.67s CPU    149.70s WALL (   10736 calls)
     fftw         :   5095.99s CPU   5096.72s WALL (  398298 calls)
 
     Parallel routines
 
     PWSCF        :      4h37m CPU      4h40m WALL

 
   This run was terminated on:   3:26: 6   4Jan2023            

=------------------------------------------------------------------------------=
   JOB DONE.
=------------------------------------------------------------------------------=
