
     Program PWSCF v.6.7MaX starts on  4Jan2023 at 10:16: 0 

     This program is part of the open-source Quantum ESPRESSO suite
     for quantum simulation of materials; please cite
         "P. Giannozzi et al., J. Phys.:Condens. Matter 21 395502 (2009);
         "P. Giannozzi et al., J. Phys.:Condens. Matter 29 465901 (2017);
          URL http://www.quantum-espresso.org", 
     in publications or presentations arising from this work. More details at
     http://www.quantum-espresso.org/quote

     Parallel version (MPI), running on     1 processors

     MPI processes distributed on     1 nodes
     Reading input from chcch-tri-ensemble.in
Warning: card &CELL ignored
Warning: card / ignored

     Current dimensions of program PWSCF are:
     Max number of different atomic species (ntypx) = 10
     Max number of k-points (npk) =  40000
     Max angular momentum in pseudopotentials (lmaxx) =  3
     file Pt.pbe-n-kjpaw_psl.1.0.0.UPF: wavefunction(s)  6S 5D renormalized
     file C.pbe-n-kjpaw_psl.1.0.0.UPF: wavefunction(s)  2S 2P renormalized
     file H.pbe-kjpaw_psl.1.0.0.UPF: wavefunction(s)  1S renormalized

     **************************************************************************
     Initializing libbeef V0.1.2 with the BEEF-vdW functional.
     Citation: Wellendorff et al., PRB 85, 235149 (2012).
     **************************************************************************


     IMPORTANT: XC functional enforced from input :
     Exchange-correlation= BEEF-VDW
                           (   1   4  43  14   2   0   0)
     Any further DFT definition will be discarded
     Please, verify this is what you really want


     Subspace diagonalization in iterative solution of the eigenvalue problem:
     a serial algorithm will be used

 
     G-vector sticks info
     --------------------
     sticks:   dense  smooth     PW     G-vecs:    dense   smooth      PW
     Sum        4267    4267   1159               699193   699193   98535
 


     bravais-lattice index     =            0
     lattice parameter (alat)  =      16.0349  a.u.
     unit-cell volume          =   11130.4147 (a.u.)^3
     number of atoms/cell      =           41
     number of atomic types    =            3
     number of electrons       =       374.00
     number of Kohn-Sham states=          224
     kinetic-energy cutoff     =      60.0000  Ry
     charge density cutoff     =     240.0000  Ry
     scf convergence threshold =      1.0E-06
     mixing beta               =       0.7000
     number of iterations used =            8  local-TF  mixing
     Exchange-correlation= BEEF-VDW
                           (   1   4  43  14   2   0   0)

     celldm(1)=  16.034858  celldm(2)=   0.000000  celldm(3)=   0.000000
     celldm(4)=   0.000000  celldm(5)=   0.000000  celldm(6)=   0.000000

     crystal axes: (cart. coord. in units of alat)
               a(1) = (   1.000000   0.000000   0.000000 )  
               a(2) = (   0.500000   0.866025   0.000000 )  
               a(3) = (   0.000000   0.000000   3.117349 )  

     reciprocal axes: (cart. coord. in units 2 pi/alat)
               b(1) = (  1.000000 -0.577350  0.000000 )  
               b(2) = (  0.000000  1.154701  0.000000 )  
               b(3) = (  0.000000  0.000000  0.320785 )  


     PseudoPot. # 1 for Pt read from file:
     /users/bkreitz1/quantum-espresso/potentials/Pt.pbe-n-kjpaw_psl.1.0.0.UPF
     MD5 check sum: 04dc8a03c51ece93fc7b5889c2958091
     Pseudo is Projector augmented-wave + core cor, Zval = 10.0
     Generated using 'atomic' code by A. Dal Corso  v.6.7MaX
     Shape of augmentation charge: PSQ
     Using radial grid of 1277 points,  6 beta functions with: 
                l(1) =   0
                l(2) =   0
                l(3) =   1
                l(4) =   1
                l(5) =   2
                l(6) =   2
     Q(r) pseudized with 0 coefficients 


     PseudoPot. # 2 for C  read from file:
     /users/bkreitz1/quantum-espresso/potentials/C.pbe-n-kjpaw_psl.1.0.0.UPF
     MD5 check sum: a169b0ebad56f5ec0d79c4633f80bf22
     Pseudo is Projector augmented-wave + core cor, Zval =  4.0
     Generated using 'atomic' code by A. Dal Corso  v.6.7MaX
     Shape of augmentation charge: PSQ
     Using radial grid of 1073 points,  4 beta functions with: 
                l(1) =   0
                l(2) =   0
                l(3) =   1
                l(4) =   1
     Q(r) pseudized with 0 coefficients 


     PseudoPot. # 3 for H  read from file:
     /users/bkreitz1/quantum-espresso/potentials/H.pbe-kjpaw_psl.1.0.0.UPF
     MD5 check sum: ae98473e6dc62675f0d0baffdab24f65
     Pseudo is Projector augmented-wave, Zval =  1.0
     Generated using 'atomic' code by A. Dal Corso  v.6.7MaX
     Shape of augmentation charge: PSQ
     Using radial grid of  929 points,  2 beta functions with: 
                l(1) =   0
                l(2) =   0
     Q(r) pseudized with 0 coefficients 


     atomic species   valence    mass     pseudopotential
        Pt            10.00   195.08400     Pt( 1.00)
        C              4.00    12.01100     C ( 1.00)
        H              1.00     1.00800     H ( 1.00)

     No symmetry found



   Cartesian axes

     site n.     atom                  positions (alat units)
         1           Pt  tau(   1) = (   0.0000000   0.0000000   1.0017346  )
         2           Pt  tau(   2) = (   0.3333333   0.0000000   1.0017346  )
         3           Pt  tau(   3) = (   0.6666667   0.0000000   1.0017346  )
         4           Pt  tau(   4) = (   0.1666667   0.2886751   1.0017346  )
         5           Pt  tau(   5) = (   0.5000000   0.2886751   1.0017346  )
         6           Pt  tau(   6) = (   0.8333333   0.2886751   1.0017346  )
         7           Pt  tau(   7) = (   0.3333333   0.5773503   1.0017346  )
         8           Pt  tau(   8) = (   0.6666667   0.5773503   1.0017346  )
         9           Pt  tau(   9) = (   1.0000000   0.5773503   1.0017346  )
        10           Pt  tau(  10) = (   0.1666667   0.0962250   1.2739001  )
        11           Pt  tau(  11) = (   0.5000000   0.0962250   1.2739001  )
        12           Pt  tau(  12) = (   0.8333333   0.0962250   1.2739001  )
        13           Pt  tau(  13) = (   0.3333333   0.3849002   1.2739001  )
        14           Pt  tau(  14) = (   0.6666667   0.3849002   1.2739001  )
        15           Pt  tau(  15) = (   1.0000000   0.3849002   1.2739001  )
        16           Pt  tau(  16) = (   0.5000000   0.6735753   1.2739001  )
        17           Pt  tau(  17) = (   0.8333333   0.6735753   1.2739001  )
        18           Pt  tau(  18) = (   1.1666667   0.6735753   1.2739001  )
        19           Pt  tau(  19) = (  -0.0016554   0.1945541   1.5491714  )
        20           Pt  tau(  20) = (   0.3330256   0.1882296   1.5454451  )
        21           Pt  tau(  21) = (   0.6701271   0.1947093   1.5441513  )
        22           Pt  tau(  22) = (   0.1656940   0.4826960   1.5485852  )
        23           Pt  tau(  23) = (   0.5027409   0.4824546   1.5423159  )
        24           Pt  tau(  24) = (   0.8362469   0.4820211   1.5456496  )
        25           Pt  tau(  25) = (   0.3355650   0.7707267   1.5411642  )
        26           Pt  tau(  26) = (   0.6680864   0.7691283   1.5477579  )
        27           Pt  tau(  27) = (   1.0009829   0.7714389   1.5450125  )
        28           Pt  tau(  28) = (   0.0058938   0.0020700   1.8186612  )
        29           Pt  tau(  29) = (   0.3414475   0.0049210   1.8394095  )
        30           Pt  tau(  30) = (   0.6792695   0.0055264   1.8140278  )
        31           Pt  tau(  31) = (   0.1763325   0.2859009   1.8200070  )
        32           Pt  tau(  32) = (   0.5002322   0.2858711   1.8135305  )
        33           Pt  tau(  33) = (   0.8446234   0.2873945   1.8395604  )
        34           Pt  tau(  34) = (   0.3417061   0.5788211   1.8154430  )
        35           Pt  tau(  35) = (   0.6629123   0.5735139   1.8224060  )
        36           Pt  tau(  36) = (   1.0218985   0.5783049   1.8267117  )
        37           C   tau(  37) = (   0.7686722   0.4317378   2.0146637  )
        38           C   tau(  38) = (   0.8390436   0.5785209   1.9985247  )
        39           C   tau(  39) = (   0.9099795   0.7240608   2.0149363  )
        40           H   tau(  40) = (   0.6994279   0.3927517   2.1148798  )
        41           H   tau(  41) = (   0.9782179   0.7633581   2.1169112  )

     number of k points=    13  Marzari-Vanderbilt smearing, width (Ry)=  0.0200
                       cart. coord. in units 2pi/alat
        k(    1) = (   0.0000000   0.0000000   0.0000000), wk =   0.0800000
        k(    2) = (   0.0000000   0.2309401   0.0000000), wk =   0.1600000
        k(    3) = (   0.0000000   0.4618802   0.0000000), wk =   0.1600000
        k(    4) = (   0.2000000  -0.1154701   0.0000000), wk =   0.1600000
        k(    5) = (   0.2000000   0.1154701   0.0000000), wk =   0.1600000
        k(    6) = (   0.2000000   0.3464102   0.0000000), wk =   0.1600000
        k(    7) = (   0.2000000  -0.5773503   0.0000000), wk =   0.1600000
        k(    8) = (   0.2000000  -0.3464102   0.0000000), wk =   0.1600000
        k(    9) = (   0.4000000  -0.2309401   0.0000000), wk =   0.1600000
        k(   10) = (   0.4000000  -0.0000000   0.0000000), wk =   0.1600000
        k(   11) = (   0.4000000   0.2309401   0.0000000), wk =   0.1600000
        k(   12) = (   0.4000000  -0.6928203   0.0000000), wk =   0.1600000
        k(   13) = (   0.4000000  -0.4618802   0.0000000), wk =   0.1600000

     Dense  grid:   699193 G-vectors     FFT dimensions: (  80,  80, 250)

     Estimated max dynamical RAM per process >       8.45 GB

     Check: negative core charge=   -0.000002

     Initial potential from superposition of free atoms

     starting charge  373.99375, renormalised to  374.00000

     negative rho (up, down):  1.154E-02 0.000E+00


     %%%%%%%%%%%%%%%%%%%%%%%%%%%%%%%%%%%%%%%%%%%%%%%%%%%%%%%%%%%%%%%%%%%%%%%%
     %                                                                      %
     % You are using vdW-DF, which was implemented by the Thonhauser group. %
     % Please cite the following two papers that made this development      %
     % possible and the two reviews that describe the various versions:     %
     %                                                                      %
     %   T. Thonhauser et al., PRL 115, 136402 (2015).                      %
     %   T. Thonhauser et al., PRB 76, 125112 (2007).                       %
     %   K. Berland et al., Rep. Prog. Phys. 78, 066501 (2015).             %
     %   D.C. Langreth et al., J. Phys.: Condens. Matter 21, 084203 (2009). %
     %                                                                      %
     %                                                                      %
     % If you are calculating the stress with vdW-DF, please also cite:     %
     %                                                                      %
     %   R. Sabatini et al., J. Phys.: Condens. Matter 24, 424209 (2012).   %
     %                                                                      %
     %%%%%%%%%%%%%%%%%%%%%%%%%%%%%%%%%%%%%%%%%%%%%%%%%%%%%%%%%%%%%%%%%%%%%%%%


     Starting wfcs are  338 randomized atomic wfcs
     Checking if some PAW data can be deallocated... 

     total cpu time spent up to now is      303.8 secs

     Self-consistent Calculation

     iteration #  1     ecut=    60.00 Ry     beta= 0.70
     Davidson diagonalization with overlap
     ethr =  1.00E-02,  avg # of iterations =  2.0

     Threshold (ethr) on eigenvalues was too large:
     Diagonalizing with lowered threshold

     Davidson diagonalization with overlap
     ethr =  7.90E-04,  avg # of iterations =  2.8

     negative rho (up, down):  1.289E-02 0.000E+00

     total cpu time spent up to now is     1462.4 secs

     total energy              =  -27813.20847821 Ry
     estimated scf accuracy    <       3.26742258 Ry

     iteration #  2     ecut=    60.00 Ry     beta= 0.70
     Davidson diagonalization with overlap
     ethr =  8.74E-04,  avg # of iterations =  2.0

     negative rho (up, down):  1.095E-02 0.000E+00

     total cpu time spent up to now is     1997.2 secs

     total energy              =  -27813.46858937 Ry
     estimated scf accuracy    <       1.56236454 Ry

     iteration #  3     ecut=    60.00 Ry     beta= 0.70
     Davidson diagonalization with overlap
     ethr =  4.18E-04,  avg # of iterations =  1.5

     negative rho (up, down):  8.667E-03 0.000E+00

     total cpu time spent up to now is     2489.1 secs

     total energy              =  -27813.53932282 Ry
     estimated scf accuracy    <       0.67954589 Ry

     iteration #  4     ecut=    60.00 Ry     beta= 0.70
     Davidson diagonalization with overlap
     ethr =  1.82E-04,  avg # of iterations =  6.2

     negative rho (up, down):  6.607E-03 0.000E+00

     total cpu time spent up to now is     3058.7 secs

     total energy              =  -27813.57739999 Ry
     estimated scf accuracy    <       0.12066531 Ry

     iteration #  5     ecut=    60.00 Ry     beta= 0.70
     Davidson diagonalization with overlap
     c_bands:  1 eigenvalues not converged
     c_bands:  1 eigenvalues not converged
     c_bands:  1 eigenvalues not converged
     c_bands:  1 eigenvalues not converged
     c_bands:  1 eigenvalues not converged
     ethr =  3.23E-05,  avg # of iterations = 15.7

     negative rho (up, down):  5.122E-03 0.000E+00

     total cpu time spent up to now is     3947.5 secs

     total energy              =  -27813.60748696 Ry
     estimated scf accuracy    <       0.09237605 Ry

     iteration #  6     ecut=    60.00 Ry     beta= 0.70
     Davidson diagonalization with overlap
     ethr =  2.47E-05,  avg # of iterations =  2.1

     negative rho (up, down):  3.677E-03 0.000E+00

     total cpu time spent up to now is     4454.3 secs

     total energy              =  -27813.60903769 Ry
     estimated scf accuracy    <       0.02228069 Ry

     iteration #  7     ecut=    60.00 Ry     beta= 0.70
     Davidson diagonalization with overlap
     c_bands:  2 eigenvalues not converged
     c_bands:  1 eigenvalues not converged
     c_bands:  1 eigenvalues not converged
     c_bands:  1 eigenvalues not converged
     ethr =  5.96E-06,  avg # of iterations = 14.8

     negative rho (up, down):  3.357E-03 0.000E+00

     total cpu time spent up to now is     5122.9 secs

     total energy              =  -27813.61063292 Ry
     estimated scf accuracy    <       0.00535271 Ry

     iteration #  8     ecut=    60.00 Ry     beta= 0.70
     Davidson diagonalization with overlap
     c_bands:  1 eigenvalues not converged
     c_bands:  1 eigenvalues not converged
     c_bands:  1 eigenvalues not converged
     ethr =  1.43E-06,  avg # of iterations = 11.5

     negative rho (up, down):  3.300E-03 0.000E+00

     total cpu time spent up to now is     5814.0 secs

     total energy              =  -27813.61125694 Ry
     estimated scf accuracy    <       0.00292162 Ry

     iteration #  9     ecut=    60.00 Ry     beta= 0.70
     Davidson diagonalization with overlap
     ethr =  7.81E-07,  avg # of iterations =  4.5

     negative rho (up, down):  3.837E-03 0.000E+00

     total cpu time spent up to now is     6361.7 secs

     total energy              =  -27813.61142137 Ry
     estimated scf accuracy    <       0.00242131 Ry

     iteration # 10     ecut=    60.00 Ry     beta= 0.70
     Davidson diagonalization with overlap
     c_bands:  1 eigenvalues not converged
     c_bands:  1 eigenvalues not converged
     ethr =  6.47E-07,  avg # of iterations = 10.1

     negative rho (up, down):  4.611E-03 0.000E+00

     total cpu time spent up to now is     6961.8 secs

     total energy              =  -27813.61147830 Ry
     estimated scf accuracy    <       0.00171397 Ry

     iteration # 11     ecut=    60.00 Ry     beta= 0.70
     Davidson diagonalization with overlap
     ethr =  4.58E-07,  avg # of iterations =  4.6

     negative rho (up, down):  6.763E-03 0.000E+00

     total cpu time spent up to now is     7499.8 secs

     total energy              =  -27813.61152841 Ry
     estimated scf accuracy    <       0.00081986 Ry

     iteration # 12     ecut=    60.00 Ry     beta= 0.70
     Davidson diagonalization with overlap
     ethr =  2.19E-07,  avg # of iterations =  4.0

     negative rho (up, down):  7.303E-03 0.000E+00

     total cpu time spent up to now is     8039.8 secs

     total energy              =  -27813.61162287 Ry
     estimated scf accuracy    <       0.00037472 Ry

     iteration # 13     ecut=    60.00 Ry     beta= 0.70
     Davidson diagonalization with overlap
     ethr =  1.00E-07,  avg # of iterations =  2.0

     negative rho (up, down):  9.643E-03 0.000E+00

     total cpu time spent up to now is     8572.6 secs

     total energy              =  -27813.61168909 Ry
     estimated scf accuracy    <       0.00028376 Ry

     iteration # 14     ecut=    60.00 Ry     beta= 0.70
     Davidson diagonalization with overlap
     ethr =  7.59E-08,  avg # of iterations =  2.8

     negative rho (up, down):  9.665E-03 0.000E+00

     total cpu time spent up to now is     9097.2 secs

     total energy              =  -27813.61170369 Ry
     estimated scf accuracy    <       0.00008991 Ry

     iteration # 15     ecut=    60.00 Ry     beta= 0.70
     Davidson diagonalization with overlap
     ethr =  2.40E-08,  avg # of iterations =  4.0

     negative rho (up, down):  1.191E-02 0.000E+00

     total cpu time spent up to now is     9695.4 secs

     total energy              =  -27813.61171214 Ry
     estimated scf accuracy    <       0.00010316 Ry

     iteration # 16     ecut=    60.00 Ry     beta= 0.70
     Davidson diagonalization with overlap
     ethr =  2.40E-08,  avg # of iterations =  1.2

     negative rho (up, down):  1.274E-02 0.000E+00

     total cpu time spent up to now is    10168.0 secs

     total energy              =  -27813.61171457 Ry
     estimated scf accuracy    <       0.00001377 Ry

     iteration # 17     ecut=    60.00 Ry     beta= 0.70
     Davidson diagonalization with overlap
     ethr =  3.68E-09,  avg # of iterations =  5.2

     negative rho (up, down):  1.303E-02 0.000E+00

     total cpu time spent up to now is    10972.9 secs

     total energy              =  -27813.61171925 Ry
     estimated scf accuracy    <       0.00000505 Ry

     iteration # 18     ecut=    60.00 Ry     beta= 0.70
     Davidson diagonalization with overlap
     ethr =  1.35E-09,  avg # of iterations =  3.1

     negative rho (up, down):  1.303E-02 0.000E+00

     total cpu time spent up to now is    11558.0 secs

     total energy              =  -27813.61172002 Ry
     estimated scf accuracy    <       0.00000217 Ry

     iteration # 19     ecut=    60.00 Ry     beta= 0.70
     Davidson diagonalization with overlap
     ethr =  5.79E-10,  avg # of iterations =  2.2

     negative rho (up, down):  1.301E-02 0.000E+00

     total cpu time spent up to now is    12109.3 secs

     total energy              =  -27813.61172032 Ry
     estimated scf accuracy    <       0.00000101 Ry

     iteration # 20     ecut=    60.00 Ry     beta= 0.70
     Davidson diagonalization with overlap
     ethr =  2.69E-10,  avg # of iterations =  2.8

     negative rho (up, down):  1.288E-02 0.000E+00

     total cpu time spent up to now is    12654.5 secs

     End of self-consistent calculation

          k = 0.0000 0.0000 0.0000 ( 87471 PWs)   bands (ev):

   -14.3973 -11.7376  -7.3199  -6.5537  -5.7095  -5.5521  -4.8170  -4.7593
    -4.1697  -4.1414  -4.1338  -4.1160  -4.1007  -4.0710  -4.0066  -3.8184
    -3.7742  -3.6288  -3.5820  -3.5657  -3.5125  -3.4958  -3.4179  -3.2556
    -3.1834  -3.1310  -3.0624  -3.0270  -2.9634  -2.9184  -2.9058  -2.8950
    -2.8590  -2.8253  -2.7939  -2.7704  -2.7326  -2.7038  -2.6749  -2.6500
    -2.6300  -2.6127  -2.5940  -2.5768  -2.5664  -2.5120  -2.3241  -2.1914
    -2.1505  -2.0730  -2.0631  -2.0435  -2.0265  -2.0118  -1.9884  -1.9234
    -1.8940  -1.8009  -1.7788  -1.7609  -1.6750  -1.4861  -1.4094  -1.3809
    -1.3301  -1.2925  -1.2723  -1.2669  -1.2516  -1.1685  -1.1340  -1.1100
    -1.0723  -1.0625  -1.0400  -1.0311  -1.0254  -1.0182  -1.0059  -0.9673
    -0.9540  -0.9407  -0.9312  -0.9139  -0.8971  -0.8773  -0.8695  -0.8570
    -0.8407  -0.8071  -0.7950  -0.6926  -0.6565  -0.6495  -0.6151  -0.5981
    -0.5699  -0.5557  -0.5372  -0.5042  -0.5019  -0.4639  -0.4023  -0.3977
    -0.3705  -0.3552  -0.3491  -0.3446  -0.3236  -0.2769  -0.2454  -0.2106
    -0.2094  -0.1305  -0.0869   0.0180   0.0588   0.1548   0.1760   0.2485
     0.2826   0.2922   0.3063   0.3475   0.4127   0.4572   0.4619   0.4887
     0.5098   0.5217   0.5338   0.5447   0.5683   0.5796   0.6284   0.7314
     0.7798   0.8002   0.8098   0.8409   0.9359   0.9596   0.9814   0.9996
     1.0174   1.0318   1.0765   1.0908   1.1365   1.1734   1.2377   1.2428
     1.2679   1.3022   1.3082   1.3477   1.3572   1.3780   1.3991   1.4517
     1.4637   1.4756   1.4920   1.5055   1.5083   1.5103   1.5245   1.5361
     1.5457   1.5746   1.5815   1.6228   1.6541   1.6909   1.7106   1.7179
     1.7278   1.7412   1.7663   1.7977   1.8309   1.8324   1.8451   1.8579
     1.8636   1.8878   1.9049   1.9111   1.9519   1.9536   2.0020   2.0137
     2.0253   2.1371   2.1799   2.2145   2.2332   2.2750   2.2895   2.3049
     2.3228   2.5615   2.6407   2.7129   3.0919   3.1444   3.1587   3.5714
     3.6592   4.4672   4.8782   5.2987   5.3888   5.4172   5.7146   5.8081
     6.2207   6.2424   6.5250   6.7768   6.9187   7.0903   7.1247   7.1687

          k = 0.0000 0.2309 0.0000 ( 87314 PWs)   bands (ev):

   -14.3968 -11.7385  -7.3174  -6.4077  -5.7083  -5.4330  -4.8098  -4.7158
    -4.6019  -4.2442  -4.1503  -3.9967  -3.9440  -3.9125  -3.8565  -3.8141
    -3.7492  -3.6656  -3.5879  -3.5056  -3.4659  -3.4071  -3.3447  -3.2409
    -3.1691  -3.1112  -3.0774  -3.0487  -2.9996  -2.9618  -2.9083  -2.8965
    -2.8807  -2.8332  -2.8211  -2.7757  -2.7678  -2.7231  -2.6926  -2.6418
    -2.6150  -2.5536  -2.4967  -2.4498  -2.4400  -2.3976  -2.3096  -2.2232
    -2.1725  -2.1523  -2.1272  -2.1120  -2.0513  -2.0288  -1.9815  -1.9120
    -1.8543  -1.8214  -1.7867  -1.7566  -1.6995  -1.5785  -1.5278  -1.4482
    -1.4305  -1.4146  -1.4023  -1.3752  -1.3379  -1.2874  -1.2703  -1.2600
    -1.2190  -1.1978  -1.1544  -1.1085  -1.0634  -1.0480  -1.0154  -0.9989
    -0.9736  -0.9541  -0.9174  -0.8856  -0.8609  -0.8440  -0.8314  -0.8142
    -0.7936  -0.7681  -0.7456  -0.7106  -0.6914  -0.6452  -0.6261  -0.6084
    -0.5995  -0.5748  -0.5475  -0.5169  -0.5017  -0.4630  -0.4466  -0.4406
    -0.4222  -0.4054  -0.3890  -0.3651  -0.3377  -0.3009  -0.2660  -0.2270
    -0.1898  -0.1687  -0.1630  -0.1183  -0.1040  -0.1011  -0.0547   0.0498
     0.0904   0.1689   0.2175   0.2687   0.2796   0.3067   0.3533   0.3812
     0.4583   0.4789   0.5133   0.5414   0.6025   0.6208   0.6589   0.6817
     0.7132   0.7347   0.7584   0.7885   0.8374   0.8756   0.8985   0.9289
     0.9439   0.9618   1.0400   1.0556   1.0701   1.0824   1.1059   1.1606
     1.1895   1.2371   1.2676   1.2888   1.2954   1.3416   1.3535   1.3934
     1.4449   1.4700   1.4990   1.5194   1.5400   1.5631   1.6096   1.6348
     1.6626   1.6838   1.7575   1.7639   1.7909   1.8040   1.8383   1.8485
     1.8827   1.9048   1.9330   1.9488   1.9837   1.9925   2.0029   2.0164
     2.0895   2.1090   2.1472   2.1742   2.1939   2.1984   2.2325   2.2536
     2.2631   2.2960   2.3298   2.3739   2.4132   2.4285   2.4644   2.5383
     2.5764   2.6055   2.6970   3.0304   3.2315   3.3833   3.6909   3.7828
     3.9426   4.3246   5.0041   5.1319   5.3061   5.4379   5.7363   5.9736
     6.0892   6.1804   6.2553   6.5516   6.5840   6.9100   7.0009   7.0547

          k = 0.0000 0.4619 0.0000 ( 87356 PWs)   bands (ev):

   -14.3960 -11.7400  -7.3136  -5.9885  -5.7063  -5.3606  -5.1473  -4.7952
    -4.5282  -4.2775  -4.1899  -4.0824  -3.8862  -3.7628  -3.7297  -3.6074
    -3.5556  -3.5179  -3.4744  -3.3563  -3.3321  -3.3229  -3.2920  -3.2273
    -3.1762  -3.1688  -3.1385  -3.1189  -3.0934  -3.0587  -3.0191  -2.9993
    -2.9450  -2.9272  -2.7982  -2.7454  -2.6785  -2.6741  -2.6279  -2.5882
    -2.5311  -2.4989  -2.4515  -2.4391  -2.3970  -2.3240  -2.2768  -2.2124
    -2.1622  -2.1349  -2.1242  -2.0862  -2.0597  -2.0082  -1.9883  -1.9556
    -1.9352  -1.8884  -1.8276  -1.8097  -1.7740  -1.7406  -1.7143  -1.6227
    -1.6055  -1.5898  -1.5605  -1.5261  -1.4811  -1.4022  -1.3897  -1.3544
    -1.3160  -1.2725  -1.2427  -1.2101  -1.1867  -1.1409  -1.1040  -1.0760
    -1.0343  -1.0070  -0.9774  -0.9662  -0.9295  -0.9090  -0.8827  -0.8645
    -0.8472  -0.8283  -0.8062  -0.8022  -0.7504  -0.7279  -0.6903  -0.6820
    -0.6481  -0.6313  -0.6052  -0.5863  -0.5562  -0.5162  -0.5022  -0.4611
    -0.4204  -0.4150  -0.3684  -0.3460  -0.3248  -0.3019  -0.2559  -0.2342
    -0.1930  -0.1714  -0.1488  -0.1218  -0.0895  -0.0607  -0.0133   0.0546
     0.1125   0.1222   0.1767   0.2120   0.2332   0.2533   0.2802   0.3070
     0.3206   0.3411   0.3540   0.3852   0.4014   0.4210   0.4771   0.5319
     0.5796   0.5983   0.6094   0.6506   0.6787   0.7545   0.8250   0.8583
     0.8877   0.9476   0.9893   1.0065   1.0421   1.0940   1.1029   1.1311
     1.1571   1.1939   1.2243   1.2468   1.2790   1.3123   1.3587   1.3860
     1.3981   1.4452   1.4665   1.4883   1.5869   1.5892   1.6461   1.6628
     1.7130   1.7307   1.7849   1.8392   1.8567   1.8609   1.9276   1.9415
     1.9693   2.0017   2.0324   2.0668   2.0995   2.1353   2.1428   2.1635
     2.1750   2.1964   2.2729   2.3083   2.3422   2.3886   2.4345   2.4544
     2.4656   2.5230   2.6463   2.6851   2.7019   2.9191   3.1505   3.3462
     3.4506   3.4643   3.6550   3.7414   3.8101   4.0942   4.3496   4.3986
     4.5905   4.6504   4.7815   4.8719   4.9102   5.1114   5.3192   5.3584
     5.6979   5.8399   5.8851   6.1375   6.2570   6.5723   6.7835   6.8904

          k = 0.2000-0.1155 0.0000 ( 87314 PWs)   bands (ev):

   -14.3968 -11.7376  -7.3181  -6.4112  -5.7097  -5.4436  -4.9082  -4.6933
    -4.4445  -4.2599  -4.2206  -3.9955  -3.9329  -3.8921  -3.8676  -3.7747
    -3.6908  -3.6655  -3.5747  -3.5500  -3.4995  -3.4454  -3.3609  -3.1880
    -3.1557  -3.1330  -3.0551  -3.0150  -2.9915  -2.9650  -2.9298  -2.8837
    -2.8701  -2.8385  -2.8082  -2.7922  -2.7601  -2.7403  -2.7003  -2.6650
    -2.5880  -2.5686  -2.5093  -2.4769  -2.4469  -2.3982  -2.3310  -2.2368
    -2.1956  -2.1540  -2.1245  -2.0891  -2.0636  -2.0208  -1.9679  -1.9368
    -1.8644  -1.8169  -1.7947  -1.7616  -1.7165  -1.5746  -1.5090  -1.4733
    -1.4299  -1.4184  -1.3857  -1.3560  -1.3324  -1.3152  -1.2864  -1.2266
    -1.2042  -1.1824  -1.1352  -1.1183  -1.1045  -1.0702  -1.0480  -1.0064
    -0.9538  -0.9421  -0.9167  -0.8906  -0.8722  -0.8427  -0.8310  -0.8179
    -0.8096  -0.7753  -0.7468  -0.7160  -0.6705  -0.6426  -0.6313  -0.6075
    -0.5933  -0.5749  -0.5326  -0.5122  -0.5001  -0.4715  -0.4545  -0.4393
    -0.4210  -0.4038  -0.3900  -0.3621  -0.3484  -0.2866  -0.2501  -0.1969
    -0.1708  -0.1635  -0.1183  -0.1085  -0.0987  -0.0835  -0.0289   0.0253
     0.1131   0.1819   0.2491   0.2829   0.2979   0.3179   0.3590   0.3825
     0.4428   0.4653   0.5103   0.5555   0.5733   0.6116   0.6632   0.6781
     0.7089   0.7265   0.7485   0.7623   0.8276   0.8527   0.9037   0.9224
     0.9362   0.9545   1.0140   1.0545   1.0689   1.1037   1.1237   1.1597
     1.1878   1.2562   1.2679   1.2919   1.3125   1.3459   1.3663   1.4076
     1.4351   1.4809   1.4905   1.5069   1.5148   1.5746   1.6070   1.6336
     1.6771   1.7115   1.7310   1.7595   1.7997   1.8096   1.8297   1.8461
     1.8661   1.8965   1.9205   1.9424   1.9518   1.9765   2.0035   2.0283
     2.0747   2.1175   2.1538   2.1788   2.1877   2.2057   2.2267   2.2474
     2.2556   2.2784   2.3217   2.3488   2.4063   2.4253   2.5075   2.5611
     2.5855   2.6792   2.7826   2.8783   3.0742   3.5528   3.6482   3.8274
     3.8756   4.4982   4.8951   5.0704   5.2740   5.5806   5.6838   5.8854
     6.0116   6.0942   6.3742   6.5540   6.5959   6.9315   7.0193   7.0795

          k = 0.2000 0.1155 0.0000 ( 87314 PWs)   bands (ev):

   -14.3967 -11.7388  -7.3150  -6.4091  -5.7094  -5.4413  -4.8190  -4.7261
    -4.5883  -4.2272  -4.1390  -4.0131  -3.9899  -3.9149  -3.8772  -3.8347
    -3.6936  -3.5957  -3.5566  -3.5272  -3.4832  -3.4675  -3.3739  -3.1825
    -3.1576  -3.1130  -3.0508  -3.0212  -2.9975  -2.9603  -2.9331  -2.9118
    -2.8834  -2.8558  -2.8033  -2.7643  -2.7485  -2.7105  -2.6852  -2.6388
    -2.6007  -2.5292  -2.5011  -2.4917  -2.4362  -2.3990  -2.3380  -2.2566
    -2.1939  -2.1629  -2.1242  -2.1055  -2.0742  -1.9802  -1.9312  -1.8840
    -1.8683  -1.8107  -1.8023  -1.7813  -1.6496  -1.5709  -1.5175  -1.4720
    -1.4555  -1.4085  -1.3854  -1.3574  -1.3444  -1.3148  -1.2876  -1.2372
    -1.1988  -1.1765  -1.1498  -1.1270  -1.0911  -1.0519  -1.0404  -0.9907
    -0.9749  -0.9591  -0.9227  -0.8893  -0.8580  -0.8485  -0.8288  -0.8133
    -0.7967  -0.7813  -0.7332  -0.6935  -0.6811  -0.6510  -0.6246  -0.6146
    -0.6082  -0.5802  -0.5475  -0.5247  -0.5059  -0.4880  -0.4581  -0.4459
    -0.4265  -0.4081  -0.4035  -0.3744  -0.3346  -0.3281  -0.2833  -0.2192
    -0.1702  -0.1571  -0.1191  -0.1090  -0.1034  -0.0993  -0.0644   0.0583
     0.1050   0.1753   0.2239   0.2502   0.2746   0.3045   0.3298   0.3596
     0.4202   0.4860   0.5219   0.5464   0.5908   0.6454   0.6575   0.6899
     0.7098   0.7275   0.7472   0.7837   0.8355   0.8576   0.8982   0.9227
     0.9364   0.9828   1.0119   1.0417   1.0529   1.0852   1.1122   1.1341
     1.1834   1.2485   1.2585   1.2935   1.3105   1.3362   1.3711   1.3977
     1.4461   1.4786   1.4903   1.5166   1.5569   1.5671   1.6080   1.6261
     1.6499   1.7094   1.7538   1.7813   1.7965   1.8093   1.8341   1.8498
     1.8830   1.9135   1.9245   1.9533   1.9777   1.9895   1.9976   2.0326
     2.1010   2.1297   2.1395   2.1691   2.1870   2.2245   2.2386   2.2510
     2.2770   2.2935   2.3319   2.3684   2.4096   2.4228   2.4852   2.5580
     2.5757   2.6078   2.6958   3.0257   3.1898   3.5015   3.6478   3.8008
     3.9726   4.2702   4.9227   5.0909   5.4063   5.6076   5.7132   5.9306
     5.9956   6.1605   6.2733   6.5263   6.5994   6.8861   6.9657   7.0095

          k = 0.2000 0.3464 0.0000 ( 87356 PWs)   bands (ev):

   -14.3961 -11.7403  -7.3110  -6.1234  -5.7076  -5.2581  -4.9685  -4.8963
    -4.6435  -4.5362  -4.0091  -3.8700  -3.8083  -3.7881  -3.7291  -3.7056
    -3.6600  -3.6186  -3.5979  -3.5265  -3.3779  -3.2509  -3.2345  -3.2034
    -3.1905  -3.1422  -3.1378  -3.0746  -3.0400  -2.9994  -2.9240  -2.8945
    -2.8759  -2.8628  -2.8315  -2.8029  -2.7543  -2.7229  -2.7015  -2.6471
    -2.6166  -2.5726  -2.4418  -2.3855  -2.3141  -2.2915  -2.2487  -2.2187
    -2.2140  -2.1529  -2.1321  -2.1020  -2.0475  -2.0019  -1.9479  -1.9225
    -1.8747  -1.8522  -1.7972  -1.7646  -1.7309  -1.7076  -1.6853  -1.6360
    -1.5742  -1.5222  -1.4889  -1.4625  -1.4449  -1.3927  -1.3613  -1.3513
    -1.3179  -1.2841  -1.2398  -1.1859  -1.1561  -1.1401  -1.1251  -1.0974
    -1.0593  -1.0200  -0.9706  -0.9439  -0.9074  -0.8908  -0.8750  -0.8659
    -0.8199  -0.7833  -0.7614  -0.7415  -0.7311  -0.7147  -0.7006  -0.6741
    -0.6595  -0.6034  -0.5880  -0.5279  -0.5154  -0.4958  -0.4906  -0.4637
    -0.4403  -0.4279  -0.4014  -0.3953  -0.3612  -0.3476  -0.3162  -0.3068
    -0.2601  -0.2228  -0.1929  -0.1673  -0.0957  -0.0852  -0.0546  -0.0068
     0.0775   0.0988   0.1597   0.1679   0.2448   0.2540   0.2815   0.3216
     0.3622   0.3842   0.4295   0.4511   0.4669   0.5028   0.5242   0.5934
     0.6265   0.6564   0.6701   0.6976   0.7422   0.8057   0.8379   0.8756
     0.9128   0.9343   0.9584   0.9698   1.0217   1.0702   1.0768   1.1302
     1.1408   1.1766   1.2215   1.2498   1.2782   1.2878   1.3205   1.3287
     1.3563   1.4356   1.4607   1.5050   1.5375   1.5955   1.7172   1.7446
     1.7664   1.8093   1.8281   1.8682   1.9160   1.9378   1.9690   1.9897
     2.0095   2.0252   2.0452   2.0571   2.0888   2.1065   2.1245   2.1729
     2.1938   2.2120   2.2425   2.2570   2.3025   2.3168   2.3798   2.4364
     2.4728   2.4999   2.5624   2.5983   2.6386   2.7702   2.8499   3.0375
     3.1441   3.2379   3.5317   3.6089   3.7393   3.8321   4.1154   4.2742
     4.5020   4.5511   4.7038   4.7593   5.0820   5.3180   5.5829   5.8816
     5.9682   6.1124   6.2457   6.3211   6.3956   6.5837   6.6695   6.7503

          k = 0.2000-0.5774 0.0000 ( 87386 PWs)   bands (ev):

   -14.3958 -11.7401  -7.3115  -5.7125  -5.6122  -5.5778  -5.1493  -4.9355
    -4.6843  -4.3310  -4.2101  -3.8194  -3.7702  -3.6692  -3.6226  -3.6048
    -3.5061  -3.4611  -3.4099  -3.3986  -3.3117  -3.2940  -3.2742  -3.2572
    -3.2254  -3.2050  -3.1409  -3.1337  -3.0641  -3.0546  -3.0350  -3.0115
    -2.9506  -2.9123  -2.8135  -2.7914  -2.7686  -2.7194  -2.6491  -2.6321
    -2.6102  -2.5335  -2.4772  -2.4185  -2.3483  -2.2901  -2.2474  -2.2245
    -2.2034  -2.1322  -2.0796  -2.0238  -1.9973  -1.9471  -1.9313  -1.8963
    -1.8760  -1.8559  -1.7893  -1.7615  -1.7464  -1.7162  -1.6911  -1.6579
    -1.6299  -1.6170  -1.5845  -1.5598  -1.5483  -1.4850  -1.4549  -1.4071
    -1.3736  -1.3489  -1.3143  -1.3047  -1.2141  -1.2021  -1.1660  -1.1365
    -1.1223  -1.0866  -1.0764  -1.0238  -0.9909  -0.9654  -0.9365  -0.9136
    -0.9093  -0.8459  -0.7937  -0.7729  -0.7671  -0.7328  -0.6947  -0.6647
    -0.6276  -0.5848  -0.5600  -0.5401  -0.4977  -0.4845  -0.4692  -0.4552
    -0.4486  -0.4136  -0.4011  -0.3613  -0.3454  -0.3307  -0.3066  -0.2960
    -0.2887  -0.2650  -0.2360  -0.2057  -0.1334  -0.0575  -0.0385   0.0103
     0.0976   0.1249   0.1500   0.1592   0.1833   0.2235   0.2418   0.2487
     0.2874   0.3411   0.3581   0.3806   0.4202   0.4858   0.5120   0.5480
     0.5651   0.5896   0.6093   0.6890   0.7244   0.7723   0.8343   0.8635
     0.8773   0.9069   0.9461   0.9827   0.9952   1.0018   1.0463   1.0826
     1.1090   1.1214   1.1550   1.1778   1.2191   1.2733   1.2874   1.3345
     1.4335   1.4544   1.5031   1.5867   1.6275   1.6562   1.6757   1.7323
     1.7579   1.8103   1.8582   1.9079   1.9364   1.9631   1.9914   2.0163
     2.0292   2.0413   2.0945   2.1227   2.1321   2.1531   2.1822   2.2084
     2.2233   2.2606   2.3116   2.3369   2.4219   2.4411   2.4526   2.4689
     2.5068   2.5231   2.6149   2.7458   2.9281   3.1046   3.3239   3.5907
     3.6123   3.7948   3.8595   3.9214   4.0488   4.2323   4.4291   4.5424
     4.6288   4.8557   4.8675   4.9903   5.1356   5.2815   5.3656   5.4384
     5.5151   5.6341   5.7844   5.9541   6.1546   6.4104   6.4834   6.6586

          k = 0.2000-0.3464 0.0000 ( 87356 PWs)   bands (ev):

   -14.3962 -11.7384  -7.3158  -6.1305  -5.7079  -5.2499  -5.0398  -4.8882
    -4.6144  -4.4698  -3.9426  -3.8208  -3.7986  -3.7775  -3.7347  -3.7253
    -3.6844  -3.6214  -3.5856  -3.5427  -3.4186  -3.2631  -3.2223  -3.1974
    -3.1904  -3.1348  -3.1152  -3.0951  -3.0230  -2.9900  -2.9569  -2.9192
    -2.8833  -2.8653  -2.8184  -2.8053  -2.7614  -2.7314  -2.7040  -2.6944
    -2.6038  -2.5831  -2.5224  -2.4216  -2.3449  -2.3117  -2.2473  -2.2185
    -2.1958  -2.1548  -2.1210  -2.1061  -2.0510  -2.0108  -1.9658  -1.9405
    -1.8772  -1.8489  -1.8035  -1.7776  -1.7479  -1.7198  -1.6853  -1.6464
    -1.5775  -1.5149  -1.4924  -1.4643  -1.4372  -1.3953  -1.3671  -1.3475
    -1.3226  -1.2881  -1.2357  -1.1550  -1.1487  -1.1279  -1.0967  -1.0859
    -1.0391  -1.0024  -0.9644  -0.9401  -0.9198  -0.8869  -0.8624  -0.8491
    -0.8261  -0.7909  -0.7625  -0.7343  -0.7208  -0.6910  -0.6797  -0.6586
    -0.6315  -0.6005  -0.5754  -0.5617  -0.5394  -0.5063  -0.4840  -0.4672
    -0.4469  -0.4206  -0.3893  -0.3690  -0.3611  -0.3320  -0.3111  -0.3000
    -0.2359  -0.2000  -0.1753  -0.1565  -0.1171  -0.0755  -0.0330   0.0301
     0.0909   0.1186   0.1623   0.2118   0.2325   0.2674   0.2974   0.3177
     0.3496   0.3851   0.4156   0.4449   0.4615   0.4888   0.5176   0.5808
     0.6161   0.6683   0.6874   0.7120   0.7320   0.7709   0.8600   0.8711
     0.9130   0.9312   0.9368   0.9625   1.0014   1.0795   1.0967   1.1272
     1.1579   1.2066   1.2199   1.2412   1.2782   1.2847   1.3115   1.3431
     1.3619   1.4314   1.4635   1.4857   1.5493   1.6302   1.7050   1.7438
     1.7776   1.8009   1.8234   1.8751   1.9098   1.9429   1.9678   1.9811
     2.0077   2.0259   2.0501   2.0610   2.0811   2.1129   2.1164   2.1564
     2.1834   2.1880   2.2501   2.2552   2.3036   2.3498   2.4109   2.4353
     2.4657   2.4898   2.5319   2.5744   2.6503   2.7017   2.8074   3.0478
     3.1764   3.2184   3.4518   3.5464   3.7286   3.7687   4.1748   4.2667
     4.5279   4.5869   4.7134   4.7985   5.1105   5.2018   5.5672   5.7167
     5.9437   6.1313   6.2118   6.3139   6.4342   6.6096   6.6921   6.8246

          k = 0.4000-0.2309 0.0000 ( 87356 PWs)   bands (ev):

   -14.3961 -11.7374  -7.3152  -6.0043  -5.7098  -5.4180  -5.1744  -4.7705
    -4.3871  -4.2951  -4.2555  -4.0225  -3.8392  -3.7402  -3.6680  -3.6113
    -3.5771  -3.5252  -3.4871  -3.4351  -3.3386  -3.3011  -3.2819  -3.2466
    -3.1886  -3.1449  -3.1200  -3.0991  -3.0837  -3.0494  -3.0008  -2.9770
    -2.9397  -2.8393  -2.8257  -2.7394  -2.7269  -2.6927  -2.6627  -2.6161
    -2.5301  -2.4931  -2.4832  -2.4387  -2.4060  -2.3607  -2.3101  -2.2629
    -2.2130  -2.1617  -2.1184  -2.0822  -2.0452  -2.0226  -1.9958  -1.9807
    -1.9461  -1.9077  -1.8579  -1.8213  -1.7945  -1.7412  -1.6836  -1.6345
    -1.6106  -1.5787  -1.5601  -1.5564  -1.4838  -1.3974  -1.3918  -1.3584
    -1.3269  -1.2932  -1.2352  -1.2170  -1.1533  -1.1168  -1.0692  -1.0629
    -1.0252  -1.0061  -0.9664  -0.9509  -0.9278  -0.8924  -0.8846  -0.8613
    -0.8504  -0.8287  -0.8074  -0.7874  -0.7731  -0.7216  -0.7021  -0.6777
    -0.6669  -0.6261  -0.6161  -0.5946  -0.5724  -0.5123  -0.4659  -0.4421
    -0.4141  -0.4046  -0.3583  -0.3373  -0.3049  -0.2792  -0.2550  -0.1807
    -0.1683  -0.1429  -0.1295  -0.0820  -0.0520  -0.0195   0.0198   0.0719
     0.0990   0.1168   0.1459   0.1980   0.2220   0.2393   0.2564   0.2782
     0.2962   0.3330   0.3590   0.3905   0.4236   0.4496   0.4888   0.5125
     0.5712   0.5787   0.6019   0.6190   0.7070   0.7813   0.8165   0.8397
     0.8817   0.9235   0.9858   1.0285   1.0444   1.0830   1.1147   1.1573
     1.1896   1.2121   1.2318   1.2647   1.2969   1.3156   1.3696   1.3879
     1.4103   1.4382   1.4549   1.5074   1.5351   1.6032   1.6377   1.6497
     1.6896   1.7453   1.7566   1.8374   1.8543   1.8671   1.8944   1.9213
     1.9648   1.9873   2.0303   2.0694   2.1084   2.1362   2.1529   2.1591
     2.1865   2.2117   2.2671   2.2798   2.3520   2.3746   2.4246   2.4391
     2.4640   2.5088   2.6473   2.6901   2.7508   2.9136   3.0847   3.2940
     3.4064   3.4693   3.6436   3.7120   3.9303   4.1166   4.2399   4.4014
     4.6686   4.7308   4.8128   4.8417   4.9871   5.0715   5.1604   5.3519
     5.5660   5.8105   5.9313   6.0605   6.3570   6.4888   6.8421   6.9692

          k = 0.4000-0.0000 0.0000 ( 87356 PWs)   bands (ev):

   -14.3962 -11.7388  -7.3120  -6.1350  -5.7093  -5.2717  -5.0358  -4.8903
    -4.6028  -4.4746  -4.0018  -3.8178  -3.8079  -3.7592  -3.7300  -3.7193
    -3.6803  -3.6214  -3.5875  -3.4764  -3.4351  -3.3210  -3.2412  -3.2046
    -3.1863  -3.1416  -3.1050  -3.0606  -2.9770  -2.9555  -2.9360  -2.8922
    -2.8826  -2.8513  -2.8337  -2.8090  -2.7599  -2.7266  -2.7098  -2.6707
    -2.6239  -2.5719  -2.4640  -2.3946  -2.3618  -2.3171  -2.2701  -2.2391
    -2.2009  -2.1843  -2.1351  -2.1029  -2.0622  -2.0294  -1.9771  -1.9450
    -1.8749  -1.8273  -1.7982  -1.7668  -1.7412  -1.7089  -1.6667  -1.6458
    -1.5579  -1.5117  -1.4844  -1.4695  -1.4363  -1.3878  -1.3750  -1.3414
    -1.3156  -1.2964  -1.2444  -1.1919  -1.1607  -1.1482  -1.1138  -1.1026
    -1.0520  -1.0106  -0.9633  -0.9416  -0.9239  -0.8759  -0.8425  -0.8293
    -0.8106  -0.7954  -0.7682  -0.7432  -0.7233  -0.6973  -0.6926  -0.6805
    -0.6415  -0.6171  -0.5723  -0.5494  -0.5294  -0.5049  -0.4858  -0.4667
    -0.4389  -0.4278  -0.3852  -0.3766  -0.3642  -0.3435  -0.3208  -0.3059
    -0.2761  -0.2059  -0.1879  -0.1481  -0.0969  -0.0646  -0.0029   0.0022
     0.0774   0.1447   0.1707   0.1861   0.2273   0.2642   0.2890   0.3171
     0.3560   0.3825   0.4236   0.4449   0.4576   0.5006   0.5323   0.5672
     0.6162   0.6467   0.6797   0.7112   0.7294   0.8110   0.8453   0.8711
     0.9019   0.9152   0.9400   0.9912   1.0104   1.0350   1.0785   1.1286
     1.1518   1.1748   1.2215   1.2541   1.2780   1.2920   1.3160   1.3337
     1.3645   1.3944   1.4482   1.5274   1.5630   1.6474   1.6882   1.7221
     1.7786   1.8219   1.8446   1.8892   1.9121   1.9396   1.9468   1.9903
     1.9997   2.0337   2.0436   2.0684   2.0755   2.1039   2.1174   2.1431
     2.1965   2.2131   2.2256   2.2653   2.3091   2.3236   2.4220   2.4462
     2.4561   2.4886   2.5313   2.5714   2.6538   2.6970   2.9132   3.0302
     3.1486   3.2734   3.4189   3.5961   3.7534   3.9046   4.1419   4.2130
     4.5162   4.6193   4.6576   4.8215   4.9402   5.4331   5.6378   5.7642
     5.9081   5.9965   6.1623   6.2764   6.3979   6.6089   6.6985   6.7671

          k = 0.4000 0.2309 0.0000 ( 87356 PWs)   bands (ev):

   -14.3959 -11.7406  -7.3072  -5.9953  -5.7086  -5.4027  -5.1331  -4.7742
    -4.5577  -4.2655  -4.1649  -4.1393  -3.9246  -3.7536  -3.6773  -3.6071
    -3.5647  -3.5182  -3.4664  -3.3874  -3.3633  -3.3072  -3.2998  -3.2452
    -3.1678  -3.1474  -3.1357  -3.1205  -3.0604  -3.0377  -2.9811  -2.9568
    -2.9291  -2.8434  -2.7626  -2.7176  -2.6994  -2.6712  -2.6429  -2.5864
    -2.5071  -2.4827  -2.4474  -2.4325  -2.3981  -2.3281  -2.2888  -2.2643
    -2.2238  -2.1775  -2.1378  -2.1067  -2.0243  -2.0133  -1.9934  -1.9650
    -1.9600  -1.8946  -1.8207  -1.7931  -1.7775  -1.7138  -1.6539  -1.6208
    -1.6032  -1.5526  -1.5215  -1.5027  -1.4616  -1.4045  -1.3847  -1.3585
    -1.3407  -1.2840  -1.2461  -1.2285  -1.2100  -1.1784  -1.1094  -1.0934
    -1.0513  -1.0265  -0.9998  -0.9521  -0.9202  -0.9087  -0.8830  -0.8558
    -0.8346  -0.8206  -0.8158  -0.7882  -0.7628  -0.7315  -0.7057  -0.6797
    -0.6607  -0.6349  -0.6224  -0.5816  -0.5554  -0.5366  -0.4803  -0.4644
    -0.4433  -0.4333  -0.3995  -0.3642  -0.3381  -0.2971  -0.2463  -0.2416
    -0.2000  -0.1752  -0.1406  -0.1195  -0.0901  -0.0618  -0.0059   0.0507
     0.0982   0.1122   0.1579   0.2107   0.2194   0.2476   0.2846   0.2913
     0.3071   0.3456   0.3630   0.3816   0.4001   0.4437   0.4736   0.5132
     0.5529   0.5775   0.6129   0.6626   0.7068   0.7361   0.8296   0.8462
     0.8691   0.9141   0.9894   1.0089   1.0347   1.0724   1.1389   1.1438
     1.1757   1.1899   1.2110   1.2573   1.2861   1.3053   1.3416   1.3722
     1.4109   1.4352   1.4601   1.4970   1.5691   1.5941   1.6171   1.6629
     1.7100   1.7546   1.8005   1.8437   1.8566   1.8766   1.9123   1.9443
     1.9635   1.9976   2.0266   2.0746   2.1087   2.1266   2.1621   2.1703
     2.1916   2.2390   2.2639   2.2825   2.3869   2.4155   2.4305   2.4565
     2.4795   2.5148   2.6533   2.6894   2.7404   2.9498   3.1583   3.3800
     3.4462   3.4814   3.6592   3.7348   3.8934   4.0858   4.2735   4.4001
     4.5190   4.7253   4.7911   4.8570   5.0220   5.1903   5.2512   5.4077
     5.6711   5.8019   5.8500   6.1884   6.2322   6.5342   6.6169   6.9089

          k = 0.4000-0.6928 0.0000 ( 87386 PWs)   bands (ev):

   -14.3957 -11.7405  -7.3076  -5.7097  -5.6344  -5.5876  -5.0932  -5.0045
    -4.6142  -4.4608  -4.0987  -3.8546  -3.8042  -3.6878  -3.6149  -3.5841
    -3.5150  -3.4822  -3.4309  -3.3947  -3.2989  -3.2699  -3.2590  -3.2456
    -3.2310  -3.2042  -3.1434  -3.1087  -3.0597  -3.0458  -3.0332  -2.9976
    -2.9335  -2.8255  -2.8087  -2.7862  -2.7693  -2.6903  -2.6626  -2.6310
    -2.6112  -2.5382  -2.4998  -2.4260  -2.3321  -2.3184  -2.2578  -2.2407
    -2.1844  -2.1408  -2.0739  -2.0441  -2.0065  -1.9874  -1.9361  -1.9096
    -1.8680  -1.8327  -1.7962  -1.7448  -1.7208  -1.7020  -1.6929  -1.6405
    -1.6210  -1.6065  -1.5710  -1.5500  -1.5311  -1.4825  -1.4453  -1.4245
    -1.3984  -1.3539  -1.3193  -1.2996  -1.2560  -1.1984  -1.1852  -1.1494
    -1.1319  -1.0920  -1.0702  -1.0437  -1.0190  -0.9674  -0.9345  -0.9254
    -0.8925  -0.8131  -0.7840  -0.7766  -0.7643  -0.7443  -0.7273  -0.6564
    -0.6135  -0.5925  -0.5689  -0.5306  -0.5084  -0.4936  -0.4751  -0.4671
    -0.4416  -0.4283  -0.3890  -0.3651  -0.3442  -0.3293  -0.3100  -0.2948
    -0.2850  -0.2726  -0.2247  -0.1954  -0.1328  -0.0667  -0.0408   0.0064
     0.0817   0.1166   0.1296   0.1570   0.1790   0.2364   0.2433   0.2700
     0.2918   0.3302   0.3578   0.3817   0.3923   0.4628   0.5042   0.5459
     0.5676   0.6038   0.6387   0.6572   0.7055   0.7775   0.8355   0.8673
     0.8881   0.8951   0.9389   0.9586   0.9844   1.0094   1.0570   1.0704
     1.1076   1.1375   1.1508   1.2072   1.2203   1.2498   1.2963   1.3402
     1.4020   1.4677   1.5088   1.5433   1.6428   1.6724   1.7114   1.7352
     1.7753   1.8153   1.8520   1.8978   1.9190   1.9439   1.9715   2.0164
     2.0361   2.0699   2.1157   2.1245   2.1458   2.1622   2.1866   2.2020
     2.2261   2.2508   2.3130   2.3409   2.4127   2.4320   2.4528   2.4758
     2.4884   2.5196   2.6120   2.7092   3.0293   3.1575   3.3566   3.5963
     3.6122   3.7877   3.8220   3.9660   4.0459   4.1890   4.4179   4.5770
     4.7045   4.7820   4.8396   5.0662   5.1944   5.3081   5.3400   5.4540
     5.5153   5.6509   5.8279   5.8832   6.0655   6.3632   6.5440   6.6033

          k = 0.4000-0.4619 0.0000 ( 87386 PWs)   bands (ev):

   -14.3959 -11.7385  -7.3125  -5.7110  -5.6304  -5.6209  -5.0865  -4.9394
    -4.7749  -4.1830  -4.1539  -3.9318  -3.7475  -3.6605  -3.6423  -3.5634
    -3.4995  -3.4427  -3.3959  -3.3724  -3.3599  -3.2798  -3.2731  -3.2611
    -3.2462  -3.1972  -3.1669  -3.1175  -3.0657  -3.0576  -3.0281  -2.9989
    -2.9404  -2.8523  -2.8173  -2.8040  -2.7571  -2.7142  -2.6633  -2.6353
    -2.6165  -2.6076  -2.4835  -2.4466  -2.3581  -2.3032  -2.2504  -2.2419
    -2.1855  -2.1498  -2.1145  -2.0517  -1.9802  -1.9674  -1.9469  -1.9223
    -1.8832  -1.8333  -1.7970  -1.7730  -1.7566  -1.7086  -1.6930  -1.6815
    -1.6355  -1.6150  -1.5824  -1.5508  -1.5284  -1.4994  -1.4738  -1.4113
    -1.3806  -1.3430  -1.3246  -1.2895  -1.2110  -1.2000  -1.1649  -1.1418
    -1.1218  -1.0738  -1.0593  -1.0127  -0.9730  -0.9594  -0.9236  -0.9193
    -0.8766  -0.8033  -0.7938  -0.7837  -0.7747  -0.7263  -0.6971  -0.6538
    -0.6005  -0.5785  -0.5541  -0.5397  -0.5118  -0.4951  -0.4618  -0.4527
    -0.4340  -0.4226  -0.3855  -0.3680  -0.3439  -0.3142  -0.3055  -0.3030
    -0.2912  -0.2616  -0.2122  -0.1794  -0.1309  -0.0828  -0.0149   0.0033
     0.0555   0.1219   0.1477   0.1594   0.1674   0.2094   0.2303   0.2707
     0.3219   0.3457   0.3792   0.3969   0.4134   0.4489   0.5207   0.5523
     0.5836   0.6083   0.6454   0.6755   0.7348   0.7691   0.8297   0.8631
     0.8803   0.9025   0.9212   0.9545   0.9866   1.0243   1.0511   1.0906
     1.0978   1.1173   1.1472   1.2023   1.2149   1.2501   1.3004   1.3555
     1.4193   1.4468   1.5101   1.5710   1.6148   1.6567   1.6903   1.7151
     1.7881   1.8125   1.8349   1.8980   1.9239   1.9524   1.9772   2.0134
     2.0271   2.0615   2.1173   2.1303   2.1521   2.1606   2.1777   2.1947
     2.2342   2.2887   2.3266   2.3456   2.3891   2.4282   2.4469   2.4796
     2.4908   2.5479   2.6034   2.7266   2.9235   3.1137   3.1777   3.5846
     3.6625   3.8351   3.9153   3.9771   4.0391   4.1477   4.3586   4.5054
     4.6204   4.7445   4.9342   5.0815   5.2154   5.2914   5.4253   5.4882
     5.5387   5.5757   5.7042   5.8398   6.1608   6.2101   6.5471   6.6379

     the Fermi energy is     2.2463 ev

!    total energy              =  -27813.61172021 Ry

     total all-electron energy =  -1326873.669424 Ry
     estimated scf accuracy    <       0.00000059 Ry
     smearing contrib. (-TS)   =       0.00231775 Ry
     internal energy E=F+TS    =  -27813.61403796 Ry

     The total energy is F=E-TS. E is the sum of the following terms:
     one-electron contribution =  -26211.02076388 Ry
     hartree contribution      =   13413.04478588 Ry
     xc contribution           =    -905.98839787 Ry
     ewald contribution        =   11384.01871380 Ry
     one-center paw contrib.   =  -25493.66837589 Ry

     convergence has been achieved in  20 iterations

     negative rho (up, down):  1.288E-02 0.000E+00

     Forces acting on atoms (cartesian axes, Ry/au):

     atom    1 type  1   force =    -0.00014889   -0.00019884   -0.00306476
     atom    2 type  1   force =     0.00201794   -0.00104012   -0.00551497
     atom    3 type  1   force =    -0.00103410    0.00023382   -0.00508174
     atom    4 type  1   force =    -0.00145964    0.00094095   -0.00501819
     atom    5 type  1   force =     0.00164811   -0.00191003   -0.00597175
     atom    6 type  1   force =    -0.00038354   -0.00059974   -0.00453605
     atom    7 type  1   force =    -0.00135306    0.00127655   -0.00504391
     atom    8 type  1   force =    -0.00060648   -0.00004732   -0.00346742
     atom    9 type  1   force =     0.00079666   -0.00009204   -0.00474056
     atom   10 type  1   force =     0.00148760    0.00092717    0.00569879
     atom   11 type  1   force =    -0.00296552    0.00292227    0.00213968
     atom   12 type  1   force =     0.00274091    0.00279890    0.00680078
     atom   13 type  1   force =    -0.00255674   -0.00015873    0.00356744
     atom   14 type  1   force =    -0.00117645   -0.00044830    0.00387147
     atom   15 type  1   force =     0.00419089   -0.00204266    0.01030543
     atom   16 type  1   force =     0.00161639    0.00014952    0.00015506
     atom   17 type  1   force =    -0.00179847    0.00268430    0.00701881
     atom   18 type  1   force =    -0.00014152   -0.00401815    0.00348621
     atom   19 type  1   force =     0.00024127   -0.00032691    0.00009060
     atom   20 type  1   force =     0.00017269   -0.00025519    0.00032324
     atom   21 type  1   force =     0.00017743   -0.00044738    0.00022130
     atom   22 type  1   force =    -0.00020323   -0.00009382   -0.00002985
     atom   23 type  1   force =     0.00015886    0.00007173    0.00014990
     atom   24 type  1   force =    -0.00009592   -0.00017592    0.00005608
     atom   25 type  1   force =    -0.00003337   -0.00003144   -0.00024221
     atom   26 type  1   force =     0.00018288   -0.00011546   -0.00000628
     atom   27 type  1   force =     0.00015053    0.00014959    0.00006826
     atom   28 type  1   force =     0.00028482    0.00008818    0.00010323
     atom   29 type  1   force =     0.00016178    0.00041934    0.00000190
     atom   30 type  1   force =     0.00002537   -0.00019426    0.00003801
     atom   31 type  1   force =     0.00013792   -0.00031918    0.00009658
     atom   32 type  1   force =    -0.00021489   -0.00024678    0.00009301
     atom   33 type  1   force =     0.00030995    0.00026317    0.00024666
     atom   34 type  1   force =    -0.00033195   -0.00020823    0.00005572
     atom   35 type  1   force =    -0.00031032    0.00009894    0.00038561
     atom   36 type  1   force =     0.00004777    0.00001990    0.00007428
     atom   37 type  2   force =    -0.00025258    0.00137631   -0.00105312
     atom   38 type  2   force =    -0.00074377   -0.00029999   -0.00082050
     atom   39 type  2   force =     0.00358140    0.00154086    0.00762057
     atom   40 type  3   force =     0.00051980    0.00013289    0.00013588
     atom   41 type  3   force =    -0.00484053   -0.00282392   -0.00821317

     Total force =     0.013380     Total SCF correction =     0.001603
     SCF correction compared to forces is large: reduce conv_thr to get better values

     negative rho (up, down):  1.288E-02 0.000E+00

     negative rho (up, down):  1.288E-02 0.000E+00

     negative rho (up, down):  1.288E-02 0.000E+00

     negative rho (up, down):  1.288E-02 0.000E+00

     negative rho (up, down):  1.288E-02 0.000E+00

     negative rho (up, down):  1.288E-02 0.000E+00

     negative rho (up, down):  1.288E-02 0.000E+00

     negative rho (up, down):  1.288E-02 0.000E+00

     negative rho (up, down):  1.288E-02 0.000E+00

     negative rho (up, down):  1.288E-02 0.000E+00

     negative rho (up, down):  1.288E-02 0.000E+00

     negative rho (up, down):  1.288E-02 0.000E+00

     negative rho (up, down):  1.288E-02 0.000E+00

     negative rho (up, down):  1.288E-02 0.000E+00

     negative rho (up, down):  1.288E-02 0.000E+00

     negative rho (up, down):  1.288E-02 0.000E+00

     negative rho (up, down):  1.288E-02 0.000E+00

     negative rho (up, down):  1.288E-02 0.000E+00

     negative rho (up, down):  1.288E-02 0.000E+00

     negative rho (up, down):  1.288E-02 0.000E+00

     negative rho (up, down):  1.288E-02 0.000E+00

     negative rho (up, down):  1.288E-02 0.000E+00

     negative rho (up, down):  1.288E-02 0.000E+00

     negative rho (up, down):  1.288E-02 0.000E+00

     negative rho (up, down):  1.288E-02 0.000E+00

     negative rho (up, down):  1.288E-02 0.000E+00

     negative rho (up, down):  1.288E-02 0.000E+00

     negative rho (up, down):  1.288E-02 0.000E+00

     negative rho (up, down):  1.288E-02 0.000E+00

     negative rho (up, down):  1.288E-02 0.000E+00

     negative rho (up, down):  1.288E-02 0.000E+00

     negative rho (up, down):  1.288E-02 0.000E+00

     negative rho (up, down):  1.288E-02 0.000E+00

     negative rho (up, down):  1.288E-02 0.000E+00
 BEEFens 2000 ensemble energies
             -0.606196600845906E+02
             -0.361881931124123E+01
             -0.158401266209649E+02
              0.428944518963237E+02
             -0.220849878709914E+02
             -0.205288002434763E+02
             -0.351622155068047E+02
             -0.864139956280978E+02
             -0.465158943916104E+02
             -0.472654247101499E+02
             -0.368992813494125E+02
              0.224128270675481E+01
              0.408147642056323E+01
              0.764139115483107E+01
              0.265656838878635E+01
              0.474541602546476E+02
             -0.208791136305568E+02
             -0.230661641637283E+02
              0.192865445835643E+02
             -0.112290859603879E+03
              0.535850296910760E+02
             -0.289735432534260E+02
             -0.333613116274349E+01
             -0.113947372799732E+02
             -0.887634560816241E+01
             -0.467318063971831E+01
              0.882094035392226E+02
             -0.186377385330849E+02
             -0.902071030142110E+01
             -0.518062679927475E+02
              0.815528373656932E+02
             -0.187722808669224E+02
             -0.374782286331238E+02
              0.249409272264970E+02
             -0.283074584368137E+01
              0.163639953662128E+02
             -0.486312739734956E+01
              0.108207110565864E+02
              0.287643132312005E+02
             -0.103227936033258E+03
              0.557754311217821E+02
              0.142230928305132E+02
             -0.166705105506469E+01
             -0.361576296383000E+02
              0.123043775138834E+02
             -0.146130131755466E+02
              0.397976293683519E+02
              0.364625991371261E+02
             -0.308168642352080E+02
             -0.275017527529376E+02
             -0.328173104445683E+02
             -0.351655916766243E+02
              0.135687578294445E+02
             -0.490640978827831E+02
              0.115266269256324E+02
              0.622560229265662E+02
              0.634454182175906E+02
              0.355434023120323E+02
              0.154126802122305E+02
              0.269958778411454E+02
              0.890403612523047E+02
              0.212939439036655E+02
             -0.548130101469212E+02
             -0.157136151561398E+02
             -0.235581526605944E+02
              0.629604845666292E+02
             -0.773110754059393E+02
             -0.671228606562672E+02
             -0.258692557814141E+02
             -0.638896200074339E+01
             -0.471110624398419E+02
              0.270382685790593E+02
              0.799892939494430E+01
              0.866219198810040E+01
             -0.396651829265471E+02
             -0.346595266711388E+02
             -0.541240041399426E+02
              0.390407527218167E+02
             -0.295474509340658E+02
              0.264541482420619E+02
             -0.711874894156460E+01
             -0.317989032918077E+02
             -0.576232412503525E+02
             -0.176770056990989E+02
             -0.905908770404199E+01
             -0.124869922861594E+02
              0.411705883053806E+02
              0.681652011765709E+02
             -0.385144960107666E+02
             -0.794204383717385E+02
             -0.219519983524173E+02
              0.111436783582221E+03
             -0.591646951358699E+02
              0.355978093174870E+02
             -0.956950497021080E+01
             -0.662970813355739E+02
              0.254269254792430E+02
              0.398036278943540E+02
             -0.198661768958228E+02
              0.400139076503840E+02
             -0.296037198557922E+02
             -0.477370567080793E+02
              0.864818020049189E+02
              0.453817853273843E+02
              0.336391619286248E+02
              0.146520767413808E+02
              0.205223741612396E+02
              0.856005525287942E+02
             -0.256348358798096E+02
              0.786516365076356E+01
             -0.142319453370706E+03
              0.181173677140691E+02
             -0.715876317719672E+02
              0.150704801321793E+02
              0.204343181251297E+02
             -0.332483454268130E+02
             -0.556868602648750E+02
              0.656331471629653E+01
             -0.303821165313315E+02
              0.307520370084729E+02
             -0.529464056456787E+02
              0.173518625993006E+01
             -0.356705974885595E+02
             -0.424766806889659E+01
             -0.105158093147992E+01
              0.180624725659892E+02
              0.142842222969136E+01
             -0.651811860842315E+01
              0.589483170955535E+02
              0.907396576731531E+02
              0.483688652682203E+02
              0.830187310072849E+02
             -0.114928485717598E+02
              0.143316384937643E+02
              0.540576582698478E+02
             -0.111173239734015E+02
             -0.734792940032866E+02
             -0.383354775687870E+02
             -0.521173313711066E+02
             -0.276398990178402E+02
              0.326993950063974E+02
             -0.116690319009530E+03
             -0.187011156070181E+02
              0.413716563988633E+02
             -0.386004547467535E+02
             -0.365253051809179E+02
              0.543365114174267E+02
              0.400351910202243E+02
             -0.353534604282905E+02
              0.136916140702864E+02
             -0.272788959262883E+02
              0.342844445872411E+02
              0.447471425177412E+01
              0.211340384006749E+02
             -0.883987237593711E+02
             -0.479817904249437E+02
             -0.992381600481326E+01
              0.326897889989211E+01
             -0.366256227324936E+02
              0.105923471281104E+03
             -0.230879468025639E+02
             -0.398340260669101E+02
              0.388767136266019E+02
             -0.494067190202875E+02
             -0.362943072017911E+02
              0.324590449016501E+02
              0.124393919401004E+02
              0.164287133425873E+02
              0.116223624835806E+02
             -0.132799628011971E+02
              0.225170485603599E+02
              0.589792946283552E+02
             -0.311590455208387E+02
              0.162397505498153E+02
              0.933549548965749E+02
              0.340388243537602E+02
             -0.728640918090468E+01
             -0.188346259368461E+02
              0.153207989298236E+03
             -0.163760975019463E+02
              0.362765806326764E+02
              0.194020608360019E+02
              0.361704703063938E+02
              0.891447575640213E+02
              0.542771156484891E+02
             -0.241855079648029E+01
              0.227446231722979E+02
              0.484452659325876E+02
              0.363253009194163E+02
             -0.524793015191203E+02
              0.935101842226650E+02
             -0.824602597910057E+02
             -0.198252069702137E+02
              0.582540708467369E+02
              0.670922634146427E+01
              0.791399716586682E+01
              0.340877576909643E+02
              0.299062031588837E+02
              0.353361034367691E+02
             -0.637272898204524E+02
              0.288249766468653E+01
             -0.297359476186178E+02
             -0.872819655118843E+01
             -0.145394319464765E+01
             -0.719882441510384E+01
             -0.413464464544364E+01
              0.858475759554773E+02
             -0.101093885920963E+02
             -0.276158924986426E+02
             -0.496530147073427E+01
              0.139885998973995E+02
             -0.563512146464587E+02
             -0.406336969125579E+02
             -0.381902039179872E+02
             -0.629720792739903E+02
             -0.169707747980662E+02
             -0.447219116703103E+02
              0.163242966719485E+02
             -0.240852213733002E+01
             -0.104183472544970E+02
             -0.933884137822699E+01
              0.807513786598537E+01
             -0.243020654990867E+02
              0.688611745357805E+02
             -0.806114241405365E+02
             -0.140924868920765E+02
             -0.174078992860529E+02
              0.181785268563738E+02
              0.214056022183078E+02
             -0.463527611068271E+02
             -0.202099291505633E+02
              0.440418788410177E+02
             -0.276027883583613E+02
              0.186760675243439E+02
              0.382577146230176E+02
             -0.322463400109507E+01
              0.114065486658891E+03
             -0.230455819370686E+02
             -0.340837362791125E+02
              0.579224168816387E+01
             -0.227840898860733E+02
              0.527266969628575E+02
             -0.336543782254393E+02
              0.106390720104465E+02
              0.640494724315878E+02
             -0.126098778104693E+02
              0.120125658596085E+03
              0.125746870885058E+03
             -0.649125886464440E+02
              0.590004625910981E+02
              0.166209021330748E+02
             -0.517145326376473E+02
              0.216268568060416E+02
              0.353148282409818E+02
              0.362123021986182E+02
              0.135441262578240E+01
              0.159341173568489E+02
              0.694684355187759E+02
             -0.246782075564340E+02
              0.181122115603920E+02
              0.738511339456425E+02
             -0.372308502985672E+02
             -0.129165324862375E+02
              0.507823915824757E+02
              0.297128967284799E+02
              0.780048076826250E+02
              0.222137944735959E+02
              0.621392221399844E+01
              0.280341181401982E+02
              0.382764540740507E+02
             -0.470791639158414E+02
              0.329412234017019E+01
              0.129011543660722E+02
              0.113593931788140E+02
              0.220172868715732E+02
             -0.574009200039687E+02
              0.366049394853497E+02
             -0.443649427533508E+02
             -0.347004560302926E+02
              0.177524975718455E+02
             -0.181479342560329E+02
              0.554478251482427E+02
             -0.256345122935360E+02
              0.266472904394666E+02
              0.368262036875271E+02
              0.828650167637202E+02
              0.574129612302108E+02
              0.461040649452239E+02
             -0.105984503573151E+02
             -0.389527715574275E+01
             -0.331588713278788E+02
              0.749759439809793E+02
              0.796558411961253E+02
              0.361495993575813E+02
             -0.191574997615306E+02
              0.511542149117993E+02
             -0.163044264794292E+02
              0.214797413233987E+02
              0.613732554237721E+02
              0.215544310764139E+01
             -0.104276154821107E+02
             -0.283100458567532E+02
             -0.510624835579095E+02
              0.944427877650973E+02
              0.438895567717104E+02
             -0.558416290247685E+02
             -0.960719300303899E+01
              0.249770411549021E+02
             -0.995555611315771E+01
              0.591543874675228E+02
              0.152248211246714E+02
              0.798739257391001E+02
              0.278911062585855E+02
             -0.264183993274132E+02
              0.249170755528234E+02
             -0.502208144088257E+01
             -0.323752003606023E+02
              0.133172894482825E+02
              0.205879982822175E+02
              0.931763166599379E+02
              0.796736420211767E+02
              0.550383676941494E+02
              0.730483473631637E+02
              0.797809251488817E+01
             -0.273418952150862E+02
              0.163110622767505E+02
             -0.367888780635143E+02
             -0.475550053593879E+02
             -0.563233354912837E+02
             -0.266247842837598E+02
             -0.109605813185154E+03
             -0.290918030655842E+02
             -0.836328658262922E+02
              0.209753098126931E+02
             -0.476583990043249E+02
              0.396267602011195E+02
             -0.940243255000378E+02
             -0.329856950346291E+02
              0.548634802885018E+02
              0.207606555854814E+02
             -0.829731502669577E+02
              0.630933137350140E+02
             -0.256457185427694E+02
              0.511979111262817E+02
             -0.242701333486386E+02
             -0.750575295565978E+02
              0.111980030326932E+02
             -0.610801703021835E+02
             -0.168369598191689E+02
             -0.146588642518143E+01
              0.418065191229085E+02
              0.126904248700572E+03
             -0.461483123437372E+02
             -0.362565572667590E+02
             -0.965984124216902E+00
             -0.130131538817751E+02
             -0.822000027645348E+02
             -0.596386833400557E+02
              0.516966044024108E+02
             -0.288970729774188E+02
              0.169016341867106E+02
             -0.489123834562897E+02
             -0.131725836463543E+02
             -0.437058914860799E+02
              0.565255363163322E+02
              0.151371816890496E+02
             -0.231428195928896E+02
             -0.126604741302865E+02
              0.664676441289984E+01
             -0.618386449656919E+01
              0.441361553733271E+02
             -0.251865957292906E+02
              0.271381413992810E+01
              0.338723633280099E+02
              0.171446529553167E+02
             -0.159277722652552E+02
              0.156156043498003E+03
              0.537121047673490E+02
              0.116342373108031E+01
              0.161957336308560E+02
             -0.614017503831082E+02
              0.314790951923976E+02
             -0.721123420223265E+02
             -0.251878657635265E+02
             -0.522040731424977E+02
             -0.219874351292816E+02
              0.568609520501852E+02
             -0.536416982872097E+02
              0.160442171731776E+02
             -0.406483521304642E+01
              0.389225958077174E+01
             -0.433768108164267E+02
             -0.478113153229626E+02
             -0.397803880393201E+01
             -0.425011604052816E+02
             -0.217225844600111E+02
             -0.438134441847779E+02
             -0.119316697307820E+02
             -0.358694085359167E+02
             -0.516132660648660E+02
              0.212586975516510E+02
             -0.209451305297583E+02
              0.187500056984580E+02
              0.973657913366617E+01
             -0.737269818341979E+02
             -0.547794325140758E+02
             -0.397474207027170E+02
              0.354066315751083E+02
              0.271864398614304E+01
             -0.626304111708279E+02
              0.585002938485662E+02
             -0.400762249015111E+02
              0.544209378894851E+02
             -0.289105690086970E+02
             -0.445607490404158E+02
              0.298702916645317E+02
             -0.657206730344291E+02
             -0.379530359357848E+02
              0.672235632220322E+02
              0.203698228603012E+02
             -0.359291559668653E+02
              0.488636869129842E+02
             -0.173731669923613E+02
             -0.322192770139329E+02
             -0.301511475258469E+02
             -0.500228864563751E+02
              0.248987697041274E+02
             -0.932209859572126E+02
             -0.839647573607244E+02
             -0.732383271878109E+01
             -0.306641731437372E+02
             -0.574989967832103E+02
              0.721349641328494E+02
              0.131416775237464E+03
             -0.360884396547348E+02
             -0.255303009647247E+01
             -0.636520089170672E+02
              0.650146796266154E+02
              0.170447635383093E+02
             -0.181075177472276E+02
             -0.409816786077801E+02
              0.148625246689581E+02
             -0.585808940140344E+02
             -0.197466260407683E+02
             -0.904172383108713E+02
              0.336585243421662E+02
              0.169039674386228E+02
              0.184238612800391E+01
             -0.702862111229217E+01
             -0.328913006755145E+02
             -0.755569460504506E+01
              0.125373506495207E+03
             -0.199073736340110E+02
             -0.436610180691521E+02
             -0.683352356683771E+02
              0.108926102625394E+02
             -0.341637172465258E+02
              0.587881575264150E+01
              0.261144182120660E+02
              0.102009279378973E+02
              0.277437834512169E+02
              0.119567661628560E+02
              0.629228770448897E+02
              0.316808860202201E+02
             -0.326121492313065E+02
              0.354829801700889E+02
              0.379348310680688E+02
              0.120879791815828E+02
              0.486543107202183E+02
             -0.224330834276481E+02
              0.765312387955757E+02
              0.172108648312495E+02
             -0.271880656588772E+02
             -0.720936649730173E+01
             -0.186118912861370E+02
              0.261884039844924E+02
             -0.234585904970542E+02
             -0.942175696311836E-01
             -0.846461152866925E+01
              0.809273934060157E+02
              0.499475684311519E+02
             -0.686944636038891E+02
             -0.473725121975576E+01
             -0.555230885373091E+02
             -0.159671674874653E+02
             -0.267983876872314E+02
              0.373685179023960E+01
              0.574573517626360E+00
             -0.257127532485712E+02
              0.811296858642913E+01
             -0.602168615283477E+01
             -0.128562735454620E+02
              0.858476916147599E+02
              0.181851324771319E+02
             -0.806048427359681E+02
             -0.458033773279427E+02
              0.943986509433292E+02
              0.277507840128857E+02
             -0.106822784776784E+02
              0.104453426471703E+03
             -0.195108638143745E+02
             -0.123072117208217E+02
             -0.536645610323285E+01
              0.107114779314514E+02
              0.271920192931063E+02
              0.780889763028483E+01
              0.305228398366972E+02
             -0.188107055662358E+02
             -0.303152683568433E+02
             -0.417286560846833E+02
             -0.476409029812119E+02
              0.463677020844036E+02
              0.126831902109255E+02
              0.387199802086673E+02
              0.133245986465579E+02
              0.854802575814781E+02
              0.156368656452888E+02
             -0.845446807295423E+02
             -0.334127128729449E+02
              0.133956627353551E+02
             -0.302699837105263E+02
              0.626010244876110E+02
             -0.884334654595455E+01
              0.148788800643878E+02
              0.496800830594237E+02
             -0.706688763351440E+02
              0.149627540648325E+03
              0.208447455908419E+02
              0.271323118740169E+02
              0.347202500467051E+02
              0.103624623396992E+02
             -0.158878031870040E+01
              0.358346427963108E+02
             -0.356535643118085E+02
              0.772350546821719E+02
              0.683978967343446E+02
             -0.405520307310634E+02
              0.149186716748476E+02
              0.669627497647504E+02
             -0.223941712836595E+02
              0.154154075334494E+02
              0.435026115799078E+02
              0.422093424026033E+02
             -0.784090139416632E+02
             -0.152636894765415E+02
             -0.356121064472144E+02
             -0.146824806621794E+01
             -0.763337783754471E+01
             -0.549032069134125E+01
             -0.180826351704509E+02
             -0.293198647416809E+02
              0.629558622381434E+01
              0.111780291381260E+02
              0.535163406293348E+02
             -0.389733398755579E+02
              0.373682370662874E+02
              0.437932620104652E+02
             -0.186891478847809E+02
              0.871776310199595E+02
             -0.697421384300519E+02
             -0.103099056181112E+03
             -0.658129194402852E+01
             -0.266274003581952E+01
              0.387080990069785E+01
              0.788672513766700E+02
             -0.107196310694220E+02
              0.416270829990174E+02
              0.442905534936423E+02
              0.385152491534709E+02
             -0.993678527700501E+01
              0.627439698593117E+02
             -0.133481102197666E+02
             -0.306985500680821E+02
             -0.479179455354790E+02
              0.586698170246653E+01
              0.369502107055527E+02
             -0.603741158452158E+01
              0.393042032637261E+02
             -0.176994344393313E+01
              0.655028965256132E+02
              0.187494864285946E+02
              0.998207300633308E+01
             -0.121818418521095E+02
              0.331970339530052E+02
              0.362499029273854E+02
              0.232811682583350E+02
             -0.518166733514647E+00
             -0.550097610681549E+02
              0.260474690463123E+02
              0.175046198927190E+02
              0.402534577583140E+02
              0.272054771853520E+02
              0.372340204874003E+02
             -0.606089582699428E+01
              0.250475722744485E+02
             -0.298389851907048E+02
             -0.196344332610886E+01
             -0.568886415910078E+02
             -0.307985850119255E+02
              0.378496235686903E+02
             -0.934920857920396E+02
              0.294328141097388E+02
              0.183854995218097E+02
              0.839370901425192E+02
             -0.300824508271470E+02
              0.328985849525900E+02
             -0.137795999971726E+02
             -0.463635283499578E+02
             -0.761555274981411E+02
             -0.522417989548326E+01
             -0.859037807652407E+02
              0.199921210467227E+02
             -0.247326251753567E+02
              0.305563915323480E+02
              0.236565247304441E+02
             -0.240606287772572E+02
             -0.264788984223949E+02
              0.390735318372678E+02
             -0.587505973616433E+02
             -0.116354072982539E+02
             -0.195956809388963E+02
              0.212273366413791E+02
             -0.894842337338997E+01
              0.362831295931943E+01
             -0.200553702247944E+02
              0.558401123347965E+02
             -0.438565236922605E+02
              0.785735761228830E+01
              0.584607917777799E+02
             -0.322931510203945E+02
              0.359204634369439E+01
             -0.883939956921631E+01
             -0.669020666701767E+02
             -0.482650718949341E+02
             -0.862253514684609E+01
              0.240427350071209E+02
              0.302032377247353E+02
              0.857558358454213E+01
             -0.414454236947506E+01
              0.151807191067834E+02
             -0.439795682209751E+02
              0.335143134812625E+01
             -0.530688301592410E+02
             -0.324618332965235E+02
              0.474313571542623E+02
             -0.294989878937359E+02
              0.621660868218368E+02
             -0.214197998373966E+02
              0.353672355534625E+02
              0.241419442677376E+02
             -0.643583165218353E+02
             -0.280439324492096E+02
              0.932901283701673E+01
             -0.371219323103009E+02
             -0.339387348294924E+02
             -0.829332680247271E+02
             -0.538929132342504E+02
             -0.510029467338761E+02
             -0.415279707002646E+02
             -0.989938172350151E+00
              0.993079978539907E+01
              0.998979663262190E+00
              0.152830948541123E+02
             -0.548906188074020E+02
              0.141494775743502E+02
              0.256054618306644E+02
             -0.666360833641044E+02
             -0.701704098523688E+02
             -0.430876924139951E+02
             -0.171422588012220E+02
              0.178444787827875E+02
              0.455884130781419E+01
             -0.426038893424193E+02
              0.366271506981126E+02
             -0.215964498182468E+02
              0.517175106166501E+02
             -0.886601253532981E+02
              0.597007141555474E+02
             -0.209385583371286E+01
             -0.367906588336742E+02
             -0.216420923425220E+02
              0.472308180398932E+01
              0.374366116615506E+02
             -0.755688564112253E+02
             -0.120824024095302E+02
             -0.216407573077160E+02
              0.510850812119927E+02
              0.864166455121709E+02
             -0.964270625926719E+02
              0.943507529293834E+02
              0.467812775329610E+02
             -0.724971177574344E+02
             -0.366466397274859E+02
              0.751234497916336E+02
              0.631707825681469E+02
             -0.180569661592427E+02
             -0.464087284081938E+01
              0.729678170151995E+01
              0.648345802034919E+02
             -0.507900077971264E+02
              0.158379735854915E+02
             -0.471355459762989E+01
              0.347819783977096E+02
             -0.746406308959679E+02
             -0.648500350495613E+01
             -0.350987705867334E+02
              0.460358546408374E+02
              0.468707770694998E+02
             -0.861091437381979E+02
             -0.486699287741799E+02
             -0.256206565267321E+02
             -0.338868595788825E+02
             -0.109262684849488E+02
             -0.242959377502405E+02
              0.426988474638753E+02
              0.401020694823566E+02
             -0.565904504723846E+01
             -0.415833311134500E+02
             -0.849676250350020E+02
              0.442814053242867E+02
             -0.523041697245436E+02
             -0.312657405287713E+02
              0.546710459478493E+01
             -0.322085688479369E+02
             -0.397725510397484E+02
             -0.239723772057742E+02
             -0.384634413993047E+02
             -0.270807782970929E+02
             -0.482200185220899E+02
              0.563556441302135E+02
              0.637839198071251E+02
             -0.171082252555846E+01
             -0.261195942625989E+02
             -0.625673254645176E+01
              0.440797569920018E+02
[...]
              0.283425963415183E+02
              0.141713483228263E+03
              0.241834878009018E+02
              0.122385294025476E+02
             -0.464240972790337E+02
             -0.637409304452502E+02
             -0.188753261186638E+02
              0.329054402229493E+02
             -0.425760827384170E+01
              0.189279118855341E+02
              0.335766567789054E+02
             -0.586436922900734E+02
              0.222012589849688E+02
              0.582275937315957E+02
              0.552724065459136E+02
             -0.420190124333482E+01
             -0.138877967841540E+01
             -0.992806378685140E+01
             -0.481933120143714E+02
             -0.674419464057020E+02
              0.784927800842162E+02
             -0.523043217683957E+01
             -0.587444774343750E+02
              0.169857769323249E+01
             -0.204940834424510E+02
              0.937655718801026E+02
             -0.216232180074378E+02
             -0.353279082550151E+02
              0.334678214963039E+02
             -0.145451268051952E+02
              0.389133684260626E+02
             -0.241469192649475E+01
              0.101022086495154E+03
              0.489126385238770E+02
             -0.513523214233510E+01
             -0.321553505005334E+02
              0.231910767544338E+02
             -0.528003557324080E+02
             -0.127964741553852E+02
              0.585111056570285E+02
             -0.287362361600642E+02
             -0.438066235651530E+02
             -0.222995231439821E+02
              0.518432914113799E+02
              0.124897870483917E+02
             -0.848245738789427E+02
              0.303454087808409E+02
              0.151968841107013E+02
              0.574068951445736E+01
             -0.512999251824695E+02
             -0.378610438883538E+01
              0.322884870578736E+02
              0.512549314210048E+02
              0.631739475078570E+02
              0.228533813568252E+02
              0.781497069035709E+00
             -0.497349540056787E+02
             -0.509543201158224E+02
             -0.747560309616457E+02
             -0.610132287408578E+01
              0.308545274542803E+02
             -0.377946493436113E+01
              0.546505198181625E+02
             -0.317597966617878E+02
              0.166576547292902E+02
             -0.102150398736365E+02
             -0.289072148049450E+02
              0.584904897104832E+02
              0.792150613242814E+01
              0.603414178270324E+02
              0.507525212129974E+01
              0.264911392042211E+02
             -0.192629247966662E+02
              0.585657300090883E+02
             -0.110904554342240E+02
             -0.148768548959044E+00
             -0.789429530721091E+02
             -0.128327790804768E+02
              0.718497127526399E+02
              0.672789527905328E+02
              0.251459743703083E+02
             -0.130318244285094E+02
              0.341111230270798E+01
             -0.173184427920432E+02
             -0.201636318465992E+01
              0.906763396987719E+02
              0.123599789477737E+01
             -0.190000472044169E+02
             -0.110668513743513E+03
             -0.552558806755964E+02
             -0.374514449488097E+02
             -0.658183823317976E+02
             -0.554752396716954E+02
             -0.682017073965361E+02
             -0.446514170577271E+02
             -0.410777364572399E+02
             -0.451430620853007E+02
              0.482987601740594E+02
             -0.294287900235952E+02
             -0.995291147877247E+02
              0.418435744005001E+02
             -0.259469915256629E+02
             -0.790193359181036E+02
              0.943007754305225E+02
             -0.219331045624278E+02
              0.228115185004235E+02
              0.454888590826298E+02
             -0.139891060957780E+01
              0.254013894605104E+02
              0.470525985692697E+01
              0.424019471180383E+00
             -0.150205478433888E+02
             -0.714611948575438E+02
              0.133063753344101E+02
             -0.129285501232185E+03
              0.623059847944263E+02
             -0.440128642059389E+02
             -0.162813288685841E+02
             -0.158115134028782E+02
              0.709416520866164E+01
             -0.227653625199994E+02
              0.297096329369514E+02
             -0.520052385295382E+02
              0.366884093235750E+02
              0.370017819446252E+02
              0.168651206047128E+02
              0.100135945078958E+02
              0.197571189751341E+02
              0.619591814266118E+01
              0.310262062656839E+02
             -0.797413067181807E+01
             -0.591080704218235E+02
              0.755968371753318E+01
             -0.152195485029741E+02
             -0.190989264203347E+01
              0.505306947620779E+02
             -0.826053649195485E+02
             -0.153382522893338E+01
              0.566635119616819E+00
              0.994595624433089E+01
              0.318208756190860E+02
             -0.123429659399957E+02
              0.835131470179043E+02
              0.487599617117554E+02
             -0.183297715795069E+02
             -0.958773113109572E+01
              0.105162761005869E+01
              0.768979401801805E+02
             -0.586001351406805E+02
             -0.105675495433668E+03
              0.308773543585625E+02
             -0.162803689080303E+02
             -0.138996183893776E+02
              0.130386987954191E+02
              0.767839898851039E+02
              0.463725588559644E+02
             -0.153315483195710E+02
             -0.502368223238287E+02
             -0.547668802011508E+01
              0.306159453346719E+02
             -0.111292397652107E+02
             -0.755014370921297E+02
             -0.268303109340977E+01
             -0.888781500615090E+02
             -0.475125634003358E+02
              0.767342384601205E+02
             -0.482842837191410E+02
             -0.635612763481547E+02
             -0.513695087007484E+02
             -0.349278580216308E+02
              0.340243360128122E+02
              0.820651203641449E+02
             -0.353103811496283E+01
              0.276346228395243E+02
             -0.183412178702422E+02
             -0.693218650475026E+02
              0.464401356563894E+02
             -0.444326824176968E+02
              0.321693238976056E+02
              0.376118933933335E+02
             -0.653223934658610E+01
              0.390368236645564E+02
              0.438099553458138E+02
              0.100504291688391E+03
             -0.156084340554236E+02
             -0.455179930553234E+02
             -0.612184708364842E+02
             -0.123747094992550E+02
             -0.232219317114388E+02
              0.102929564569100E+03
             -0.448319449528813E+02
              0.105165583009938E+02
              0.973581588519357E+01
             -0.264482124615666E+02
             -0.797514482087755E+02
             -0.697733818227664E+01
              0.978727979489380E+02
              0.934807913899743E+01
              0.809215819170629E+01
             -0.526131756702456E+02
             -0.604982878136568E+02
             -0.560728699329857E+01
              0.499995579515947E+02
             -0.221492146959462E+02
              0.107877170259471E+03
             -0.434567669410118E+02
              0.146129138332609E+02
             -0.224361265726610E+02
             -0.717830669128862E+02
              0.167320961241251E+01
             -0.501098417764608E+02
             -0.759931065083181E+02
              0.612538497907349E+01
              0.237295622394510E+01
              0.513538569092792E+02
              0.186926163917413E+02
             -0.323040615407600E+02
              0.229835270899488E+02
             -0.809620956236653E+02
             -0.521467655190763E+02
              0.900798420343398E+02
              0.142606336043013E+02
             -0.188172900819313E+02
             -0.352227857356149E+02
             -0.267799253365081E+01
             -0.585715292031330E+01
              0.828610003514512E+02
              0.417018577977828E+02
             -0.166205627087876E+02
             -0.122163074677856E+02
             -0.427345432347282E+02
             -0.200706521645461E+02
             -0.669540055266976E+02
              0.458851681247525E+02
              0.544338427353657E+01
              0.144873360878355E+02
              0.155777864346002E+02
             -0.543796506692111E+00
             -0.168100491320653E+02
             -0.312402686980140E+01
             -0.100297867225224E+03
             -0.229629482728469E+02
             -0.761104734593414E+01
             -0.947650147911483E+01
              0.546308202940375E+02
              0.622875570340585E+02
              0.164675768420116E+02
             -0.969586604484556E+02
              0.647029250265537E+02
             -0.214825103470005E+02
             -0.376617665359065E+02
             -0.863238206306448E+02
             -0.386792633525532E+02
              0.563500744761616E+02
              0.243453590520852E+02
              0.510130483347854E+01
              0.291798642975185E+02
             -0.564284577022932E+02
             -0.421701267958860E+02
              0.514440771408437E+02
              0.386849046271426E+02
              0.518525362838403E+02
             -0.127150861460703E+01
              0.681833053221118E+01
              0.568941680403539E+02
              0.961631438296859E+02
             -0.300239490108644E+02
              0.322113507332233E+02
             -0.117672945019139E+02
             -0.411578794839779E+02
             -0.313654259349101E+02
             -0.299517362043100E+02
             -0.131203599590761E+02
             -0.523078515944029E+02
             -0.217154957224852E+02
             -0.141015097635672E+03
              0.368400858626049E+02
              0.206605978801159E+02
             -0.392719050460411E+01
             -0.379564306395297E+02
             -0.204135301519856E+02
             -0.526112846132327E+02
              0.151013351531178E+02
              0.819126946400017E+02
             -0.252079663572511E+02
             -0.162710891405351E+02
              0.237791496491917E+02
             -0.488533956682716E+02
              0.879617623726261E+02
              0.154294533355755E+02
              0.226446155852548E+02
              0.489842335907676E+02
              0.324349522183559E+01
              0.541572343742148E+02
              0.142692069041226E+02
             -0.106598438013596E+02
              0.731958068861280E+01
              0.846719586874769E+00
              0.726792182958636E+02
              0.100817039301181E+02
              0.120066431759078E+02
             -0.129782135163545E+02
              0.132081574345321E+02
             -0.910230605186143E+02
             -0.325384706344116E+02
             -0.456831280485546E+02
              0.484936924182371E+02
             -0.290718476667797E+02
             -0.658000480310952E+02
              0.537651489364476E+02
             -0.121998646347074E+02
              0.439620926777689E+02
             -0.897746561691905E+02
              0.231858497425371E+02
              0.858840099655205E+01
              0.581553769885329E+01
             -0.831014771455625E+01
             -0.902320506224532E+01
              0.478780767848686E+02
              0.200476055626024E+01
             -0.474351321361315E+02
             -0.175762271407455E+02
              0.276653443641345E+02
             -0.117788226624387E+03
             -0.928859173942595E+02
              0.397632001675908E+01
              0.117396982903688E+02
             -0.412324020926221E+02
             -0.388315471018706E+01
              0.112017576393293E+03
              0.306486345323802E+02
             -0.570989924859155E+02
              0.924852746582420E+01
             -0.964564657616006E+01
              0.105248447092222E+02
             -0.336997516698658E+02
              0.194964824710575E+02
              0.284305765747981E+02
             -0.300212856707316E+01
              0.108044546371700E+03
             -0.140260619376794E+02
             -0.315659763105850E+02
              0.142572624530691E+02
              0.466198474546358E+02
             -0.355464757347631E+02
             -0.318001175148495E+01
              0.963521551998012E+02
             -0.466247951017419E+01
              0.620996598228959E+02
              0.135197670081594E+02
             -0.903836987355012E+01
             -0.305230228633146E+02
              0.566213145665252E+02
             -0.513639789198905E+02
             -0.221058887114077E+01
             -0.169845620598226E+02
             -0.404762539297105E+02
              0.184592851353758E+02
              0.238609142058894E+02
              0.116080093269967E+02
              0.732343002559901E+00
             -0.384014279220130E+02
              0.215547208272095E+02
             -0.674784899122403E+01
             -0.246517358014649E+02
             -0.210469825232575E+02
              0.203479322484548E+02
             -0.594196288747514E+01
             -0.348700746039609E+02
             -0.106477364137421E+03
              0.102731084114050E+02
              0.248681287076569E+02
             -0.386526041910688E+02
             -0.210609835269298E+02
              0.805918226811971E+02
              0.648034988835303E+01
              0.310173235628479E+02
              0.388542470219085E+01
              0.321375030867247E+02
              0.644783154170563E+01
             -0.372548937056794E+02
             -0.227309605795219E+01
              0.875959634039418E+01
              0.273409448182169E+02
              0.781297999984670E+02
              0.507003431876621E+02
              0.166920212687103E+00
              0.168582710182755E+02
              0.612423399225057E+02
              0.235556746603745E+02
             -0.752305283411592E+02
             -0.273420149767176E+02
              0.150924107847276E+02
              0.561209057620266E+01
              0.254853073056467E+02
             -0.547338002053378E+02
              0.899872796334448E+01
              0.385135709379406E+02
              0.497608702959790E+02
             -0.434570440480852E+02
             -0.692412287462548E+01
             -0.207549432092475E+01
             -0.133678851064508E+02
             -0.365599167538558E+02
             -0.215174858332838E+02
             -0.198214235739557E+01
              0.790869949151056E+01
              0.420839409561451E+02
             -0.308116951632406E+02
              0.825212792391156E+02
              0.327173885392966E+02
              0.219170238128168E+02
              0.332339036856178E+02
              0.323069973246234E+02
              0.345428116233777E+02
              0.536641526842549E+02
             -0.433324739332260E+02
              0.618807074173705E+02
             -0.112112855485979E+03
              0.307147877212610E+02
             -0.106418390445591E+03
              0.853938225768518E+02
              0.689666611019316E+02
             -0.109838293850629E+02
             -0.492859690481332E+02
             -0.428944434313224E+02
             -0.623051900758229E+02
             -0.627947799615379E+02
              0.550959742908637E+02
              0.405070152412398E+02
              0.236658666013645E+02
              0.373809336463853E+02
              0.402529064970932E+02
             -0.381710304483893E+02
             -0.197772049196003E+02
              0.585726354485114E+02
             -0.115669427969664E+02
              0.551017473388731E+02
              0.698471832033210E+02
             -0.552163224489936E+01
             -0.705390923479445E+02
             -0.947529980778768E+00
             -0.245955462101616E+01
             -0.881750779483991E+01
             -0.177809633572048E+01
             -0.652308997383284E+02
             -0.211028167010151E+02
              0.536347679201615E+01
              0.894228402811646E+01
              0.468275464971299E+02
             -0.397300568991969E+02
              0.657186888795073E+02
             -0.424916737223807E+02
              0.209854021678050E+02
              0.349888466860694E+02
 
 BEEF-vdW xc energy contributions
           1 :   -782.397995824213     
           2 :    719.128932426813     
           3 :   -609.348482475872     
           4 :    479.754718127699     
           5 :   -357.733085701030     
           6 :    263.211918934317     
           7 :   -204.033142396368     
           8 :    175.820926674087     
           9 :   -165.958225659522     
          10 :    159.757034265394     
          11 :   -146.285435162015     
          12 :    121.652589507479     
          13 :   -88.8935491724330     
          14 :    55.0639218616718     
          15 :   -27.2238742862709     
          16 :    9.14490996376287     
          17 :  -2.263891399945805E-002
          18 :   -4.55413648280580     
          19 :    10.1002898334880     
          20 :   -20.5185742950799     
          21 :    36.4174222120273     
          22 :   -55.1238477739770     
          23 :    72.2144163262413     
          24 :   -83.7251947975386     
          25 :    87.9552983622143     
          26 :   -86.0740088932798     
          27 :    81.3512008049566     
          28 :   -77.4744038863673     
          29 :    76.7988533416410     
          30 :   -79.3571103519550     
          31 :   -85.8022904665449     
          32 :   -65.8515024848691     

     Writing output data file ./pwscf.save/
 
     init_run     :    299.46s CPU    303.65s WALL (       1 calls)
     electrons    :  12225.34s CPU  12350.73s WALL (       1 calls)
     forces       :     94.12s CPU     95.27s WALL (       1 calls)

     Called by init_run:
     wfcinit      :    252.42s CPU    255.71s WALL (       1 calls)
     potinit      :     44.21s CPU     44.52s WALL (       1 calls)
     hinit0       :      1.09s CPU      1.12s WALL (       1 calls)

     Called by electrons:
     c_bands      :  10252.74s CPU  10350.86s WALL (      21 calls)
     sum_band     :   1357.31s CPU   1369.23s WALL (      21 calls)
     v_of_rho     :    105.59s CPU    109.85s WALL (      21 calls)
     newd         :     30.24s CPU     41.52s WALL (      21 calls)
     PAW_pot      :    145.21s CPU    145.21s WALL (      21 calls)
     mix_rho      :    379.11s CPU    379.73s WALL (      21 calls)
     vdW_kernel   :     33.57s CPU     33.57s WALL (       1 calls)

     Called by c_bands:
     init_us_2    :     81.74s CPU     81.99s WALL (     572 calls)
     cegterg      :   9454.26s CPU   9552.07s WALL (     273 calls)

     Called by *egterg:
     cdiaghg      :    109.71s CPU    109.72s WALL (    1623 calls)
     h_psi        :   5846.15s CPU   5879.83s WALL (    1649 calls)
     s_psi        :   1066.86s CPU   1066.88s WALL (    1649 calls)
     g_psi        :     17.07s CPU     17.08s WALL (    1363 calls)

     Called by h_psi:
     h_psi:calbec :   1003.07s CPU   1003.23s WALL (    1649 calls)
     vloc_psi     :   3748.38s CPU   3749.27s WALL (    1649 calls)
     add_vuspsi   :   1067.42s CPU   1067.51s WALL (    1649 calls)

     General routines
     calbec       :   1464.28s CPU   1464.46s WALL (    1974 calls)
     fft          :     46.27s CPU     46.28s WALL (    3281 calls)
     ffts         :    118.42s CPU    118.44s WALL (    9530 calls)
     fftw         :   3901.09s CPU   3901.57s WALL (  348720 calls)
 
     Parallel routines
 
     PWSCF        :      3h31m CPU      3h34m WALL

 
   This run was terminated on:  13:50:20   4Jan2023            

=------------------------------------------------------------------------------=
   JOB DONE.
=------------------------------------------------------------------------------=
