
     Program PWSCF v.6.7MaX starts on  4Jan2023 at 10:17: 4 

     This program is part of the open-source Quantum ESPRESSO suite
     for quantum simulation of materials; please cite
         "P. Giannozzi et al., J. Phys.:Condens. Matter 21 395502 (2009);
         "P. Giannozzi et al., J. Phys.:Condens. Matter 29 465901 (2017);
          URL http://www.quantum-espresso.org", 
     in publications or presentations arising from this work. More details at
     http://www.quantum-espresso.org/quote

     Parallel version (MPI), running on     1 processors

     MPI processes distributed on     1 nodes
     Reading input from chcc-tri-ensemble.in
Warning: card &CELL ignored
Warning: card / ignored

     Current dimensions of program PWSCF are:
     Max number of different atomic species (ntypx) = 10
     Max number of k-points (npk) =  40000
     Max angular momentum in pseudopotentials (lmaxx) =  3
     file Pt.pbe-n-kjpaw_psl.1.0.0.UPF: wavefunction(s)  6S 5D renormalized
     file C.pbe-n-kjpaw_psl.1.0.0.UPF: wavefunction(s)  2S 2P renormalized
     file H.pbe-kjpaw_psl.1.0.0.UPF: wavefunction(s)  1S renormalized

     **************************************************************************
     Initializing libbeef V0.1.2 with the BEEF-vdW functional.
     Citation: Wellendorff et al., PRB 85, 235149 (2012).
     **************************************************************************


     IMPORTANT: XC functional enforced from input :
     Exchange-correlation= BEEF-VDW
                           (   1   4  43  14   2   0   0)
     Any further DFT definition will be discarded
     Please, verify this is what you really want


     Subspace diagonalization in iterative solution of the eigenvalue problem:
     a serial algorithm will be used

 
     G-vector sticks info
     --------------------
     sticks:   dense  smooth     PW     G-vecs:    dense   smooth      PW
     Sum        4267    4267   1159               698929   698929   98499
 


     bravais-lattice index     =            0
     lattice parameter (alat)  =      16.0349  a.u.
     unit-cell volume          =   11126.1876 (a.u.)^3
     number of atoms/cell      =           40
     number of atomic types    =            3
     number of electrons       =       373.00
     number of Kohn-Sham states=          224
     kinetic-energy cutoff     =      60.0000  Ry
     charge density cutoff     =     240.0000  Ry
     scf convergence threshold =      1.0E-06
     mixing beta               =       0.7000
     number of iterations used =            8  local-TF  mixing
     Exchange-correlation= BEEF-VDW
                           (   1   4  43  14   2   0   0)

     celldm(1)=  16.034858  celldm(2)=   0.000000  celldm(3)=   0.000000
     celldm(4)=   0.000000  celldm(5)=   0.000000  celldm(6)=   0.000000

     crystal axes: (cart. coord. in units of alat)
               a(1) = (   1.000000   0.000000   0.000000 )  
               a(2) = (   0.500000   0.866025   0.000000 )  
               a(3) = (   0.000000   0.000000   3.116165 )  

     reciprocal axes: (cart. coord. in units 2 pi/alat)
               b(1) = (  1.000000 -0.577350  0.000000 )  
               b(2) = (  0.000000  1.154701  0.000000 )  
               b(3) = (  0.000000  0.000000  0.320907 )  


     PseudoPot. # 1 for Pt read from file:
     /users/bkreitz1/quantum-espresso/potentials/Pt.pbe-n-kjpaw_psl.1.0.0.UPF
     MD5 check sum: 04dc8a03c51ece93fc7b5889c2958091
     Pseudo is Projector augmented-wave + core cor, Zval = 10.0
     Generated using 'atomic' code by A. Dal Corso  v.6.7MaX
     Shape of augmentation charge: PSQ
     Using radial grid of 1277 points,  6 beta functions with: 
                l(1) =   0
                l(2) =   0
                l(3) =   1
                l(4) =   1
                l(5) =   2
                l(6) =   2
     Q(r) pseudized with 0 coefficients 


     PseudoPot. # 2 for C  read from file:
     /users/bkreitz1/quantum-espresso/potentials/C.pbe-n-kjpaw_psl.1.0.0.UPF
     MD5 check sum: a169b0ebad56f5ec0d79c4633f80bf22
     Pseudo is Projector augmented-wave + core cor, Zval =  4.0
     Generated using 'atomic' code by A. Dal Corso  v.6.7MaX
     Shape of augmentation charge: PSQ
     Using radial grid of 1073 points,  4 beta functions with: 
                l(1) =   0
                l(2) =   0
                l(3) =   1
                l(4) =   1
     Q(r) pseudized with 0 coefficients 


     PseudoPot. # 3 for H  read from file:
     /users/bkreitz1/quantum-espresso/potentials/H.pbe-kjpaw_psl.1.0.0.UPF
     MD5 check sum: ae98473e6dc62675f0d0baffdab24f65
     Pseudo is Projector augmented-wave, Zval =  1.0
     Generated using 'atomic' code by A. Dal Corso  v.6.7MaX
     Shape of augmentation charge: PSQ
     Using radial grid of  929 points,  2 beta functions with: 
                l(1) =   0
                l(2) =   0
     Q(r) pseudized with 0 coefficients 


     atomic species   valence    mass     pseudopotential
        Pt            10.00   195.08400     Pt( 1.00)
        C              4.00    12.01100     C ( 1.00)
        H              1.00     1.00800     H ( 1.00)

     No symmetry found



   Cartesian axes

     site n.     atom                  positions (alat units)
         1           Pt  tau(   1) = (   0.0000000   0.0000000   1.0017346  )
         2           Pt  tau(   2) = (   0.3333333   0.0000000   1.0017346  )
         3           Pt  tau(   3) = (   0.6666667   0.0000000   1.0017346  )
         4           Pt  tau(   4) = (   0.1666667   0.2886751   1.0017346  )
         5           Pt  tau(   5) = (   0.5000000   0.2886751   1.0017346  )
         6           Pt  tau(   6) = (   0.8333333   0.2886751   1.0017346  )
         7           Pt  tau(   7) = (   0.3333333   0.5773503   1.0017346  )
         8           Pt  tau(   8) = (   0.6666667   0.5773503   1.0017346  )
         9           Pt  tau(   9) = (   1.0000000   0.5773503   1.0017346  )
        10           Pt  tau(  10) = (   0.1666667   0.0962250   1.2739001  )
        11           Pt  tau(  11) = (   0.5000000   0.0962250   1.2739001  )
        12           Pt  tau(  12) = (   0.8333333   0.0962250   1.2739001  )
        13           Pt  tau(  13) = (   0.3333333   0.3849002   1.2739001  )
        14           Pt  tau(  14) = (   0.6666667   0.3849002   1.2739001  )
        15           Pt  tau(  15) = (   1.0000000   0.3849002   1.2739001  )
        16           Pt  tau(  16) = (   0.5000000   0.6735753   1.2739001  )
        17           Pt  tau(  17) = (   0.8333333   0.6735753   1.2739001  )
        18           Pt  tau(  18) = (   1.1666667   0.6735753   1.2739001  )
        19           Pt  tau(  19) = (  -0.0048907   0.1937126   1.5468780  )
        20           Pt  tau(  20) = (   0.3302147   0.1868168   1.5448523  )
        21           Pt  tau(  21) = (   0.6661750   0.1931768   1.5434812  )
        22           Pt  tau(  22) = (   0.1629858   0.4818636   1.5448176  )
        23           Pt  tau(  23) = (   0.4997711   0.4827382   1.5441050  )
        24           Pt  tau(  24) = (   0.8307528   0.4811113   1.5464408  )
        25           Pt  tau(  25) = (   0.3315833   0.7703764   1.5405070  )
        26           Pt  tau(  26) = (   0.6651414   0.7670162   1.5480099  )
        27           Pt  tau(  27) = (   0.9974939   0.7688778   1.5448034  )
        28           Pt  tau(  28) = (  -0.0037615  -0.0012938   1.8152493  )
        29           Pt  tau(  29) = (   0.3328947   0.0189082   1.8325338  )
        30           Pt  tau(  30) = (   0.6666481   0.0000141   1.8145467  )
        31           Pt  tau(  31) = (   0.1668606   0.2882100   1.8166368  )
        32           Pt  tau(  32) = (   0.4937411   0.2884854   1.8117015  )
        33           Pt  tau(  33) = (   0.8358659   0.2788291   1.8336448  )
        34           Pt  tau(  34) = (   0.3298867   0.5778637   1.8146661  )
        35           Pt  tau(  35) = (   0.6471606   0.5714545   1.8368231  )
        36           Pt  tau(  36) = (   1.0106503   0.5694984   1.8225168  )
        37           C   tau(  37) = (   0.7662675   0.4075953   2.0186004  )
        38           C   tau(  38) = (   0.8462767   0.5516379   2.0143003  )
        39           C   tau(  39) = (   0.8360743   0.7006538   1.9624895  )
        40           H   tau(  40) = (   0.6999093   0.3646360   2.1203402  )

     number of k points=    13  Marzari-Vanderbilt smearing, width (Ry)=  0.0200
                       cart. coord. in units 2pi/alat
        k(    1) = (   0.0000000   0.0000000   0.0000000), wk =   0.0800000
        k(    2) = (   0.0000000   0.2309401   0.0000000), wk =   0.1600000
        k(    3) = (   0.0000000   0.4618802   0.0000000), wk =   0.1600000
        k(    4) = (   0.2000000  -0.1154701   0.0000000), wk =   0.1600000
        k(    5) = (   0.2000000   0.1154701   0.0000000), wk =   0.1600000
        k(    6) = (   0.2000000   0.3464102   0.0000000), wk =   0.1600000
        k(    7) = (   0.2000000  -0.5773503   0.0000000), wk =   0.1600000
        k(    8) = (   0.2000000  -0.3464102   0.0000000), wk =   0.1600000
        k(    9) = (   0.4000000  -0.2309401   0.0000000), wk =   0.1600000
        k(   10) = (   0.4000000  -0.0000000   0.0000000), wk =   0.1600000
        k(   11) = (   0.4000000   0.2309401   0.0000000), wk =   0.1600000
        k(   12) = (   0.4000000  -0.6928203   0.0000000), wk =   0.1600000
        k(   13) = (   0.4000000  -0.4618802   0.0000000), wk =   0.1600000

     Dense  grid:   698929 G-vectors     FFT dimensions: (  80,  80, 250)

     Estimated max dynamical RAM per process >       8.44 GB

     Check: negative core charge=   -0.000002

     Initial potential from superposition of free atoms

     starting charge  372.99376, renormalised to  373.00000

     negative rho (up, down):  1.196E-02 0.000E+00


     %%%%%%%%%%%%%%%%%%%%%%%%%%%%%%%%%%%%%%%%%%%%%%%%%%%%%%%%%%%%%%%%%%%%%%%%
     %                                                                      %
     % You are using vdW-DF, which was implemented by the Thonhauser group. %
     % Please cite the following two papers that made this development      %
     % possible and the two reviews that describe the various versions:     %
     %                                                                      %
     %   T. Thonhauser et al., PRL 115, 136402 (2015).                      %
     %   T. Thonhauser et al., PRB 76, 125112 (2007).                       %
     %   K. Berland et al., Rep. Prog. Phys. 78, 066501 (2015).             %
     %   D.C. Langreth et al., J. Phys.: Condens. Matter 21, 084203 (2009). %
     %                                                                      %
     %                                                                      %
     % If you are calculating the stress with vdW-DF, please also cite:     %
     %                                                                      %
     %   R. Sabatini et al., J. Phys.: Condens. Matter 24, 424209 (2012).   %
     %                                                                      %
     %%%%%%%%%%%%%%%%%%%%%%%%%%%%%%%%%%%%%%%%%%%%%%%%%%%%%%%%%%%%%%%%%%%%%%%%


     Starting wfcs are  337 randomized atomic wfcs
     Checking if some PAW data can be deallocated... 

     total cpu time spent up to now is      302.9 secs

     Self-consistent Calculation

     iteration #  1     ecut=    60.00 Ry     beta= 0.70
     Davidson diagonalization with overlap
     ethr =  1.00E-02,  avg # of iterations =  2.0

     Threshold (ethr) on eigenvalues was too large:
     Diagonalizing with lowered threshold

     Davidson diagonalization with overlap
     ethr =  7.77E-04,  avg # of iterations =  2.6

     negative rho (up, down):  1.502E-02 0.000E+00

     total cpu time spent up to now is     1458.1 secs

     total energy              =  -27811.87413350 Ry
     estimated scf accuracy    <       3.18856637 Ry

     iteration #  2     ecut=    60.00 Ry     beta= 0.70
     Davidson diagonalization with overlap
     ethr =  8.55E-04,  avg # of iterations =  2.0

     negative rho (up, down):  1.287E-02 0.000E+00

     total cpu time spent up to now is     1983.9 secs

     total energy              =  -27812.16082304 Ry
     estimated scf accuracy    <       1.49054948 Ry

     iteration #  3     ecut=    60.00 Ry     beta= 0.70
     Davidson diagonalization with overlap
     ethr =  4.00E-04,  avg # of iterations =  1.5

     negative rho (up, down):  1.069E-02 0.000E+00

     total cpu time spent up to now is     2476.4 secs

     total energy              =  -27812.23505661 Ry
     estimated scf accuracy    <       0.73336923 Ry

     iteration #  4     ecut=    60.00 Ry     beta= 0.70
     Davidson diagonalization with overlap
     ethr =  1.97E-04,  avg # of iterations =  2.0

     negative rho (up, down):  8.424E-03 0.000E+00

     total cpu time spent up to now is     3010.3 secs

     total energy              =  -27812.26781190 Ry
     estimated scf accuracy    <       0.08404529 Ry

     iteration #  5     ecut=    60.00 Ry     beta= 0.70
     Davidson diagonalization with overlap
     c_bands:  1 eigenvalues not converged
     c_bands:  1 eigenvalues not converged
     c_bands:  1 eigenvalues not converged
     c_bands:  1 eigenvalues not converged
     c_bands:  1 eigenvalues not converged
     c_bands:  1 eigenvalues not converged
     c_bands:  1 eigenvalues not converged
     ethr =  2.25E-05,  avg # of iterations = 19.3

     negative rho (up, down):  6.561E-03 0.000E+00

     total cpu time spent up to now is     4006.7 secs

     total energy              =  -27812.30044805 Ry
     estimated scf accuracy    <       0.09515470 Ry

     iteration #  6     ecut=    60.00 Ry     beta= 0.70
     Davidson diagonalization with overlap
     ethr =  2.25E-05,  avg # of iterations =  1.3

     negative rho (up, down):  5.075E-03 0.000E+00

     total cpu time spent up to now is     4488.0 secs

     total energy              =  -27812.30226456 Ry
     estimated scf accuracy    <       0.01569295 Ry

     iteration #  7     ecut=    60.00 Ry     beta= 0.70
     Davidson diagonalization with overlap
     c_bands:  1 eigenvalues not converged
     c_bands:  1 eigenvalues not converged
     ethr =  4.21E-06,  avg # of iterations = 11.8

     negative rho (up, down):  4.601E-03 0.000E+00

     total cpu time spent up to now is     5096.8 secs

     total energy              =  -27812.30318812 Ry
     estimated scf accuracy    <       0.00444839 Ry

     iteration #  8     ecut=    60.00 Ry     beta= 0.70
     Davidson diagonalization with overlap
     c_bands:  1 eigenvalues not converged
     c_bands:  1 eigenvalues not converged
     c_bands:  1 eigenvalues not converged
     ethr =  1.19E-06,  avg # of iterations =  8.8

     negative rho (up, down):  4.529E-03 0.000E+00

     total cpu time spent up to now is     5711.0 secs

     total energy              =  -27812.30359186 Ry
     estimated scf accuracy    <       0.00180020 Ry

     iteration #  9     ecut=    60.00 Ry     beta= 0.70
     Davidson diagonalization with overlap
     c_bands:  1 eigenvalues not converged
     ethr =  4.83E-07,  avg # of iterations =  5.2

     negative rho (up, down):  5.018E-03 0.000E+00

     total cpu time spent up to now is     6290.0 secs

     total energy              =  -27812.30377138 Ry
     estimated scf accuracy    <       0.00141563 Ry

     iteration # 10     ecut=    60.00 Ry     beta= 0.70
     Davidson diagonalization with overlap
     c_bands:  1 eigenvalues not converged
     ethr =  3.80E-07,  avg # of iterations =  5.0

     negative rho (up, down):  5.582E-03 0.000E+00

     total cpu time spent up to now is     6827.9 secs

     total energy              =  -27812.30382676 Ry
     estimated scf accuracy    <       0.00098882 Ry

     iteration # 11     ecut=    60.00 Ry     beta= 0.70
     Davidson diagonalization with overlap
     ethr =  2.65E-07,  avg # of iterations =  3.2

     negative rho (up, down):  7.130E-03 0.000E+00

     total cpu time spent up to now is     7333.8 secs

     total energy              =  -27812.30386432 Ry
     estimated scf accuracy    <       0.00048392 Ry

     iteration # 12     ecut=    60.00 Ry     beta= 0.70
     Davidson diagonalization with overlap
     ethr =  1.30E-07,  avg # of iterations =  2.5

     negative rho (up, down):  7.475E-03 0.000E+00

     total cpu time spent up to now is     7862.0 secs

     total energy              =  -27812.30391124 Ry
     estimated scf accuracy    <       0.00023368 Ry

     iteration # 13     ecut=    60.00 Ry     beta= 0.70
     Davidson diagonalization with overlap
     ethr =  6.26E-08,  avg # of iterations =  2.0

     negative rho (up, down):  1.008E-02 0.000E+00

     total cpu time spent up to now is     8387.1 secs

     total energy              =  -27812.30393748 Ry
     estimated scf accuracy    <       0.00011039 Ry

     iteration # 14     ecut=    60.00 Ry     beta= 0.70
     Davidson diagonalization with overlap
     ethr =  2.96E-08,  avg # of iterations =  2.0

     negative rho (up, down):  1.091E-02 0.000E+00

     total cpu time spent up to now is     8958.2 secs

     total energy              =  -27812.30395198 Ry
     estimated scf accuracy    <       0.00010023 Ry

     iteration # 15     ecut=    60.00 Ry     beta= 0.70
     Davidson diagonalization with overlap
     ethr =  2.69E-08,  avg # of iterations =  1.1

     negative rho (up, down):  1.256E-02 0.000E+00

     total cpu time spent up to now is     9432.9 secs

     total energy              =  -27812.30395002 Ry
     estimated scf accuracy    <       0.00004352 Ry

     iteration # 16     ecut=    60.00 Ry     beta= 0.70
     Davidson diagonalization with overlap
     ethr =  1.17E-08,  avg # of iterations =  2.0

     negative rho (up, down):  1.291E-02 0.000E+00

     total cpu time spent up to now is     9976.9 secs

     total energy              =  -27812.30395482 Ry
     estimated scf accuracy    <       0.00000414 Ry

     iteration # 17     ecut=    60.00 Ry     beta= 0.70
     Davidson diagonalization with overlap
     ethr =  1.11E-09,  avg # of iterations =  8.2

     negative rho (up, down):  1.311E-02 0.000E+00

     total cpu time spent up to now is    11346.3 secs

     total energy              =  -27812.30395955 Ry
     estimated scf accuracy    <       0.00000510 Ry

     iteration # 18     ecut=    60.00 Ry     beta= 0.70
     Davidson diagonalization with overlap
     ethr =  1.11E-09,  avg # of iterations =  1.5

     negative rho (up, down):  1.323E-02 0.000E+00

     total cpu time spent up to now is    11837.8 secs

     total energy              =  -27812.30395951 Ry
     estimated scf accuracy    <       0.00000148 Ry

     iteration # 19     ecut=    60.00 Ry     beta= 0.70
     Davidson diagonalization with overlap
     ethr =  3.97E-10,  avg # of iterations =  2.3

     negative rho (up, down):  1.313E-02 0.000E+00

     total cpu time spent up to now is    12400.5 secs

     End of self-consistent calculation

          k = 0.0000 0.0000 0.0000 ( 87435 PWs)   bands (ev):

   -14.9822 -11.5705  -7.0328  -6.6143  -5.9015  -5.2587  -5.0191  -4.7715
    -4.3124  -4.2451  -4.2342  -4.2278  -4.2018  -4.1619  -4.1289  -3.9979
    -3.8603  -3.7759  -3.7006  -3.6441  -3.6237  -3.5987  -3.5245  -3.3807
    -3.2888  -3.2114  -3.1354  -3.1021  -3.0537  -3.0424  -3.0363  -3.0059
    -2.9779  -2.9466  -2.8960  -2.8913  -2.8467  -2.8104  -2.8085  -2.7700
    -2.7564  -2.7288  -2.7095  -2.6589  -2.6492  -2.5889  -2.4222  -2.2663
    -2.2294  -2.1937  -2.1612  -2.1429  -2.1290  -2.1126  -2.0918  -2.0634
    -2.0547  -1.9642  -1.8980  -1.8847  -1.8189  -1.7223  -1.5504  -1.4627
    -1.4233  -1.4091  -1.3804  -1.3562  -1.2930  -1.2779  -1.2581  -1.1916
    -1.1720  -1.1570  -1.1496  -1.1459  -1.1331  -1.1266  -1.1087  -1.0814
    -1.0741  -1.0632  -1.0380  -1.0203  -1.0155  -0.9937  -0.9704  -0.9641
    -0.9409  -0.9345  -0.8468  -0.8186  -0.7643  -0.7550  -0.7293  -0.7193
    -0.6831  -0.6734  -0.6422  -0.6309  -0.6088  -0.5987  -0.5561  -0.5038
    -0.4900  -0.4789  -0.4514  -0.4456  -0.4017  -0.3699  -0.3456  -0.3290
    -0.2838  -0.2513  -0.1813  -0.0817  -0.0160   0.0330   0.0978   0.1481
     0.1701   0.1802   0.2167   0.3010   0.3213   0.3427   0.3608   0.3839
     0.4006   0.4168   0.4197   0.4416   0.4630   0.5071   0.5361   0.6769
     0.6811   0.7020   0.7095   0.7401   0.8281   0.8427   0.8743   0.8951
     0.9125   0.9453   0.9666   0.9952   1.0106   1.0383   1.1449   1.1582
     1.1730   1.1926   1.2297   1.2433   1.2935   1.3135   1.3507   1.3602
     1.3794   1.3861   1.4039   1.4048   1.4133   1.4160   1.4338   1.4408
     1.4657   1.4942   1.5082   1.5375   1.5915   1.6066   1.6133   1.6203
     1.6437   1.6645   1.6953   1.7265   1.7304   1.7426   1.7523   1.7613
     1.7921   1.7941   1.8122   1.8351   1.8436   1.8809   1.9076   1.9152
     1.9978   2.0663   2.1030   2.1301   2.1744   2.1883   2.1993   2.2168
     2.3379   2.5538   2.6192   2.9580   3.0189   3.0628   3.2708   3.4396
     3.8950   4.5900   4.7284   5.2431   5.3524   5.3748   5.5992   5.7310
     6.1033   6.2410   6.5842   6.9111   6.9324   6.9892   7.0207   7.0909

          k = 0.0000 0.2309 0.0000 ( 87294 PWs)   bands (ev):

   -14.9818 -11.5715  -6.9867  -6.4977  -5.8422  -5.2309  -4.9892  -4.8277
    -4.6389  -4.3172  -4.2667  -4.1038  -4.0866  -3.9901  -3.9814  -3.9440
    -3.8404  -3.7786  -3.6982  -3.6263  -3.5603  -3.5260  -3.5035  -3.3116
    -3.2869  -3.2579  -3.1735  -3.1328  -3.0717  -3.0548  -3.0374  -3.0011
    -2.9789  -2.9599  -2.9056  -2.8906  -2.8593  -2.8524  -2.8138  -2.7839
    -2.7166  -2.6708  -2.6382  -2.5605  -2.5332  -2.5008  -2.4027  -2.3561
    -2.2971  -2.2642  -2.2322  -2.2076  -2.1883  -2.1552  -2.0939  -2.0582
    -1.9825  -1.9385  -1.9230  -1.8645  -1.8400  -1.7525  -1.6203  -1.5760
    -1.5446  -1.5229  -1.4952  -1.4757  -1.4310  -1.4181  -1.3868  -1.3584
    -1.3030  -1.2840  -1.2277  -1.2209  -1.1878  -1.1496  -1.1346  -1.1174
    -1.0851  -1.0375  -1.0234  -0.9943  -0.9726  -0.9491  -0.9448  -0.9238
    -0.9023  -0.8971  -0.8357  -0.8236  -0.7877  -0.7681  -0.7565  -0.7305
    -0.7054  -0.6918  -0.6717  -0.6369  -0.6091  -0.5806  -0.5575  -0.5493
    -0.5397  -0.5136  -0.5089  -0.4873  -0.4676  -0.3981  -0.3588  -0.3345
    -0.2905  -0.2667  -0.2369  -0.2084  -0.2048  -0.1892  -0.0972  -0.0134
     0.0481   0.0889   0.1413   0.1702   0.1844   0.2307   0.2418   0.3211
     0.3621   0.3993   0.4239   0.4568   0.5017   0.5077   0.5705   0.5886
     0.6203   0.6280   0.6410   0.6922   0.7345   0.7802   0.8153   0.8191
     0.8480   0.9176   0.9255   0.9433   0.9646   0.9981   1.0413   1.0651
     1.1259   1.1599   1.1902   1.1981   1.2386   1.2595   1.2697   1.3195
     1.3541   1.3889   1.4090   1.4218   1.4643   1.4853   1.5186   1.5347
     1.5794   1.6413   1.6583   1.6747   1.6947   1.7285   1.7400   1.7488
     1.8069   1.8270   1.8367   1.8653   1.8795   1.8819   1.9085   1.9547
     1.9821   2.0468   2.0708   2.0869   2.0979   2.1317   2.1487   2.1587
     2.1724   2.2228   2.2411   2.2796   2.3184   2.3564   2.3906   2.4610
     2.4898   2.5673   2.7907   3.0497   3.2230   3.5035   3.6587   3.6923
     3.9648   4.4982   4.7158   5.1573   5.2562   5.3921   5.7782   5.8614
     6.0404   6.0945   6.2313   6.3674   6.6495   6.8558   6.9175   7.0325

          k = 0.0000 0.4619 0.0000 ( 87306 PWs)   bands (ev):

   -14.9811 -11.5730  -6.9234  -6.1277  -5.7513  -5.4861  -5.1041  -4.9038
    -4.5780  -4.3547  -4.2799  -4.1679  -4.0322  -3.8844  -3.7767  -3.7149
    -3.6587  -3.6456  -3.5810  -3.5050  -3.4405  -3.4298  -3.4000  -3.3774
    -3.3045  -3.2778  -3.2397  -3.2267  -3.1955  -3.1637  -3.1270  -3.0812
    -3.0665  -2.9919  -2.9029  -2.8737  -2.8260  -2.7856  -2.7414  -2.6866
    -2.6627  -2.6464  -2.6042  -2.5681  -2.5107  -2.4456  -2.4137  -2.3661
    -2.3373  -2.2750  -2.2336  -2.2060  -2.1618  -2.1371  -2.1116  -2.0993
    -2.0634  -2.0390  -1.9513  -1.9306  -1.8959  -1.8647  -1.7794  -1.7258
    -1.7115  -1.6911  -1.6752  -1.6492  -1.5581  -1.5077  -1.4949  -1.4625
    -1.4167  -1.3757  -1.3498  -1.3149  -1.2396  -1.2216  -1.2037  -1.1823
    -1.1471  -1.1200  -1.1064  -1.0645  -1.0333  -1.0225  -0.9935  -0.9719
    -0.9506  -0.9320  -0.9123  -0.8910  -0.8569  -0.8319  -0.8118  -0.7826
    -0.7493  -0.7264  -0.7062  -0.6933  -0.6520  -0.6088  -0.5954  -0.5643
    -0.5412  -0.5025  -0.4892  -0.4680  -0.4533  -0.4294  -0.3810  -0.3500
    -0.3077  -0.2538  -0.2477  -0.2231  -0.1551  -0.1394  -0.0767  -0.0121
     0.0168   0.0629   0.0803   0.1041   0.1329   0.1568   0.1945   0.2113
     0.2182   0.2460   0.2655   0.2760   0.3047   0.3677   0.4383   0.4521
     0.4785   0.4947   0.5122   0.5669   0.6352   0.7177   0.7457   0.7682
     0.8225   0.8718   0.8869   0.9541   0.9644   0.9982   1.0185   1.0479
     1.0770   1.0915   1.1408   1.1590   1.2122   1.2538   1.2790   1.2933
     1.3207   1.3666   1.3877   1.4755   1.4910   1.5230   1.5667   1.5988
     1.6542   1.6855   1.7201   1.7469   1.7554   1.7872   1.8146   1.8414
     1.8866   1.9223   1.9518   1.9808   1.9963   2.0174   2.0503   2.0751
     2.0973   2.1646   2.1744   2.2257   2.2531   2.3372   2.3431   2.3623
     2.4003   2.4219   2.5585   2.5899   2.7704   2.8526   3.1816   3.1977
     3.3206   3.4565   3.5190   3.6347   3.8621   4.0908   4.1895   4.2567
     4.5593   4.6473   4.7128   4.7777   4.9251   5.1771   5.2466   5.2876
     5.5128   5.6842   5.8074   6.0744   6.2856   6.5886   6.7472   6.8618

          k = 0.2000-0.1155 0.0000 ( 87294 PWs)   bands (ev):

   -14.9817 -11.5704  -7.0091  -6.4950  -5.8452  -5.2679  -4.9593  -4.7443
    -4.6364  -4.3615  -4.2704  -4.1033  -4.0597  -4.0246  -3.9854  -3.9065
    -3.7993  -3.7822  -3.7178  -3.6358  -3.5922  -3.5329  -3.4584  -3.3400
    -3.2919  -3.1996  -3.1557  -3.1377  -3.1314  -3.0728  -3.0242  -3.0128
    -2.9833  -2.9591  -2.9168  -2.8824  -2.8735  -2.8505  -2.8167  -2.7671
    -2.7172  -2.6902  -2.6016  -2.5864  -2.5467  -2.4950  -2.4230  -2.3465
    -2.3037  -2.2664  -2.2296  -2.2046  -2.1929  -2.1279  -2.0944  -2.0590
    -1.9989  -1.9535  -1.9218  -1.8599  -1.8202  -1.7630  -1.6075  -1.5873
    -1.5463  -1.5182  -1.5035  -1.4706  -1.4495  -1.4218  -1.3730  -1.3465
    -1.2963  -1.2705  -1.2292  -1.2154  -1.1897  -1.1683  -1.1511  -1.0980
    -1.0802  -1.0494  -1.0123  -0.9853  -0.9830  -0.9584  -0.9386  -0.9182
    -0.9010  -0.8874  -0.8367  -0.8108  -0.7928  -0.7675  -0.7428  -0.7348
    -0.7174  -0.6896  -0.6566  -0.6332  -0.5969  -0.5895  -0.5637  -0.5413
    -0.5336  -0.5117  -0.5040  -0.4754  -0.4509  -0.4133  -0.3528  -0.3191
    -0.2715  -0.2460  -0.2121  -0.2108  -0.2033  -0.1812  -0.1054  -0.0532
     0.0480   0.0684   0.1406   0.1697   0.1917   0.2214   0.2492   0.3206
     0.3506   0.3939   0.4349   0.4497   0.4863   0.5206   0.5545   0.5752
     0.6055   0.6255   0.6450   0.6851   0.7358   0.7798   0.8116   0.8239
     0.8362   0.8843   0.9033   0.9480   0.9647   1.0123   1.0325   1.0622
     1.1271   1.1610   1.1837   1.1948   1.2154   1.2414   1.2881   1.3194
     1.3644   1.3923   1.3993   1.4090   1.4537   1.4897   1.5200   1.5516
     1.6033   1.6172   1.6417   1.6814   1.6933   1.7136   1.7385   1.7581
     1.7788   1.8104   1.8284   1.8455   1.8699   1.8930   1.9099   1.9373
     2.0006   2.0368   2.0600   2.0905   2.1155   2.1203   2.1517   2.1593
     2.1905   2.2235   2.2444   2.2685   2.3253   2.3651   2.4134   2.4746
     2.5218   2.6794   2.7851   2.9569   3.2616   3.4025   3.6680   3.7685
     3.9509   4.5717   4.8601   4.9889   5.0821   5.5352   5.7627   5.8745
     5.9260   6.1114   6.2862   6.4322   6.5949   6.9007   6.9641   7.1893

          k = 0.2000 0.1155 0.0000 ( 87294 PWs)   bands (ev):

   -14.9817 -11.5714  -6.9935  -6.4970  -5.8525  -5.2186  -5.0479  -4.7943
    -4.5850  -4.3518  -4.2885  -4.1027  -4.0787  -4.0091  -3.9770  -3.9086
    -3.8135  -3.7774  -3.6866  -3.6303  -3.5957  -3.5404  -3.4685  -3.3455
    -3.2833  -3.1974  -3.1628  -3.1357  -3.0893  -3.0608  -3.0454  -3.0172
    -2.9883  -2.9634  -2.9119  -2.8836  -2.8429  -2.8189  -2.8000  -2.7775
    -2.7135  -2.6520  -2.6171  -2.5851  -2.5642  -2.5143  -2.4566  -2.3356
    -2.2955  -2.2764  -2.2336  -2.2028  -2.1740  -2.1359  -2.0786  -2.0528
    -1.9952  -1.9434  -1.9146  -1.8709  -1.8158  -1.7693  -1.6208  -1.5942
    -1.5353  -1.5235  -1.5121  -1.4804  -1.4451  -1.4189  -1.3631  -1.3467
    -1.3211  -1.2996  -1.2428  -1.2158  -1.1876  -1.1626  -1.1445  -1.0830
    -1.0491  -1.0316  -1.0229  -0.9907  -0.9664  -0.9592  -0.9448  -0.9213
    -0.9065  -0.8710  -0.8249  -0.8167  -0.7909  -0.7584  -0.7409  -0.7232
    -0.7057  -0.6805  -0.6723  -0.6523  -0.6193  -0.5916  -0.5597  -0.5525
    -0.5365  -0.5118  -0.5028  -0.4794  -0.4609  -0.4300  -0.3551  -0.2900
    -0.2718  -0.2399  -0.2134  -0.2107  -0.2055  -0.1864  -0.1090  -0.0818
     0.0240   0.0686   0.1037   0.1505   0.1812   0.2216   0.2516   0.3068
     0.3283   0.4124   0.4264   0.4401   0.4943   0.5320   0.5594   0.5810
     0.6032   0.6198   0.6542   0.6799   0.7510   0.7797   0.8049   0.8228
     0.8360   0.8976   0.9260   0.9362   0.9616   0.9958   1.0245   1.0742
     1.1149   1.1524   1.1841   1.2008   1.2170   1.2350   1.2947   1.3288
     1.3679   1.3774   1.3911   1.4380   1.4455   1.4784   1.5032   1.5332
     1.6151   1.6270   1.6542   1.6869   1.7060   1.7127   1.7339   1.7696
     1.7998   1.8173   1.8389   1.8681   1.8717   1.8935   1.9191   1.9477
     2.0220   2.0461   2.0570   2.0989   2.1134   2.1221   2.1405   2.1664
     2.1779   2.1907   2.2408   2.2955   2.3242   2.3597   2.4062   2.4673
     2.4995   2.5847   2.8226   3.0103   3.3486   3.4807   3.5258   3.7677
     3.9939   4.5281   4.8131   5.0173   5.1652   5.5524   5.7541   5.8000
     5.9800   6.1178   6.2505   6.3817   6.6607   6.8532   6.9655   7.0351

          k = 0.2000 0.3464 0.0000 ( 87320 PWs)   bands (ev):

   -14.9811 -11.5730  -6.9345  -6.2543  -5.7796  -5.2301  -5.1337  -4.9111
    -4.7625  -4.5740  -4.0577  -3.9286  -3.9181  -3.8511  -3.8341  -3.8184
    -3.7829  -3.7627  -3.7120  -3.6217  -3.5394  -3.3932  -3.3506  -3.3292
    -3.3023  -3.2713  -3.2372  -3.1831  -3.1511  -3.0773  -3.0227  -3.0060
    -2.9948  -2.9717  -2.9285  -2.8944  -2.8747  -2.8639  -2.8207  -2.7710
    -2.7248  -2.6995  -2.5992  -2.5115  -2.4673  -2.4202  -2.3726  -2.3464
    -2.3141  -2.3049  -2.2406  -2.2215  -2.1589  -2.1400  -2.1091  -2.0463
    -2.0079  -1.9707  -1.9146  -1.8853  -1.8719  -1.8089  -1.7980  -1.7701
    -1.6642  -1.6371  -1.6199  -1.5926  -1.5259  -1.5116  -1.4916  -1.4695
    -1.4332  -1.3921  -1.3407  -1.2886  -1.2708  -1.2223  -1.2048  -1.1713
    -1.1542  -1.1004  -1.0735  -1.0398  -1.0118  -1.0063  -0.9837  -0.9548
    -0.9226  -0.8999  -0.8808  -0.8623  -0.8408  -0.8063  -0.7944  -0.7823
    -0.7311  -0.6998  -0.6877  -0.6423  -0.6320  -0.6079  -0.5751  -0.5598
    -0.5496  -0.5431  -0.5047  -0.5027  -0.4670  -0.4184  -0.3991  -0.3873
    -0.3447  -0.3018  -0.2728  -0.2460  -0.2040  -0.1840  -0.1312  -0.0927
    -0.0502   0.0241   0.0569   0.1176   0.1319   0.1711   0.2205   0.2490
     0.2801   0.3025   0.3402   0.3508   0.3844   0.4045   0.4406   0.4880
     0.5271   0.5699   0.5991   0.6299   0.6705   0.6881   0.7589   0.7815
     0.8028   0.8196   0.8370   0.9061   0.9443   0.9716   1.0142   1.0351
     1.0672   1.1164   1.1420   1.1712   1.1761   1.2063   1.2181   1.2385
     1.2963   1.3548   1.3867   1.4324   1.5069   1.5630   1.6219   1.6593
     1.6861   1.7175   1.7619   1.7747   1.8190   1.8464   1.8685   1.9074
     1.9270   1.9458   1.9516   1.9833   1.9872   2.0164   2.0490   2.0642
     2.1009   2.1308   2.1556   2.1702   2.2151   2.2525   2.2914   2.3285
     2.3867   2.4369   2.4534   2.5221   2.6058   2.6787   2.8427   2.8557
     3.1438   3.3744   3.4158   3.4649   3.6791   3.9108   4.0932   4.1750
     4.4563   4.5418   4.6191   4.7997   4.9284   5.2603   5.5591   5.7434
     5.8643   6.0318   6.1560   6.2264   6.4107   6.5935   6.6724   6.6909

          k = 0.2000-0.5774 0.0000 ( 87340 PWs)   bands (ev):

   -14.9808 -11.5730  -6.9202  -5.8620  -5.7490  -5.6066  -5.1840  -4.9514
    -4.7603  -4.4139  -4.2203  -3.9542  -3.8802  -3.7871  -3.7605  -3.6551
    -3.6253  -3.5690  -3.5272  -3.4966  -3.4403  -3.4001  -3.3753  -3.3673
    -3.3587  -3.3320  -3.3118  -3.2015  -3.1902  -3.1751  -3.1558  -3.1164
    -3.0351  -2.9900  -2.9659  -2.9136  -2.8745  -2.8277  -2.7903  -2.7449
    -2.7246  -2.6529  -2.5890  -2.5609  -2.5436  -2.4079  -2.3813  -2.3599
    -2.3206  -2.2748  -2.2463  -2.1737  -2.1277  -2.0870  -2.0452  -2.0188
    -1.9689  -1.9531  -1.9220  -1.8721  -1.8552  -1.8340  -1.8036  -1.7784
    -1.7552  -1.7315  -1.6866  -1.6597  -1.6399  -1.6010  -1.5329  -1.5305
    -1.4908  -1.4622  -1.4168  -1.3489  -1.3188  -1.3061  -1.2857  -1.2556
    -1.2315  -1.1967  -1.1654  -1.1484  -1.1117  -1.0734  -1.0507  -1.0167
    -0.9959  -0.9123  -0.9051  -0.8858  -0.8639  -0.8083  -0.7777  -0.7500
    -0.7189  -0.6872  -0.6559  -0.6289  -0.6032  -0.5868  -0.5745  -0.5643
    -0.5450  -0.5129  -0.4877  -0.4735  -0.4553  -0.4211  -0.4140  -0.4061
    -0.3777  -0.3636  -0.3546  -0.2784  -0.2146  -0.1787  -0.1229  -0.0789
     0.0110   0.0376   0.0510   0.0832   0.1127   0.1192   0.1442   0.1838
     0.2001   0.2463   0.2710   0.2951   0.3204   0.4061   0.4372   0.4433
     0.4636   0.5368   0.5748   0.5875   0.6297   0.7132   0.7381   0.7700
     0.7983   0.8117   0.8760   0.8799   0.8912   0.9017   0.9691   1.0081
     1.0171   1.0372   1.0520   1.1248   1.1572   1.1658   1.2198   1.3337
     1.3669   1.3995   1.4724   1.4934   1.5190   1.5618   1.6072   1.6263
     1.6995   1.7421   1.7632   1.8198   1.8529   1.8803   1.9066   1.9266
     1.9494   1.9775   2.0035   2.0214   2.0371   2.0641   2.0948   2.1126
     2.1279   2.1952   2.2274   2.2910   2.3131   2.3424   2.3648   2.3798
     2.4193   2.5047   2.5760   2.6793   2.9700   3.1157   3.1796   3.4973
     3.5209   3.6890   3.7599   3.8592   4.0072   4.1439   4.3556   4.4933
     4.5719   4.7377   4.8404   4.9896   5.1283   5.2001   5.3119   5.3880
     5.4280   5.4671   5.8142   5.9192   6.0316   6.3294   6.4148   6.5818

          k = 0.2000-0.3464 0.0000 ( 87320 PWs)   bands (ev):

   -14.9812 -11.5714  -6.9618  -6.2494  -5.7685  -5.2783  -5.0700  -4.8491
    -4.7603  -4.5781  -4.0404  -3.9353  -3.9189  -3.8666  -3.8414  -3.8340
    -3.7964  -3.7368  -3.7035  -3.6467  -3.5257  -3.3998  -3.3459  -3.3201
    -3.3112  -3.2666  -3.2349  -3.1852  -3.1424  -3.1019  -3.0591  -3.0096
    -2.9932  -2.9637  -2.9451  -2.9150  -2.8763  -2.8469  -2.8314  -2.8015
    -2.7586  -2.6799  -2.6428  -2.5363  -2.4753  -2.4108  -2.3858  -2.3513
    -2.3161  -2.2644  -2.2410  -2.2044  -2.1543  -2.1346  -2.0972  -2.0787
    -2.0113  -1.9897  -1.9249  -1.8902  -1.8615  -1.8150  -1.7891  -1.7427
    -1.6576  -1.6347  -1.5932  -1.5700  -1.5210  -1.4925  -1.4746  -1.4658
    -1.4463  -1.3867  -1.3011  -1.2782  -1.2563  -1.2392  -1.2245  -1.1904
    -1.1625  -1.1021  -1.0659  -1.0327  -1.0190  -1.0057  -0.9808  -0.9678
    -0.9454  -0.8953  -0.8893  -0.8578  -0.8308  -0.8041  -0.7881  -0.7623
    -0.7248  -0.7150  -0.6948  -0.6536  -0.6439  -0.6196  -0.5809  -0.5554
    -0.5409  -0.5251  -0.5049  -0.4951  -0.4660  -0.4442  -0.4145  -0.3735
    -0.3106  -0.2992  -0.2647  -0.2313  -0.2134  -0.1768  -0.1136  -0.0897
    -0.0311   0.0146   0.0812   0.1167   0.1400   0.1741   0.2043   0.2416
     0.2735   0.3209   0.3367   0.3471   0.3644   0.4081   0.4388   0.4937
     0.5474   0.5536   0.5909   0.6170   0.6506   0.7464   0.7576   0.7926
     0.8075   0.8244   0.8394   0.8799   0.9617   0.9821   0.9921   1.0389
     1.0727   1.1246   1.1439   1.1645   1.1833   1.2114   1.2239   1.2590
     1.2958   1.3520   1.3906   1.4202   1.4953   1.5830   1.6120   1.6665
     1.6842   1.7042   1.7538   1.7817   1.8149   1.8424   1.8655   1.8885
     1.9199   1.9355   1.9497   1.9782   1.9976   2.0201   2.0460   2.0628
     2.0692   2.1261   2.1473   2.1867   2.2106   2.2924   2.3223   2.3554
     2.4022   2.4326   2.4515   2.5222   2.5892   2.6089   2.8405   2.9746
     3.0976   3.2288   3.4309   3.4586   3.6619   3.9140   4.0463   4.2282
     4.4053   4.5209   4.6123   4.7100   4.9889   5.4016   5.5370   5.7600
     5.8310   6.0292   6.1079   6.3002   6.4001   6.5604   6.6528   6.7445

          k = 0.4000-0.2309 0.0000 ( 87306 PWs)   bands (ev):

   -14.9809 -11.5703  -6.9798  -6.1375  -5.7762  -5.4791  -5.0668  -4.7731
    -4.5823  -4.3868  -4.2705  -4.1619  -3.9877  -3.8584  -3.7828  -3.7217
    -3.6851  -3.6246  -3.5824  -3.5145  -3.4645  -3.4193  -3.3945  -3.3694
    -3.3143  -3.2689  -3.2508  -3.2130  -3.1971  -3.1666  -3.1400  -3.1001
    -3.0590  -3.0173  -2.9288  -2.8744  -2.8202  -2.8027  -2.7649  -2.7084
    -2.6470  -2.6327  -2.5992  -2.5708  -2.5311  -2.4740  -2.4327  -2.3663
    -2.3335  -2.2905  -2.2229  -2.2024  -2.1662  -2.1352  -2.1019  -2.0824
    -2.0623  -2.0311  -1.9527  -1.9256  -1.9013  -1.8597  -1.8149  -1.7250
    -1.7050  -1.6809  -1.6579  -1.6375  -1.5529  -1.5138  -1.4978  -1.4616
    -1.4214  -1.3639  -1.3434  -1.3245  -1.3017  -1.2362  -1.2177  -1.1617
    -1.1304  -1.0971  -1.0624  -1.0430  -1.0144  -0.9957  -0.9662  -0.9591
    -0.9536  -0.9267  -0.9091  -0.8948  -0.8611  -0.8453  -0.8140  -0.7892
    -0.7517  -0.7365  -0.7134  -0.6761  -0.6565  -0.6203  -0.5781  -0.5481
    -0.5399  -0.5230  -0.4992  -0.4658  -0.4428  -0.4047  -0.3527  -0.2957
    -0.2701  -0.2477  -0.2401  -0.2080  -0.1835  -0.1050  -0.0828  -0.0392
     0.0151   0.0283   0.0825   0.1013   0.1143   0.1349   0.1742   0.2001
     0.2205   0.2502   0.2832   0.2991   0.3220   0.3536   0.4130   0.4428
     0.4720   0.4958   0.5180   0.5593   0.6422   0.6700   0.7256   0.7572
     0.7986   0.8513   0.8968   0.9314   0.9577   1.0078   1.0507   1.0730
     1.0869   1.1070   1.1334   1.1585   1.1875   1.2357   1.2613   1.2933
     1.3057   1.3477   1.3796   1.4523   1.4712   1.5185   1.5392   1.5716
     1.6330   1.6508   1.7359   1.7435   1.7559   1.7636   1.7817   1.8478
     1.8687   1.9127   1.9532   1.9648   2.0329   2.0477   2.0620   2.0716
     2.1152   2.1394   2.1680   2.2045   2.2482   2.3319   2.3429   2.3516
     2.3837   2.4335   2.5879   2.6646   2.7637   2.8914   3.1040   3.1905
     3.3684   3.4398   3.6100   3.6432   3.8506   4.1018   4.2066   4.3054
     4.5777   4.6455   4.6746   4.8367   4.9365   5.0193   5.1614   5.3186
     5.5344   5.7992   5.9438   6.0141   6.3484   6.4474   6.7828   6.8765

          k = 0.4000-0.0000 0.0000 ( 87320 PWs)   bands (ev):

   -14.9810 -11.5713  -6.9718  -6.2575  -5.7716  -5.2787  -5.0990  -4.8646
    -4.6998  -4.5969  -4.0030  -3.9533  -3.9091  -3.8724  -3.8364  -3.8219
    -3.8020  -3.7206  -3.7020  -3.6216  -3.5850  -3.3903  -3.3476  -3.3197
    -3.3039  -3.2796  -3.2430  -3.1758  -3.1213  -3.0786  -3.0434  -3.0013
    -2.9816  -2.9631  -2.9431  -2.9139  -2.8816  -2.8348  -2.8238  -2.8086
    -2.7543  -2.6686  -2.6287  -2.5379  -2.4873  -2.4172  -2.3949  -2.3546
    -2.3281  -2.2853  -2.2395  -2.2005  -2.1694  -2.1274  -2.0920  -2.0780
    -2.0044  -1.9722  -1.9238  -1.8895  -1.8525  -1.8401  -1.7762  -1.7365
    -1.6540  -1.6479  -1.6109  -1.5930  -1.5471  -1.4955  -1.4792  -1.4592
    -1.4266  -1.3742  -1.3231  -1.3060  -1.2641  -1.2464  -1.2241  -1.2036
    -1.1235  -1.0997  -1.0576  -1.0400  -0.9961  -0.9790  -0.9592  -0.9452
    -0.9127  -0.9006  -0.8889  -0.8657  -0.8334  -0.8156  -0.7898  -0.7698
    -0.7382  -0.7057  -0.6840  -0.6645  -0.6467  -0.6151  -0.5794  -0.5689
    -0.5359  -0.5247  -0.5049  -0.4818  -0.4656  -0.4430  -0.4209  -0.3841
    -0.3255  -0.2973  -0.2774  -0.2326  -0.1949  -0.1652  -0.1066  -0.0356
     0.0032   0.0223   0.0801   0.1026   0.1446   0.1511   0.1882   0.2094
     0.2438   0.3112   0.3331   0.3514   0.3625   0.3829   0.4150   0.4817
     0.5060   0.5491   0.5856   0.6303   0.6576   0.7394   0.7468   0.7953
     0.7987   0.8175   0.8547   0.8815   0.9093   0.9639   1.0118   1.0279
     1.0580   1.1186   1.1438   1.1731   1.1831   1.2086   1.2222   1.2420
     1.2713   1.3232   1.3849   1.4514   1.4661   1.5742   1.5949   1.6697
     1.6901   1.7297   1.7514   1.8033   1.8220   1.8425   1.8661   1.8775
     1.9221   1.9349   1.9539   1.9702   2.0008   2.0122   2.0415   2.0622
     2.1061   2.1150   2.1492   2.1746   2.2140   2.2984   2.3228   2.3423
     2.3611   2.4178   2.4556   2.5104   2.5684   2.6178   2.8578   3.0218
     3.1264   3.2670   3.4684   3.5442   3.7476   3.8079   4.0271   4.2134
     4.4459   4.5422   4.6539   4.7641   5.1270   5.2030   5.5360   5.7487
     5.8343   6.0001   6.1191   6.2545   6.3972   6.5297   6.6042   6.7348

          k = 0.4000 0.2309 0.0000 ( 87306 PWs)   bands (ev):

   -14.9808 -11.5729  -6.9374  -6.1466  -5.7874  -5.4496  -5.1224  -4.9094
    -4.5445  -4.3794  -4.2938  -4.1322  -3.9683  -3.8857  -3.7765  -3.7160
    -3.6647  -3.6139  -3.5944  -3.5182  -3.4775  -3.4357  -3.3899  -3.3722
    -3.2970  -3.2684  -3.2564  -3.2182  -3.1942  -3.1523  -3.1071  -3.0722
    -3.0391  -2.9422  -2.9335  -2.8415  -2.8168  -2.7937  -2.7625  -2.7186
    -2.6531  -2.6142  -2.5806  -2.5663  -2.5190  -2.4942  -2.4026  -2.3480
    -2.3350  -2.3020  -2.2631  -2.1964  -2.1429  -2.1274  -2.1101  -2.0862
    -2.0647  -2.0142  -1.9680  -1.9176  -1.8894  -1.8578  -1.8364  -1.7388
    -1.7104  -1.6895  -1.6651  -1.6446  -1.5607  -1.5175  -1.4994  -1.4701
    -1.4137  -1.3724  -1.3430  -1.3323  -1.3158  -1.2098  -1.1917  -1.1578
    -1.1378  -1.1095  -1.0706  -1.0537  -1.0428  -1.0133  -0.9697  -0.9567
    -0.9480  -0.9284  -0.9077  -0.8855  -0.8556  -0.8253  -0.8034  -0.7843
    -0.7522  -0.7433  -0.7164  -0.6953  -0.6619  -0.5998  -0.5907  -0.5588
    -0.5328  -0.5155  -0.5037  -0.4733  -0.4491  -0.4053  -0.3574  -0.3137
    -0.2891  -0.2722  -0.2668  -0.2218  -0.1952  -0.1389  -0.0946  -0.0449
    -0.0152   0.0267   0.0881   0.1061   0.1167   0.1492   0.1680   0.1898
     0.2281   0.2518   0.2720   0.2902   0.3254   0.3601   0.3995   0.4466
     0.4654   0.5080   0.5349   0.5813   0.6378   0.6952   0.7296   0.7452
     0.8017   0.8598   0.8806   0.8998   0.9632   1.0025   1.0418   1.0568
     1.0782   1.0901   1.1178   1.1491   1.1903   1.2084   1.2604   1.3069
     1.3108   1.3428   1.4102   1.4531   1.4829   1.5063   1.5261   1.5824
     1.6518   1.6945   1.7314   1.7456   1.7561   1.7695   1.7960   1.8490
     1.8805   1.9253   1.9686   1.9770   2.0173   2.0418   2.0570   2.0857
     2.1139   2.1355   2.1610   2.1991   2.2725   2.3183   2.3344   2.3570
     2.3862   2.4240   2.5827   2.6185   2.6933   2.9103   3.1812   3.3025
     3.3781   3.4670   3.5624   3.7245   3.8665   4.0903   4.2236   4.2921
     4.5890   4.6288   4.7512   4.8332   4.9321   5.0576   5.1786   5.2956
     5.4923   5.7404   5.8497   6.1431   6.2188   6.5655   6.6720   6.8802

          k = 0.4000-0.6928 0.0000 ( 87340 PWs)   bands (ev):

   -14.9806 -11.5728  -6.9286  -5.9237  -5.7465  -5.5329  -5.2210  -4.9162
    -4.8404  -4.2872  -4.2532  -3.9643  -3.8501  -3.8192  -3.7319  -3.6844
    -3.6245  -3.5942  -3.5459  -3.4876  -3.4482  -3.3972  -3.3701  -3.3617
    -3.3479  -3.3211  -3.2866  -3.2029  -3.1867  -3.1584  -3.1502  -3.0979
    -3.0459  -2.9810  -2.9149  -2.9133  -2.8679  -2.8484  -2.7880  -2.7563
    -2.7198  -2.6848  -2.6231  -2.5705  -2.5058  -2.4173  -2.3713  -2.3497
    -2.3242  -2.2740  -2.2418  -2.1742  -2.1131  -2.0845  -2.0487  -2.0125
    -1.9952  -1.9369  -1.9126  -1.8792  -1.8530  -1.8412  -1.8207  -1.7543
    -1.7421  -1.7304  -1.6822  -1.6730  -1.6278  -1.5838  -1.5731  -1.5242
    -1.4927  -1.4701  -1.4379  -1.3739  -1.3445  -1.3105  -1.2815  -1.2537
    -1.2269  -1.2046  -1.1741  -1.1371  -1.0959  -1.0460  -1.0370  -1.0164
    -0.9585  -0.9204  -0.9025  -0.8842  -0.8793  -0.8423  -0.7796  -0.7543
    -0.7116  -0.6927  -0.6666  -0.6443  -0.6142  -0.5743  -0.5711  -0.5541
    -0.5329  -0.5233  -0.5034  -0.4582  -0.4463  -0.4377  -0.4116  -0.4082
    -0.3815  -0.3666  -0.2877  -0.2525  -0.2158  -0.1698  -0.1172  -0.0427
     0.0003   0.0153   0.0373   0.0708   0.1075   0.1323   0.1477   0.1733
     0.1976   0.2147   0.2694   0.2815   0.3462   0.3756   0.4184   0.4366
     0.4737   0.4846   0.5384   0.5635   0.6400   0.7075   0.7617   0.7749
     0.7857   0.8206   0.8437   0.8682   0.9005   0.9453   0.9596   0.9864
     1.0200   1.0321   1.0871   1.1107   1.1337   1.1735   1.2433   1.2883
     1.3445   1.3989   1.4340   1.4896   1.5243   1.5695   1.5969   1.6571
     1.6913   1.7329   1.7692   1.8085   1.8378   1.8612   1.9034   1.9305
     1.9484   1.9886   2.0148   2.0385   2.0437   2.0682   2.0978   2.1234
     2.1463   2.2074   2.2293   2.2643   2.2973   2.3409   2.3506   2.3750
     2.3954   2.4214   2.5553   2.6994   2.9394   3.1874   3.2827   3.5106
     3.5264   3.7397   3.8131   3.8910   4.0111   4.1537   4.3354   4.4761
     4.5893   4.6984   4.9297   5.0106   5.1009   5.1618   5.2967   5.3963
     5.4944   5.6008   5.7135   5.8536   6.0272   6.2431   6.4756   6.5486

          k = 0.4000-0.4619 0.0000 ( 87340 PWs)   bands (ev):

   -14.9807 -11.5713  -6.9552  -5.9002  -5.7806  -5.5106  -5.1539  -5.0390
    -4.6596  -4.3487  -4.2615  -3.9267  -3.8893  -3.8050  -3.7510  -3.6808
    -3.6197  -3.5641  -3.5372  -3.5132  -3.4391  -3.4035  -3.3765  -3.3657
    -3.3338  -3.3103  -3.2641  -3.2399  -3.1985  -3.1731  -3.1500  -3.1430
    -3.0605  -3.0149  -2.9269  -2.9072  -2.8866  -2.8322  -2.7803  -2.7498
    -2.7083  -2.6895  -2.6647  -2.5623  -2.5116  -2.4272  -2.3796  -2.3463
    -2.3097  -2.2886  -2.2303  -2.1938  -2.1060  -2.0758  -2.0604  -2.0301
    -1.9878  -1.9747  -1.8975  -1.8800  -1.8536  -1.8321  -1.8210  -1.7628
    -1.7323  -1.7129  -1.6816  -1.6575  -1.6241  -1.6027  -1.5590  -1.5148
    -1.4883  -1.4650  -1.4244  -1.3813  -1.3146  -1.3117  -1.2851  -1.2542
    -1.2339  -1.2011  -1.1472  -1.1141  -1.0892  -1.0459  -1.0299  -1.0000
    -0.9790  -0.9230  -0.9101  -0.8929  -0.8762  -0.8319  -0.8013  -0.7600
    -0.6980  -0.6859  -0.6817  -0.6305  -0.6038  -0.5843  -0.5712  -0.5643
    -0.5412  -0.5079  -0.4884  -0.4594  -0.4453  -0.4196  -0.4141  -0.4061
    -0.3793  -0.3645  -0.3045  -0.2564  -0.1960  -0.1556  -0.1034  -0.0890
    -0.0186   0.0300   0.0442   0.0666   0.1064   0.1270   0.1453   0.1678
     0.2240   0.2545   0.2581   0.2746   0.3275   0.3950   0.4205   0.4404
     0.4637   0.4968   0.5549   0.6014   0.6340   0.7244   0.7434   0.7613
     0.7835   0.8091   0.8401   0.8792   0.9157   0.9403   0.9787   0.9928
     1.0075   1.0241   1.0829   1.1084   1.1330   1.1704   1.2484   1.2728
     1.3320   1.4073   1.4402   1.5053   1.5293   1.5707   1.5872   1.6273
     1.6874   1.7354   1.7599   1.8161   1.8247   1.8704   1.8887   1.9248
     1.9514   2.0003   2.0242   2.0261   2.0510   2.0718   2.0815   2.1209
     2.1373   2.2034   2.2349   2.2746   2.3319   2.3400   2.3748   2.3936
     2.4166   2.4501   2.5546   2.6392   2.9570   3.0374   3.3397   3.5020
     3.5682   3.7146   3.8179   3.9007   3.9551   4.1079   4.2533   4.4889
     4.5447   4.6627   4.9335   5.0117   5.1574   5.1944   5.3469   5.4118
     5.4658   5.6240   5.7451   5.8676   6.0514   6.2098   6.4765   6.5528

     the Fermi energy is     2.1463 ev

!    total energy              =  -27812.30395968 Ry

     total all-electron energy =  -1326872.361668 Ry
     estimated scf accuracy    <       0.00000037 Ry
     smearing contrib. (-TS)   =       0.00260509 Ry
     internal energy E=F+TS    =  -27812.30656477 Ry

     The total energy is F=E-TS. E is the sum of the following terms:
     one-electron contribution =  -26255.95055897 Ry
     hartree contribution      =   13433.64057857 Ry
     xc contribution           =    -905.24333338 Ry
     ewald contribution        =   11408.96137496 Ry
     one-center paw contrib.   =  -25493.71462595 Ry

     convergence has been achieved in  19 iterations

     negative rho (up, down):  1.313E-02 0.000E+00

     Forces acting on atoms (cartesian axes, Ry/au):

     atom    1 type  1   force =     0.00069520   -0.00035665   -0.00362741
     atom    2 type  1   force =     0.00223453   -0.00089367   -0.00590848
     atom    3 type  1   force =    -0.00037156   -0.00000502   -0.00513849
     atom    4 type  1   force =     0.00027448    0.00107264   -0.00406940
     atom    5 type  1   force =     0.00150735   -0.00042266   -0.00516026
     atom    6 type  1   force =     0.00029225   -0.00028243   -0.00453131
     atom    7 type  1   force =    -0.00015059    0.00195975   -0.00581564
     atom    8 type  1   force =    -0.00005188   -0.00009430   -0.00321540
     atom    9 type  1   force =     0.00119640   -0.00014901   -0.00446974
     atom   10 type  1   force =     0.00099689   -0.00098151    0.00448778
     atom   11 type  1   force =    -0.00443762    0.00110575    0.00053901
     atom   12 type  1   force =     0.00105819    0.00236798    0.00485967
     atom   13 type  1   force =     0.00026298   -0.00110601    0.00704781
     atom   14 type  1   force =    -0.00160630    0.00033901    0.00510675
     atom   15 type  1   force =     0.00122391   -0.00197611    0.00668022
     atom   16 type  1   force =     0.00060322   -0.00132308    0.00184095
     atom   17 type  1   force =    -0.00264102    0.00225560    0.00707450
     atom   18 type  1   force =    -0.00114204   -0.00327683    0.00112348
     atom   19 type  1   force =    -0.00004028   -0.00087317    0.00009147
     atom   20 type  1   force =    -0.00012202    0.00018574    0.00008516
     atom   21 type  1   force =     0.00001203   -0.00023918    0.00016277
     atom   22 type  1   force =    -0.00001475   -0.00017032    0.00015930
     atom   23 type  1   force =    -0.00000532   -0.00048718   -0.00023621
     atom   24 type  1   force =    -0.00038197    0.00006625    0.00052043
     atom   25 type  1   force =    -0.00039223   -0.00009617    0.00031286
     atom   26 type  1   force =     0.00029081   -0.00004864    0.00018757
     atom   27 type  1   force =    -0.00010442    0.00003275   -0.00022052
     atom   28 type  1   force =     0.00005977   -0.00013376   -0.00003024
     atom   29 type  1   force =    -0.00026867    0.00015515   -0.00041957
     atom   30 type  1   force =     0.00038471   -0.00033842   -0.00004540
     atom   31 type  1   force =     0.00001570   -0.00013003    0.00031645
     atom   32 type  1   force =     0.00045204    0.00030262   -0.00000588
     atom   33 type  1   force =     0.00011407    0.00031625   -0.00006462
     atom   34 type  1   force =    -0.00004542    0.00010638   -0.00008448
     atom   35 type  1   force =     0.00047806   -0.00031888    0.00069436
     atom   36 type  1   force =    -0.00007923   -0.00023477   -0.00039631
     atom   37 type  2   force =    -0.00603381   -0.00025846    0.00925172
     atom   38 type  2   force =    -0.00112049    0.00075501   -0.00095923
     atom   39 type  2   force =     0.00145340    0.00014171    0.00266050
     atom   40 type  3   force =     0.00540364    0.00303367   -0.00880417

     Total force =     0.015944     Total SCF correction =     0.000622

     negative rho (up, down):  1.313E-02 0.000E+00

     negative rho (up, down):  1.313E-02 0.000E+00

     negative rho (up, down):  1.313E-02 0.000E+00

     negative rho (up, down):  1.313E-02 0.000E+00

     negative rho (up, down):  1.313E-02 0.000E+00

     negative rho (up, down):  1.313E-02 0.000E+00

     negative rho (up, down):  1.313E-02 0.000E+00

     negative rho (up, down):  1.313E-02 0.000E+00

     negative rho (up, down):  1.313E-02 0.000E+00

     negative rho (up, down):  1.313E-02 0.000E+00

     negative rho (up, down):  1.313E-02 0.000E+00

     negative rho (up, down):  1.313E-02 0.000E+00

     negative rho (up, down):  1.313E-02 0.000E+00

     negative rho (up, down):  1.313E-02 0.000E+00

     negative rho (up, down):  1.313E-02 0.000E+00

     negative rho (up, down):  1.313E-02 0.000E+00

     negative rho (up, down):  1.313E-02 0.000E+00

     negative rho (up, down):  1.313E-02 0.000E+00

     negative rho (up, down):  1.313E-02 0.000E+00

     negative rho (up, down):  1.313E-02 0.000E+00

     negative rho (up, down):  1.313E-02 0.000E+00

     negative rho (up, down):  1.313E-02 0.000E+00

     negative rho (up, down):  1.313E-02 0.000E+00

     negative rho (up, down):  1.313E-02 0.000E+00

     negative rho (up, down):  1.313E-02 0.000E+00

     negative rho (up, down):  1.313E-02 0.000E+00

     negative rho (up, down):  1.313E-02 0.000E+00

     negative rho (up, down):  1.313E-02 0.000E+00

     negative rho (up, down):  1.313E-02 0.000E+00

     negative rho (up, down):  1.313E-02 0.000E+00

     negative rho (up, down):  1.313E-02 0.000E+00

     negative rho (up, down):  1.313E-02 0.000E+00

     negative rho (up, down):  1.313E-02 0.000E+00

     negative rho (up, down):  1.313E-02 0.000E+00
 BEEFens 2000 ensemble energies
             -0.605581759444618E+02
             -0.361341987603052E+01
             -0.158305439861393E+02
              0.428388252125488E+02
             -0.220587568631648E+02
             -0.205203809230738E+02
             -0.351200642100855E+02
             -0.863201932048050E+02
             -0.465086716405800E+02
             -0.472411269538406E+02
             -0.368565100710690E+02
              0.223114699124694E+01
              0.408089747034859E+01
              0.764667341200149E+01
              0.265197902658400E+01
              0.474096197981447E+02
             -0.208711783371881E+02
             -0.230821625325247E+02
              0.192565388222084E+02
             -0.112195036083352E+03
              0.535336435066986E+02
             -0.289495013623640E+02
             -0.332256828015600E+01
             -0.113842438226105E+02
             -0.889396610697668E+01
             -0.469641352536362E+01
              0.881373168088509E+02
             -0.185821103569493E+02
             -0.903055031522126E+01
             -0.517606125068835E+02
              0.815171819952934E+02
             -0.187874345719998E+02
             -0.374428571385030E+02
              0.249421294662696E+02
             -0.281975844755249E+01
              0.163201284382794E+02
             -0.487269998135309E+01
              0.108293735117394E+02
              0.287007024658530E+02
             -0.103161118306140E+03
              0.557139222189195E+02
              0.142124873890276E+02
             -0.163739824739861E+01
             -0.361447769070947E+02
              0.122879498567952E+02
             -0.145669554768814E+02
              0.397447470737161E+02
              0.364406025551461E+02
             -0.308097213637174E+02
             -0.274743409579913E+02
             -0.327724571262254E+02
             -0.351259995960413E+02
              0.135251275146732E+02
             -0.490285860345418E+02
              0.115040245711023E+02
              0.622071383913542E+02
              0.633630120187217E+02
              0.355086974286077E+02
              0.154175028290844E+02
              0.269529065199722E+02
              0.889471647240080E+02
              0.213025131673189E+02
             -0.547657226736739E+02
             -0.157185289237099E+02
             -0.235255169766594E+02
              0.629135194874600E+02
             -0.772697627720840E+02
             -0.670566785783850E+02
             -0.258103328376036E+02
             -0.634907876006662E+01
             -0.471096776316988E+02
              0.270111872947351E+02
              0.798902210021595E+01
              0.865160396043348E+01
             -0.396162773094469E+02
             -0.346218659816929E+02
             -0.540630713184265E+02
              0.390180620198780E+02
             -0.294992570897257E+02
              0.264070135221259E+02
             -0.709818810900294E+01
             -0.317823254746379E+02
             -0.575950862961214E+02
             -0.176689143926757E+02
             -0.905102124910582E+01
             -0.124922906857288E+02
              0.411312487171568E+02
              0.680718502859641E+02
             -0.384753402476191E+02
             -0.793604725000196E+02
             -0.219436927518143E+02
              0.111350183383122E+03
             -0.590916591401027E+02
              0.355673137850445E+02
             -0.956057801880820E+01
             -0.662615723558504E+02
              0.254161291391550E+02
              0.397982903351182E+02
             -0.198357995442802E+02
              0.399885691976733E+02
             -0.295937982939961E+02
             -0.476634860227223E+02
              0.863705556846230E+02
              0.453472567474591E+02
              0.336238966226359E+02
              0.146455420903853E+02
              0.204852717166688E+02
              0.855360648586639E+02
             -0.256155877071463E+02
              0.785528141236286E+01
             -0.142216681678869E+03
              0.181175283645640E+02
             -0.715324766361365E+02
              0.150480724879733E+02
              0.204095048939981E+02
             -0.332140621258726E+02
             -0.556394775941557E+02
              0.656878542851859E+01
             -0.303446005068809E+02
              0.307109693773588E+02
             -0.529002234367343E+02
              0.174762529969109E+01
             -0.356422892288337E+02
             -0.424680289775205E+01
             -0.105979950279132E+01
              0.180115803153464E+02
              0.141899689957381E+01
             -0.652120818424385E+01
              0.588706586553118E+02
              0.906493937737844E+02
              0.483155551933840E+02
              0.829799220810015E+02
             -0.114876607054958E+02
              0.143219155757993E+02
              0.540114781798753E+02
             -0.111342836106299E+02
             -0.733962586456484E+02
             -0.382662259227466E+02
             -0.520555640063202E+02
             -0.276145833983410E+02
              0.326670156101609E+02
             -0.116583803979911E+03
             -0.186766746479965E+02
              0.413250683668254E+02
             -0.385709071697910E+02
             -0.364887709663575E+02
              0.542689574499022E+02
              0.400050330779593E+02
             -0.353113204773173E+02
              0.136439876030712E+02
             -0.272405622683502E+02
              0.342504268261543E+02
              0.448783483801168E+01
              0.211445173289491E+02
             -0.883208825784791E+02
             -0.479501900779601E+02
             -0.990892891793396E+01
              0.329021807599053E+01
             -0.365900100873425E+02
              0.105820407831360E+03
             -0.230836533707665E+02
             -0.397981428188279E+02
              0.388598469471044E+02
             -0.493790808740196E+02
             -0.362495860749735E+02
              0.324313847013819E+02
              0.124254736588978E+02
              0.164122367105290E+02
              0.115941858050775E+02
             -0.132704305649087E+02
              0.225157391906076E+02
              0.589523548401058E+02
             -0.311501970421554E+02
              0.162340538689734E+02
              0.932714648839967E+02
              0.339976570879709E+02
             -0.729071971790131E+01
             -0.187958987843962E+02
              0.153064407541253E+03
             -0.163411863843230E+02
              0.362273269802272E+02
              0.193686893364070E+02
              0.361699177131628E+02
              0.890789827769129E+02
              0.542378254215101E+02
             -0.242929145947434E+01
              0.227102259609084E+02
              0.483841263844612E+02
              0.362883961782520E+02
             -0.524229663456759E+02
              0.934220213463385E+02
             -0.823765923551938E+02
             -0.198223441895557E+02
              0.582177441172749E+02
              0.666568540512088E+01
              0.791231523685883E+01
              0.340841204129554E+02
              0.298826441537656E+02
              0.353114329717515E+02
             -0.636809949202194E+02
              0.289035038472946E+01
             -0.297109670494622E+02
             -0.873789151233763E+01
             -0.144078312133752E+01
             -0.716709197886192E+01
             -0.412222241292147E+01
              0.857696628557163E+02
             -0.101103323099839E+02
             -0.275891168918022E+02
             -0.496448799187149E+01
              0.139747001067142E+02
             -0.562912775395694E+02
             -0.405593140311506E+02
             -0.381688886736623E+02
             -0.628970227429382E+02
             -0.169518428857641E+02
             -0.446867970310538E+02
              0.163129677905792E+02
             -0.241393335877461E+01
             -0.104046689514968E+02
             -0.933307773782130E+01
              0.807350588271805E+01
             -0.243162355956739E+02
              0.687900862479296E+02
             -0.805189201067292E+02
             -0.140764858147428E+02
             -0.174100760994038E+02
              0.181724033276060E+02
              0.213543885045827E+02
             -0.463093273465195E+02
             -0.202048509996780E+02
              0.440008980144869E+02
             -0.275888733544266E+02
              0.186434020173566E+02
              0.382368214897222E+02
             -0.321500007758186E+01
              0.113961199058633E+03
             -0.230586155152105E+02
             -0.340587347577926E+02
              0.579800861366772E+01
             -0.227479333067361E+02
              0.526782403510028E+02
             -0.336027887504529E+02
              0.106257691770737E+02
              0.640205860200479E+02
             -0.126070290681958E+02
              0.120001974622996E+03
              0.125620882951686E+03
             -0.648412538238342E+02
              0.589367721075356E+02
              0.165935089227959E+02
             -0.516601634422521E+02
              0.216288948820185E+02
              0.352494448236191E+02
              0.361628811905068E+02
              0.135778191950891E+01
              0.159046621297692E+02
              0.693827108119790E+02
             -0.246570233376227E+02
              0.181002938581961E+02
              0.738086095967134E+02
             -0.372096335888880E+02
             -0.128744082952256E+02
              0.507130062055629E+02
              0.296791735189123E+02
              0.779547322518665E+02
              0.221800711201706E+02
              0.618858735736450E+01
              0.280262408067376E+02
              0.382333537184036E+02
             -0.469974910521794E+02
              0.327668072207246E+01
              0.128448959871570E+02
              0.113304704118292E+02
              0.219861139080112E+02
             -0.573284233754221E+02
              0.365803602394827E+02
             -0.443287518688257E+02
             -0.346563189371194E+02
              0.177130173047093E+02
             -0.181555417515415E+02
              0.553738214306086E+02
             -0.256383458329591E+02
              0.266190853971060E+02
              0.368063228547300E+02
              0.827949698383854E+02
              0.573604751141862E+02
              0.460545116989085E+02
             -0.106317912904343E+02
             -0.387465852760414E+01
             -0.331242786056752E+02
              0.748925725359077E+02
              0.795844603970371E+02
              0.361066368953734E+02
             -0.191252392824150E+02
              0.511098893175856E+02
             -0.163160863061191E+02
              0.214826298105833E+02
              0.613061112353520E+02
              0.215048385862269E+01
             -0.104237996207511E+02
             -0.283088030300760E+02
             -0.509746172887236E+02
              0.943399578516891E+02
              0.438182901674695E+02
             -0.557688246155542E+02
             -0.958261272931085E+01
              0.249740372108982E+02
             -0.996037479740176E+01
              0.590937936038764E+02
              0.152180674014353E+02
              0.798059456885154E+02
              0.278439284089303E+02
             -0.264163693860494E+02
              0.249137285256819E+02
             -0.502311600428368E+01
             -0.323644886899008E+02
              0.133168356772117E+02
              0.205900132258849E+02
              0.930666645926026E+02
              0.796041424654711E+02
              0.549787799784169E+02
              0.729990185469678E+02
              0.796616291032248E+01
             -0.273068505712361E+02
              0.162936994850849E+02
             -0.367756100816980E+02
             -0.474887330314371E+02
             -0.562813117971506E+02
             -0.266008463845629E+02
             -0.109510880921343E+03
             -0.290447953874330E+02
             -0.835365339056964E+02
              0.209397799623499E+02
             -0.476180299833454E+02
              0.395764642862760E+02
             -0.939150789961380E+02
             -0.329502219314464E+02
              0.548509253203899E+02
              0.207405459704840E+02
             -0.828743166101376E+02
              0.630555280411543E+02
             -0.256131925714932E+02
              0.511549528477486E+02
             -0.242774860184447E+02
             -0.749781318622624E+02
              0.112084106020352E+02
             -0.610291630258052E+02
             -0.168530818583884E+02
             -0.145276629993774E+01
              0.417854374203486E+02
              0.126782589388352E+03
             -0.461157835425128E+02
             -0.362298902061972E+02
             -0.966842177200874E+00
             -0.130112577383427E+02
             -0.821187509536898E+02
             -0.595974753714214E+02
              0.516550452335189E+02
             -0.288912146801932E+02
              0.168616934873835E+02
             -0.488782465873410E+02
             -0.131616842323369E+02
             -0.436772633968215E+02
              0.564750899463691E+02
              0.151465730655849E+02
             -0.231115744392912E+02
             -0.126308546450236E+02
              0.662818695490007E+01
             -0.618937161533046E+01
              0.441054556593223E+02
             -0.251738387621266E+02
              0.268450597309834E+01
              0.338141854025082E+02
              0.171517607423368E+02
             -0.158917031447680E+02
              0.156013816941860E+03
              0.536356261217633E+02
              0.115207816724693E+01
              0.162031107224261E+02
             -0.613366833391605E+02
              0.314490602222966E+02
             -0.720348466803862E+02
             -0.251589063695172E+02
             -0.521398546112000E+02
             -0.219585285488373E+02
              0.567899847232585E+02
             -0.535855674319962E+02
              0.160052438903815E+02
             -0.404148616123007E+01
              0.390276140691418E+01
             -0.433507824659733E+02
             -0.477720077189387E+02
             -0.395271416307617E+01
             -0.424966564273861E+02
             -0.217136389069107E+02
             -0.437669404496047E+02
             -0.119297250048503E+02
             -0.358414686231015E+02
             -0.515676602215175E+02
              0.212543531831383E+02
             -0.209568748792585E+02
              0.187250477094465E+02
              0.973332986304762E+01
             -0.736458819989109E+02
             -0.547428473049698E+02
             -0.396795447916210E+02
              0.353982060894859E+02
              0.273058410634334E+01
             -0.625971646099336E+02
              0.584272720945813E+02
             -0.400328706313573E+02
              0.543404997622830E+02
             -0.288744377300821E+02
             -0.445301729191135E+02
              0.298665488606250E+02
             -0.656578538497508E+02
             -0.379166399533688E+02
              0.671837503913150E+02
              0.203377790938108E+02
             -0.358645627076243E+02
              0.488075296945632E+02
             -0.173529963711817E+02
             -0.321714401645247E+02
             -0.301286752200790E+02
             -0.499726448714177E+02
              0.248601458002609E+02
             -0.931272603756650E+02
             -0.839013813097430E+02
             -0.731081136540945E+01
             -0.306354798109950E+02
             -0.574398229458491E+02
              0.720678031410007E+02
              0.131286824632549E+03
             -0.360760369825063E+02
             -0.254261855177833E+01
             -0.636032103548404E+02
              0.649471020515319E+02
              0.170285849153136E+02
             -0.180732987333462E+02
             -0.409499632703109E+02
              0.148566201969753E+02
             -0.585408026244973E+02
             -0.197219166854569E+02
             -0.903555637324887E+02
              0.336250255014958E+02
              0.169101324066138E+02
              0.184114714979262E+01
             -0.699691832773840E+01
             -0.328365101644954E+02
             -0.753219847293860E+01
              0.125227199627868E+03
             -0.198943335102397E+02
             -0.435934328030468E+02
             -0.682633517256907E+02
              0.108696704126612E+02
             -0.341127083257334E+02
              0.585888047556051E+01
              0.260829406143354E+02
              0.101857168395298E+02
              0.277029453500172E+02
              0.119278384148953E+02
              0.628607708586379E+02
              0.316701027714358E+02
             -0.325643905298474E+02
              0.354074818199381E+02
              0.379125655390434E+02
              0.120846952651806E+02
              0.486157861456582E+02
             -0.223853158997134E+02
              0.764737277498181E+02
              0.171881494399640E+02
             -0.271578651673818E+02
             -0.720149140634684E+01
             -0.185855493818251E+02
              0.261782136568316E+02
             -0.234540361246160E+02
             -0.715272195199361E-01
             -0.845598243797360E+01
              0.808486329229193E+02
              0.498970220326504E+02
             -0.686698151913746E+02
             -0.472456751962059E+01
             -0.554991968671440E+02
             -0.159703842113902E+02
             -0.267788268424783E+02
              0.372559602427827E+01
              0.560666989003808E+00
             -0.256787230808010E+02
              0.809473113363208E+01
             -0.601320816089688E+01
             -0.128636169747805E+02
              0.857710229020702E+02
              0.181779585885796E+02
             -0.804946528269193E+02
             -0.457636543300125E+02
              0.942879553908350E+02
              0.277189517257232E+02
             -0.106740548248364E+02
              0.104344695330872E+03
             -0.195197567424204E+02
             -0.123018464986955E+02
             -0.534945560570759E+01
              0.107000248953327E+02
              0.271371656037323E+02
              0.780901608916088E+01
              0.305018531813970E+02
             -0.188030919663750E+02
             -0.302563741558835E+02
             -0.416647066889127E+02
             -0.476001529719001E+02
              0.463255317841300E+02
              0.126802447339572E+02
              0.386817982772941E+02
              0.133073952653838E+02
              0.853918437327852E+02
              0.156227256322949E+02
             -0.844544914581618E+02
             -0.333865280524658E+02
              0.134058364863458E+02
             -0.302540899765413E+02
              0.625393366777478E+02
             -0.883348939358575E+01
              0.148725848013768E+02
              0.496336848249782E+02
             -0.705893311816694E+02
              0.149499565971822E+03
              0.208270498828790E+02
              0.271144426271316E+02
              0.346796740089686E+02
              0.103695197068984E+02
             -0.159415956253019E+01
              0.358213102387014E+02
             -0.356075781368277E+02
              0.771339918792380E+02
              0.683138944693463E+02
             -0.405095940227277E+02
              0.149114454593305E+02
              0.668985619645766E+02
             -0.223877929966514E+02
              0.153871150623395E+02
              0.434862665909147E+02
              0.421843378958574E+02
             -0.783386155887067E+02
             -0.152564982874708E+02
             -0.356054993107161E+02
             -0.146331560721131E+01
             -0.762638791906921E+01
             -0.552290342424953E+01
             -0.180846847632668E+02
             -0.292742606878307E+02
              0.626793803414535E+01
              0.111749505445035E+02
              0.534688572332267E+02
             -0.389187844324960E+02
              0.372999119171122E+02
              0.437394902488746E+02
             -0.187048113552071E+02
              0.871093925804478E+02
             -0.696735893535472E+02
             -0.102992681155692E+03
             -0.655465185014168E+01
             -0.265330851941303E+01
              0.387891544574472E+01
              0.787713782651190E+02
             -0.107230118611776E+02
              0.415810905000490E+02
              0.442281588515341E+02
              0.384777005275814E+02
             -0.991764000618969E+01
              0.627132045022079E+02
             -0.133316898218519E+02
             -0.306571260025090E+02
             -0.479078138406216E+02
              0.585729405727781E+01
              0.369508757081821E+02
             -0.603380555308559E+01
              0.392896314619640E+02
             -0.175485014890904E+01
              0.654601536127503E+02
              0.187486002196643E+02
              0.996705537055756E+01
             -0.121866785332417E+02
              0.331729664476244E+02
              0.362173434139839E+02
              0.232726777407720E+02
             -0.521962776156897E+00
             -0.549571575138894E+02
              0.260106152208024E+02
              0.174829901405524E+02
              0.402353782727635E+02
              0.271843310932067E+02
              0.371991329878163E+02
             -0.606687235846576E+01
              0.250005978377951E+02
             -0.298012511701891E+02
             -0.196158928975717E+01
             -0.568400997431942E+02
             -0.307765332314589E+02
              0.378176920181640E+02
             -0.934041683381297E+02
              0.294153978770065E+02
              0.183691382369948E+02
              0.838334872620948E+02
             -0.301020623395073E+02
              0.328527520125102E+02
             -0.137704046825428E+02
             -0.463151510194587E+02
             -0.761106112287945E+02
             -0.519344876871008E+01
             -0.858128573413968E+02
              0.199931516351044E+02
             -0.247083281457151E+02
              0.305211851160607E+02
              0.236074809600520E+02
             -0.240183687642318E+02
             -0.264359601263524E+02
              0.390414081781989E+02
             -0.586763011331756E+02
             -0.116035274420987E+02
             -0.195770642382487E+02
              0.211988631186776E+02
             -0.897469160932553E+01
              0.361687563732124E+01
             -0.200483218454046E+02
              0.557777413843393E+02
             -0.437709779609326E+02
              0.785319480345549E+01
              0.583785987858930E+02
             -0.322484188765652E+02
              0.357708734593345E+01
             -0.884989218805015E+01
             -0.668532390703506E+02
             -0.482522791320605E+02
             -0.862776728615334E+01
              0.240025302274237E+02
              0.301585889071920E+02
              0.856783480499644E+01
             -0.412392445219018E+01
              0.151750168756870E+02
             -0.439601600319379E+02
              0.335715208233319E+01
             -0.530241512057626E+02
             -0.324215017222623E+02
              0.473743730971651E+02
             -0.294680725608405E+02
              0.620842824070465E+02
             -0.213836986407384E+02
              0.353554127882922E+02
              0.241119781381049E+02
             -0.642967109927464E+02
             -0.280369470148103E+02
              0.931645036616314E+01
             -0.370542983303809E+02
             -0.339149535677764E+02
             -0.828373397172811E+02
             -0.538489913344604E+02
             -0.509500437430929E+02
             -0.414841658304783E+02
             -0.991109674214073E+00
              0.990135987779709E+01
              0.969121554299051E+00
              0.152440764030038E+02
             -0.548339135466681E+02
              0.141224626621396E+02
              0.255439679360657E+02
             -0.665820579256797E+02
             -0.701185316387846E+02
             -0.430308646592125E+02
             -0.170913274742487E+02
              0.178394777080879E+02
              0.455426343515956E+01
             -0.425931106402649E+02
              0.366102228083207E+02
             -0.215708934277753E+02
              0.516761038488535E+02
             -0.885632840883395E+02
              0.596127724255922E+02
             -0.206120243983395E+01
             -0.367495265804455E+02
             -0.216284340612189E+02
              0.471956198526746E+01
              0.373960938081545E+02
             -0.754961466140010E+02
             -0.120724456714812E+02
             -0.216136779960718E+02
              0.510465038784381E+02
              0.863278726077673E+02
             -0.963110393785091E+02
              0.942704125899261E+02
              0.467665266840021E+02
             -0.724325400218913E+02
             -0.366209011173651E+02
              0.750463415691177E+02
              0.631205415930915E+02
             -0.180279846939169E+02
             -0.464763691883189E+01
              0.727879955477098E+01
              0.647573609167807E+02
             -0.507306760794376E+02
              0.158291886807354E+02
             -0.469681196537226E+01
              0.347729908244216E+02
             -0.745629726845313E+02
             -0.648418723546268E+01
             -0.350854039383009E+02
              0.459929671045912E+02
              0.468418654605050E+02
             -0.860037262688658E+02
             -0.486140038647582E+02
             -0.256076173420803E+02
             -0.338321396528057E+02
             -0.109198960655725E+02
             -0.243057703907540E+02
              0.426589065137630E+02
              0.400789925825850E+02
             -0.567092718015351E+01
             -0.415239049867300E+02
             -0.848667758518938E+02
              0.442352661593120E+02
             -0.522696583067206E+02
             -0.312227796203775E+02
              0.546133056359892E+01
             -0.321537594820569E+02
             -0.397278954471988E+02
             -0.239388687852340E+02
             -0.383975976966971E+02
             -0.270620867845611E+02
             -0.481819839394113E+02
              0.563084414217546E+02
              0.637481151715768E+02
             -0.170023533234360E+01
             -0.261053904531374E+02
             -0.626184947667070E+01
              0.440420554623139E+02
             -0.866610152425064E+02
             -0.145839268895555E+02
              0.523243708609998E+02
              0.661729616952932E+02
             -0.244630786455635E+02
              0.914791775022184E+01
              0.522138398578237E+02
              0.197864105742642E+02
             -0.833775919281425E+01
             -0.452252794277338E+02
              0.280166181107907E+02
             -0.351993159768377E+02
             -0.164853828425598E+02
             -0.152625051317095E+02
             -0.200071688450226E+02
              0.194207556624966E+02
[...]
              0.283268549027568E+02
              0.141585979023246E+03
              0.241526849327929E+02
              0.122288185083237E+02
             -0.463958786813953E+02
             -0.636910981691317E+02
             -0.188580827051392E+02
              0.328661799169842E+02
             -0.425033649989200E+01
              0.188751447193037E+02
              0.335298097600660E+02
             -0.586146967312421E+02
              0.221736430750645E+02
              0.582201383299860E+02
              0.552424402067096E+02
             -0.419828276999505E+01
             -0.139980670784246E+01
             -0.992618546345574E+01
             -0.481600429283361E+02
             -0.673798723118121E+02
              0.784327904570175E+02
             -0.522480501796085E+01
             -0.586976859845923E+02
              0.167526329736884E+01
             -0.204667618534372E+02
              0.936858089948122E+02
             -0.215854009472973E+02
             -0.352879396530459E+02
              0.334199058750999E+02
             -0.145187882204622E+02
              0.388738831765728E+02
             -0.244944883803731E+01
              0.100948112895950E+03
              0.488495578284726E+02
             -0.517352112500038E+01
             -0.321113475110822E+02
              0.231653847835740E+02
             -0.527478254365941E+02
             -0.127903453934498E+02
              0.584524247688143E+02
             -0.287029847744161E+02
             -0.437709278349351E+02
             -0.222699403323365E+02
              0.518038032930392E+02
              0.124921502699064E+02
             -0.847675241321889E+02
              0.303226079664596E+02
              0.151939417286121E+02
              0.572467698544617E+01
             -0.512491358732639E+02
             -0.378434206225506E+01
              0.322583980823046E+02
              0.512358133407932E+02
              0.630855209364834E+02
              0.228152397439452E+02
              0.782393452227240E+00
             -0.496743883853638E+02
             -0.509079475291868E+02
             -0.747201005181478E+02
             -0.605840660565275E+01
              0.308193631994941E+02
             -0.380073320943538E+01
              0.545975231254881E+02
             -0.317240174094319E+02
              0.166444449666146E+02
             -0.101810545866258E+02
             -0.288732373244742E+02
              0.584301880810751E+02
              0.791807421267112E+01
              0.602620866921245E+02
              0.507487452592738E+01
              0.264772696400964E+02
             -0.192456811528227E+02
              0.585165555915584E+02
             -0.110574597517081E+02
             -0.163021165005313E+00
             -0.788688612619401E+02
             -0.128312996660253E+02
              0.717962152347350E+02
              0.672398286299620E+02
              0.250970880337869E+02
             -0.130184302626018E+02
              0.338405102005714E+01
             -0.172817987520665E+02
             -0.198059253790586E+01
              0.905741809649477E+02
              0.122148509265048E+01
             -0.189613783330519E+02
             -0.110576115107437E+03
             -0.552427115981205E+02
             -0.374077245994710E+02
             -0.657740462060985E+02
             -0.554089709942382E+02
             -0.681549655578763E+02
             -0.445993285838955E+02
             -0.410529275148482E+02
             -0.450964071215229E+02
              0.482564952080713E+02
             -0.294262691802378E+02
             -0.995088619375248E+02
              0.418115904903226E+02
             -0.259021112123326E+02
             -0.789436501936220E+02
              0.942245415559566E+02
             -0.219067058343183E+02
              0.228037751067606E+02
              0.454717403587852E+02
             -0.143143353447442E+01
              0.253635198732667E+02
              0.471177440058889E+01
              0.426039689127091E+00
             -0.149923322949727E+02
             -0.713738205325128E+02
              0.133074049468933E+02
             -0.129188139020401E+03
              0.622149834222708E+02
             -0.439687281956138E+02
             -0.162531723090149E+02
             -0.157866789663926E+02
              0.705916729598046E+01
             -0.227537537552189E+02
              0.297034613834385E+02
             -0.519492778021075E+02
              0.366669092388652E+02
              0.369462452682824E+02
              0.168762154567827E+02
              0.999471553535091E+01
              0.197346547322460E+02
              0.617456976948108E+01
              0.310133355485408E+02
             -0.797828736321753E+01
             -0.590092040496955E+02
              0.755558442648760E+01
             -0.151889902521722E+02
             -0.190273733362289E+01
              0.504554496337365E+02
             -0.825357396451911E+02
             -0.155554252601945E+01
              0.552027100918849E+00
              0.993625833277054E+01
              0.317909407939467E+02
             -0.123291079601634E+02
              0.834407496915130E+02
              0.487561673165649E+02
             -0.183334942268402E+02
             -0.960633134702869E+01
              0.105163921865466E+01
              0.768388117752282E+02
             -0.585599441648078E+02
             -0.105592049965427E+03
              0.308483209327733E+02
             -0.162457581122616E+02
             -0.138780281535027E+02
              0.130148001161175E+02
              0.767235726122854E+02
              0.463372964963283E+02
             -0.153147307686836E+02
             -0.501753254416963E+02
             -0.546057712249666E+01
              0.305907126647554E+02
             -0.111126060746642E+02
             -0.754223270066395E+02
             -0.265784246713508E+01
             -0.887717539830074E+02
             -0.474608928915687E+02
              0.766230717216041E+02
             -0.482274185723674E+02
             -0.634853749299901E+02
             -0.513237824610815E+02
             -0.348784255002531E+02
              0.339853237594807E+02
              0.819848485814936E+02
             -0.350200222028838E+01
              0.276053211411339E+02
             -0.183118598848956E+02
             -0.692432049214422E+02
              0.463906355346526E+02
             -0.443759541254750E+02
              0.321650654983682E+02
              0.375948859476073E+02
             -0.651882001077047E+01
              0.390304022822608E+02
              0.437906998040005E+02
              0.100367690602573E+03
             -0.156150829800434E+02
             -0.454297024284842E+02
             -0.611531350744455E+02
             -0.123476101462562E+02
             -0.231706742272189E+02
              0.102851287151206E+03
             -0.447832857052599E+02
              0.105083954492263E+02
              0.974384473905519E+01
             -0.264295451796248E+02
             -0.796450212997131E+02
             -0.697316648006125E+01
              0.977699242265235E+02
              0.932471028773665E+01
              0.810176310634972E+01
             -0.525314005874073E+02
             -0.604313911319282E+02
             -0.558659872061843E+01
              0.499411656840830E+02
             -0.221231072831829E+02
              0.107782604897543E+03
             -0.433900060476351E+02
              0.145935645620509E+02
             -0.224379007619935E+02
             -0.717134082890300E+02
              0.166468571844950E+01
             -0.500585102280729E+02
             -0.759189186039131E+02
              0.609974077828383E+01
              0.236410421136625E+01
              0.513010889889749E+02
              0.186641865667035E+02
             -0.322611562622752E+02
              0.229762780441488E+02
             -0.808502340072731E+02
             -0.521096343854824E+02
              0.899961713554879E+02
              0.142694609699270E+02
             -0.188250552031104E+02
             -0.352043809577757E+02
             -0.266544848065257E+01
             -0.583950356607079E+01
              0.827486893874606E+02
              0.416540519569305E+02
             -0.166242112701239E+02
             -0.122397741614462E+02
             -0.427142425016041E+02
             -0.200780075641349E+02
             -0.669015132251053E+02
              0.458260228346442E+02
              0.543143934215729E+01
              0.144814691895568E+02
              0.155439787171778E+02
             -0.525381401855945E+00
             -0.167863139305701E+02
             -0.316384312343703E+01
             -0.100182085541755E+03
             -0.229417287968892E+02
             -0.758308130442725E+01
             -0.946952475309877E+01
              0.546021451944644E+02
              0.622113883975620E+02
              0.164485028978598E+02
             -0.968705984436233E+02
              0.646430994382422E+02
             -0.214651130948281E+02
             -0.376203952887282E+02
             -0.862362462029501E+02
             -0.386678527641305E+02
              0.562646653653272E+02
              0.243024771335561E+02
              0.509020662290345E+01
              0.291455671118323E+02
             -0.563773450878496E+02
             -0.421213555015710E+02
              0.513765001904238E+02
              0.386488045988082E+02
              0.518125267210332E+02
             -0.131994995975288E+01
              0.679194993603863E+01
              0.568445664003472E+02
              0.960733189652315E+02
             -0.300124698694994E+02
              0.321601405536969E+02
             -0.117030276032481E+02
             -0.411220576563870E+02
             -0.313197420761405E+02
             -0.298996968672449E+02
             -0.131011106007443E+02
             -0.522629154159287E+02
             -0.217126123950894E+02
             -0.140884561910011E+03
              0.368087946786245E+02
              0.206368281150565E+02
             -0.391461118763404E+01
             -0.379147086189988E+02
             -0.204052851205109E+02
             -0.525425222229473E+02
              0.150968731111144E+02
              0.818342877285951E+02
             -0.251933510586113E+02
             -0.162427269064175E+02
              0.237364738183802E+02
             -0.487934724649437E+02
              0.878943627602820E+02
              0.154250538231756E+02
              0.226534324413333E+02
              0.489377039955845E+02
              0.326716635032324E+01
              0.541061764883814E+02
              0.142378250005288E+02
             -0.106649846648384E+02
              0.730503460709124E+01
              0.876890239352633E+00
              0.726388665082699E+02
              0.100704034001360E+02
              0.119724752175189E+02
             -0.129585621795341E+02
              0.131994624723030E+02
             -0.909444308621215E+02
             -0.325110702625304E+02
             -0.456312657454553E+02
              0.484657891915426E+02
             -0.290385256621145E+02
             -0.657651599780928E+02
              0.536972573679438E+02
             -0.122054710560698E+02
              0.439210814770352E+02
             -0.897007666796397E+02
              0.231759789580629E+02
              0.859338210614365E+01
              0.578795839602503E+01
             -0.829551502836244E+01
             -0.900832179650058E+01
              0.478418703954885E+02
              0.201490264285997E+01
             -0.473598613344537E+02
             -0.175503624317174E+02
              0.276664087327682E+02
             -0.117680463629729E+03
             -0.928055639263547E+02
              0.398700977449687E+01
              0.117176429404050E+02
             -0.411598222212776E+02
             -0.388977542215548E+01
              0.111932300731890E+03
              0.306415242435010E+02
             -0.570434541255513E+02
              0.924255174129775E+01
             -0.963926609946392E+01
              0.105042140557076E+02
             -0.336414151763207E+02
              0.194617465059974E+02
              0.284000346986728E+02
             -0.299433187793443E+01
              0.107928179853312E+03
             -0.140321734700624E+02
             -0.315485170711448E+02
              0.142291730881692E+02
              0.465919297958466E+02
             -0.355257510284721E+02
             -0.317277537560732E+01
              0.962486630792801E+02
             -0.468248337963837E+01
              0.620350599782163E+02
              0.135032928975636E+02
             -0.904421467261857E+01
             -0.304958573270054E+02
              0.565807055484054E+02
             -0.513178410357593E+02
             -0.222406653881069E+01
             -0.169684428156965E+02
             -0.404438303165990E+02
              0.184317369898807E+02
              0.238094103754284E+02
              0.116078405563701E+02
              0.736313293322155E+00
             -0.383403282314792E+02
              0.215515369704093E+02
             -0.674749354262315E+01
             -0.246408185400241E+02
             -0.210344624404683E+02
              0.203599396666496E+02
             -0.593284325978902E+01
             -0.348290954018275E+02
             -0.106358302799847E+03
              0.102482392692210E+02
              0.248733638636613E+02
             -0.385944867073443E+02
             -0.210286744491373E+02
              0.804992601648023E+02
              0.645474529589370E+01
              0.309628035962098E+02
              0.385882470985072E+01
              0.320914636317648E+02
              0.644775103485796E+01
             -0.372171469614920E+02
             -0.224070254589711E+01
              0.875085682001134E+01
              0.273075748171958E+02
              0.780778798704634E+02
              0.506587941909995E+02
              0.161415028267754E+00
              0.168230686853178E+02
              0.611752207163006E+02
              0.235214275448575E+02
             -0.751781238325843E+02
             -0.273246587766156E+02
              0.150949199890911E+02
              0.560089512006704E+01
              0.254581612828255E+02
             -0.546964620237509E+02
              0.899904341136110E+01
              0.384508053064382E+02
              0.497238074804033E+02
             -0.434171729377711E+02
             -0.693355756261388E+01
             -0.207099054339125E+01
             -0.133579831309816E+02
             -0.365436468761040E+02
             -0.215042632395638E+02
             -0.194490770813492E+01
              0.789508205129431E+01
              0.420412718138857E+02
             -0.307752476550309E+02
              0.824360524730989E+02
              0.326817613885786E+02
              0.218731520773690E+02
              0.331859398577235E+02
              0.322999930883854E+02
              0.344840177119875E+02
              0.536144698887824E+02
             -0.432902417692176E+02
              0.618150617710119E+02
             -0.111990489836936E+03
              0.306972928613073E+02
             -0.106323956040407E+03
              0.853156914146919E+02
              0.688882386162697E+02
             -0.109757722987514E+02
             -0.492574688658958E+02
             -0.428487519635834E+02
             -0.622619653741266E+02
             -0.627243229425769E+02
              0.550259222112335E+02
              0.404658045388499E+02
              0.236412015638609E+02
              0.373723356464405E+02
              0.401872207644186E+02
             -0.381332397823661E+02
             -0.197654365195874E+02
              0.585058599350794E+02
             -0.115413068936457E+02
              0.550376590867832E+02
              0.697610285865728E+02
             -0.550034059135897E+01
             -0.704596773058743E+02
             -0.979230895522051E+00
             -0.245599701765280E+01
             -0.880865332520477E+01
             -0.176411465526922E+01
             -0.651768240312944E+02
             -0.211121432416676E+02
              0.534594470062694E+01
              0.890986795079397E+01
              0.467706490316729E+02
             -0.396829652881492E+02
              0.656989431217825E+02
             -0.424502459742398E+02
              0.209474511628333E+02
              0.349486218820016E+02
 
 BEEF-vdW xc energy contributions
           1 :   -781.823106541060     
           2 :    718.740476402265     
           3 :   -609.216126556553     
           4 :    479.823648914230     
           5 :   -357.882494307359     
           6 :    263.314210823817     
           7 :   -204.002756943405     
           8 :    175.644594390279     
           9 :   -165.694699122588     
          10 :    159.505493545651     
          11 :   -146.136431821562     
          12 :    121.643680395520     
          13 :   -88.9931771761295     
          14 :    55.1901785079207     
          15 :   -27.2880542002940     
          16 :    9.09711192532677     
          17 :   0.122724076496411     
          18 :   -4.72638182003971     
          19 :    10.2113078483013     
          20 :   -20.5118394558547     
          21 :    36.2998077052583     
          22 :   -54.9634550095947     
          23 :    72.1068283672554     
          24 :   -83.7453381861998     
          25 :    88.1197624255043     
          26 :   -86.3337729344235     
          27 :    81.6182530008531     
          28 :   -77.6668415475054     
          29 :    76.8787214129892     
          30 :   -79.3424821050268     
          31 :   -85.7053272151037     
          32 :   -65.8057988936187     

     Writing output data file ./pwscf.save/
 
     init_run     :    298.39s CPU    302.72s WALL (       1 calls)
     electrons    :  11977.30s CPU  12097.71s WALL (       1 calls)
     forces       :     94.05s CPU     95.20s WALL (       1 calls)

     Called by init_run:
     wfcinit      :    251.32s CPU    254.71s WALL (       1 calls)
     potinit      :     44.26s CPU     44.59s WALL (       1 calls)
     hinit0       :      1.09s CPU      1.12s WALL (       1 calls)

     Called by electrons:
     c_bands      :  10115.06s CPU  10209.72s WALL (      20 calls)
     sum_band     :   1283.54s CPU   1294.79s WALL (      20 calls)
     v_of_rho     :    102.33s CPU    106.38s WALL (      20 calls)
     newd         :     28.66s CPU     39.31s WALL (      20 calls)
     PAW_pot      :    138.30s CPU    138.30s WALL (      20 calls)
     mix_rho      :    354.33s CPU    354.96s WALL (      20 calls)
     vdW_kernel   :     33.60s CPU     33.60s WALL (       1 calls)

     Called by c_bands:
     init_us_2    :     73.90s CPU     74.17s WALL (     546 calls)
     cegterg      :   9361.87s CPU   9456.22s WALL (     260 calls)

     Called by *egterg:
     cdiaghg      :     97.96s CPU     97.99s WALL (    1370 calls)
     h_psi        :   5795.04s CPU   5827.74s WALL (    1396 calls)
     s_psi        :   1038.09s CPU   1038.10s WALL (    1396 calls)
     g_psi        :     17.22s CPU     17.23s WALL (    1123 calls)

     Called by h_psi:
     h_psi:calbec :    986.96s CPU    987.08s WALL (    1396 calls)
     vloc_psi     :   3742.83s CPU   3743.79s WALL (    1396 calls)
     add_vuspsi   :   1037.96s CPU   1038.08s WALL (    1396 calls)

     General routines
     calbec       :   1431.93s CPU   1432.09s WALL (    1708 calls)
     fft          :     44.56s CPU     44.57s WALL (    3220 calls)
     ffts         :    111.20s CPU    111.23s WALL (    9028 calls)
     fftw         :   3859.90s CPU   3860.37s WALL (  348092 calls)
 
     Parallel routines
 
     PWSCF        :      3h27m CPU      3h30m WALL

 
   This run was terminated on:  13:47: 9   4Jan2023            

=------------------------------------------------------------------------------=
   JOB DONE.
=------------------------------------------------------------------------------=
