
     Program PWSCF v.6.8 starts on 23Jan2023 at 15:25:34 

     This program is part of the open-source Quantum ESPRESSO suite
     for quantum simulation of materials; please cite
         "P. Giannozzi et al., J. Phys.:Condens. Matter 21 395502 (2009);
         "P. Giannozzi et al., J. Phys.:Condens. Matter 29 465901 (2017);
         "P. Giannozzi et al., J. Chem. Phys. 152 154105 (2020);
          URL http://www.quantum-espresso.org", 
     in publications or presentations arising from this work. More details at
     http://www.quantum-espresso.org/quote

     Parallel version (MPI), running on     1 processors

     MPI processes distributed on     1 nodes
     169890 MiB available memory on the printing compute node when the environment starts
 
     Reading input from chch2ch-bi-ensemble.in
Warning: card &CELL ignored
Warning: card / ignored

     Current dimensions of program PWSCF are:
     Max number of different atomic species (ntypx) = 10
     Max number of k-points (npk) =  40000
     Max angular momentum in pseudopotentials (lmaxx) =  4
     file Pt.pbe-n-kjpaw_psl.1.0.0.UPF: wavefunction(s)  6S 5D renormalized
     file C.pbe-n-kjpaw_psl.1.0.0.UPF: wavefunction(s)  2S 2P renormalized
     file H.pbe-kjpaw_psl.1.0.0.UPF: wavefunction(s)  1S renormalized

     **************************************************************************
     Initializing libbeef V0.1.2 with the BEEF-vdW functional.
     Citation: Wellendorff et al., PRB 85, 235149 (2012).
     **************************************************************************


     IMPORTANT: XC functional enforced from input :
     Exchange-correlation= BEEF-VDW
                           (   1   4  43  14   2   0   0)
     Any further DFT definition will be discarded
     Please, verify this is what you really want


     Subspace diagonalization in iterative solution of the eigenvalue problem:
     a serial algorithm will be used

 
     G-vector sticks info
     --------------------
     sticks:   dense  smooth     PW     G-vecs:    dense   smooth      PW
     Sum        4267    4267   1159               735433   735433  103629
 
     Using Slab Decomposition
 


     bravais-lattice index     =            0
     lattice parameter (alat)  =      16.0349  a.u.
     unit-cell volume          =   11704.3748 (a.u.)^3
     number of atoms/cell      =           43
     number of atomic types    =            3
     number of electrons       =       376.00
     number of Kohn-Sham states=          226
     kinetic-energy cutoff     =      60.0000  Ry
     charge density cutoff     =     240.0000  Ry
     scf convergence threshold =      1.0E-06
     mixing beta               =       0.7000
     number of iterations used =            8  local-TF  mixing
     Exchange-correlation= BEEF-VDW
                           (   1   4  43  14   2   0   0)

     celldm(1)=  16.034858  celldm(2)=   0.000000  celldm(3)=   0.000000
     celldm(4)=   0.000000  celldm(5)=   0.000000  celldm(6)=   0.000000

     crystal axes: (cart. coord. in units of alat)
               a(1) = (   1.000000   0.000000   0.000000 )  
               a(2) = (   0.500000   0.866025   0.000000 )  
               a(3) = (   0.000000   0.000000   3.278100 )  

     reciprocal axes: (cart. coord. in units 2 pi/alat)
               b(1) = (  1.000000 -0.577350  0.000000 )  
               b(2) = (  0.000000  1.154701  0.000000 )  
               b(3) = (  0.000000  0.000000  0.305055 )  


     PseudoPot. # 1 for Pt read from file:
     /users/bkreitz1/quantum-espresso/potentials/Pt.pbe-n-kjpaw_psl.1.0.0.UPF
     MD5 check sum: 04dc8a03c51ece93fc7b5889c2958091
     Pseudo is Projector augmented-wave + core cor, Zval = 10.0
     Generated using 'atomic' code by A. Dal Corso  v.6.7MaX
     Shape of augmentation charge: PSQ
     Using radial grid of 1277 points,  6 beta functions with: 
                l(1) =   0
                l(2) =   0
                l(3) =   1
                l(4) =   1
                l(5) =   2
                l(6) =   2
     Q(r) pseudized with 0 coefficients 


     PseudoPot. # 2 for C  read from file:
     /users/bkreitz1/quantum-espresso/potentials/C.pbe-n-kjpaw_psl.1.0.0.UPF
     MD5 check sum: a169b0ebad56f5ec0d79c4633f80bf22
     Pseudo is Projector augmented-wave + core cor, Zval =  4.0
     Generated using 'atomic' code by A. Dal Corso  v.6.7MaX
     Shape of augmentation charge: PSQ
     Using radial grid of 1073 points,  4 beta functions with: 
                l(1) =   0
                l(2) =   0
                l(3) =   1
                l(4) =   1
     Q(r) pseudized with 0 coefficients 


     PseudoPot. # 3 for H  read from file:
     /users/bkreitz1/quantum-espresso/potentials/H.pbe-kjpaw_psl.1.0.0.UPF
     MD5 check sum: ae98473e6dc62675f0d0baffdab24f65
     Pseudo is Projector augmented-wave, Zval =  1.0
     Generated using 'atomic' code by A. Dal Corso  v.6.7MaX
     Shape of augmentation charge: PSQ
     Using radial grid of  929 points,  2 beta functions with: 
                l(1) =   0
                l(2) =   0
     Q(r) pseudized with 0 coefficients 


     atomic species   valence    mass     pseudopotential
        Pt            10.00   195.08400     Pt( 1.00)
        C              4.00    12.01100     C ( 1.00)
        H              1.00     1.00800     H ( 1.00)

     No symmetry found



   Cartesian axes

     site n.     atom                  positions (alat units)
         1           Pt  tau(   1) = (   0.0000000   0.0000000   1.0017346  )
         2           Pt  tau(   2) = (   0.3333333   0.0000000   1.0017346  )
         3           Pt  tau(   3) = (   0.6666667   0.0000000   1.0017346  )
         4           Pt  tau(   4) = (   0.1666667   0.2886751   1.0017346  )
         5           Pt  tau(   5) = (   0.5000000   0.2886751   1.0017346  )
         6           Pt  tau(   6) = (   0.8333333   0.2886751   1.0017346  )
         7           Pt  tau(   7) = (   0.3333333   0.5773503   1.0017346  )
         8           Pt  tau(   8) = (   0.6666667   0.5773503   1.0017346  )
         9           Pt  tau(   9) = (   1.0000000   0.5773503   1.0017346  )
        10           Pt  tau(  10) = (   0.1666667   0.0962250   1.2739001  )
        11           Pt  tau(  11) = (   0.5000000   0.0962250   1.2739001  )
        12           Pt  tau(  12) = (   0.8333333   0.0962250   1.2739001  )
        13           Pt  tau(  13) = (   0.3333333   0.3849002   1.2739001  )
        14           Pt  tau(  14) = (   0.6666667   0.3849002   1.2739001  )
        15           Pt  tau(  15) = (   1.0000000   0.3849002   1.2739001  )
        16           Pt  tau(  16) = (   0.5000000   0.6735753   1.2739001  )
        17           Pt  tau(  17) = (   0.8333333   0.6735753   1.2739001  )
        18           Pt  tau(  18) = (   1.1666667   0.6735753   1.2739001  )
        19           Pt  tau(  19) = (  -0.0023595   0.1962192   1.5491156  )
        20           Pt  tau(  20) = (   0.3359588   0.1966184   1.5490149  )
        21           Pt  tau(  21) = (   0.6667052   0.1942428   1.5487127  )
        22           Pt  tau(  22) = (   0.1664626   0.4821707   1.5428080  )
        23           Pt  tau(  23) = (   0.4998517   0.4811620   1.5423767  )
        24           Pt  tau(  24) = (   0.8335975   0.4821697   1.5417696  )
        25           Pt  tau(  25) = (   0.3316099   0.7729269   1.5472513  )
        26           Pt  tau(  26) = (   0.6663805   0.7747900   1.5388261  )
        27           Pt  tau(  27) = (   1.0025123   0.7733739   1.5482154  )
        28           Pt  tau(  28) = (   0.0015310   0.0021138   1.8208743  )
        29           Pt  tau(  29) = (   0.3293918   0.0016857   1.8180845  )
        30           Pt  tau(  30) = (   0.6644583  -0.0148211   1.8315749  )
        31           Pt  tau(  31) = (   0.1666242   0.2891292   1.8205478  )
        32           Pt  tau(  32) = (   0.5029064   0.2878461   1.8381149  )
        33           Pt  tau(  33) = (   0.8306551   0.2926493   1.8337599  )
        34           Pt  tau(  34) = (   0.3354270   0.5711195   1.8151003  )
        35           Pt  tau(  35) = (   0.6654430   0.5875157   1.8085686  )
        36           Pt  tau(  36) = (   0.9966378   0.5727680   1.8166285  )
        37           C   tau(  37) = (   0.6990035   0.0087512   2.0501695  )
        38           C   tau(  38) = (   0.6813360   0.1635100   2.1283854  )
        39           C   tau(  39) = (   0.6687706   0.3015702   2.0157093  )
        40           H   tau(  40) = (   0.7268284  -0.0922209   2.1247361  )
        41           H   tau(  41) = (   0.5754574   0.1571084   2.2044210  )
        42           H   tau(  42) = (   0.7800475   0.1823536   2.2110951  )
        43           H   tau(  43) = (   0.6654407   0.4140411   2.0793911  )

     number of k points=    13  Marzari-Vanderbilt smearing, width (Ry)=  0.0200
                       cart. coord. in units 2pi/alat
        k(    1) = (   0.0000000   0.0000000   0.0000000), wk =   0.0800000
        k(    2) = (   0.0000000   0.2309401   0.0000000), wk =   0.1600000
        k(    3) = (   0.0000000   0.4618802   0.0000000), wk =   0.1600000
        k(    4) = (   0.2000000  -0.1154701   0.0000000), wk =   0.1600000
        k(    5) = (   0.2000000   0.1154701   0.0000000), wk =   0.1600000
        k(    6) = (   0.2000000   0.3464102   0.0000000), wk =   0.1600000
        k(    7) = (   0.2000000  -0.5773503   0.0000000), wk =   0.1600000
        k(    8) = (   0.2000000  -0.3464102   0.0000000), wk =   0.1600000
        k(    9) = (   0.4000000  -0.2309401   0.0000000), wk =   0.1600000
        k(   10) = (   0.4000000  -0.0000000   0.0000000), wk =   0.1600000
        k(   11) = (   0.4000000   0.2309401   0.0000000), wk =   0.1600000
        k(   12) = (   0.4000000  -0.6928203   0.0000000), wk =   0.1600000
        k(   13) = (   0.4000000  -0.4618802   0.0000000), wk =   0.1600000

     Dense  grid:   735433 G-vectors     FFT dimensions: (  80,  80, 270)

     Estimated max dynamical RAM per process >       8.93 GB

     Check: negative core charge=   -0.000002

     Initial potential from superposition of free atoms

     starting charge  375.99373, renormalised to  376.00000

     negative rho (up, down):  1.158E-02 0.000E+00


     %%%%%%%%%%%%%%%%%%%%%%%%%%%%%%%%%%%%%%%%%%%%%%%%%%%%%%%%%%%%%%%%%%%%%%%%
     %                                                                      %
     % You are using vdW-DF, which was implemented by the Thonhauser group. %
     % Please cite the following two papers that made this development      %
     % possible and the two reviews that describe the various versions:     %
     %                                                                      %
     %   T. Thonhauser et al., PRL 115, 136402 (2015).                      %
     %   T. Thonhauser et al., PRB 76, 125112 (2007).                       %
     %   K. Berland et al., Rep. Prog. Phys. 78, 066501 (2015).             %
     %   D.C. Langreth et al., J. Phys.: Condens. Matter 21, 084203 (2009). %
     %                                                                      %
     %                                                                      %
     % If you are calculating the stress with vdW-DF, please also cite:     %
     %                                                                      %
     %   R. Sabatini et al., J. Phys.: Condens. Matter 24, 424209 (2012).   %
     %                                                                      %
     %%%%%%%%%%%%%%%%%%%%%%%%%%%%%%%%%%%%%%%%%%%%%%%%%%%%%%%%%%%%%%%%%%%%%%%%


     Starting wfcs are  340 randomized atomic wfcs
     Checking if some PAW data can be deallocated... 

     total cpu time spent up to now is      354.2 secs

     Self-consistent Calculation

     iteration #  1     ecut=    60.00 Ry     beta= 0.70
     Davidson diagonalization with overlap
     ethr =  1.00E-02,  avg # of iterations =  2.2

     negative rho (up, down):  1.347E-02 0.000E+00

     total cpu time spent up to now is     1005.5 secs

     total energy              =  -27815.25289141 Ry
     estimated scf accuracy    <       4.27724979 Ry

     iteration #  2     ecut=    60.00 Ry     beta= 0.70
     Davidson diagonalization with overlap
     ethr =  1.14E-03,  avg # of iterations =  2.2

     negative rho (up, down):  1.130E-02 0.000E+00

     total cpu time spent up to now is     1677.7 secs

     total energy              =  -27815.86655771 Ry
     estimated scf accuracy    <       1.34529663 Ry

     iteration #  3     ecut=    60.00 Ry     beta= 0.70
     Davidson diagonalization with overlap
     ethr =  3.58E-04,  avg # of iterations =  7.8

     negative rho (up, down):  9.193E-03 0.000E+00

     total cpu time spent up to now is     2384.5 secs

     total energy              =  -27815.98538983 Ry
     estimated scf accuracy    <       0.65903477 Ry

     iteration #  4     ecut=    60.00 Ry     beta= 0.70
     Davidson diagonalization with overlap
     ethr =  1.75E-04,  avg # of iterations =  6.5

     negative rho (up, down):  5.895E-03 0.000E+00

     total cpu time spent up to now is     3080.6 secs

     total energy              =  -27816.03171894 Ry
     estimated scf accuracy    <       0.14236406 Ry

     iteration #  5     ecut=    60.00 Ry     beta= 0.70
     Davidson diagonalization with overlap
     c_bands:  1 eigenvalues not converged
     ethr =  3.79E-05,  avg # of iterations = 13.6

     negative rho (up, down):  4.359E-03 0.000E+00

     total cpu time spent up to now is     4128.2 secs

     total energy              =  -27816.06900749 Ry
     estimated scf accuracy    <       0.17184729 Ry

     iteration #  6     ecut=    60.00 Ry     beta= 0.70
     Davidson diagonalization with overlap
     ethr =  3.79E-05,  avg # of iterations =  1.7

     negative rho (up, down):  2.904E-03 0.000E+00

     total cpu time spent up to now is     4727.7 secs

     total energy              =  -27816.07299247 Ry
     estimated scf accuracy    <       0.02624713 Ry

     iteration #  7     ecut=    60.00 Ry     beta= 0.70
     Davidson diagonalization with overlap
     c_bands:  2 eigenvalues not converged
     c_bands:  2 eigenvalues not converged
     c_bands:  2 eigenvalues not converged
     c_bands:  1 eigenvalues not converged
     ethr =  6.98E-06,  avg # of iterations = 14.8

     negative rho (up, down):  2.612E-03 0.000E+00

     total cpu time spent up to now is     5558.0 secs

     total energy              =  -27816.07526519 Ry
     estimated scf accuracy    <       0.01440742 Ry

     iteration #  8     ecut=    60.00 Ry     beta= 0.70
     Davidson diagonalization with overlap
     ethr =  3.83E-06,  avg # of iterations =  6.4

     negative rho (up, down):  2.489E-03 0.000E+00

     total cpu time spent up to now is     6206.6 secs

     total energy              =  -27816.07579165 Ry
     estimated scf accuracy    <       0.00704140 Ry

     iteration #  9     ecut=    60.00 Ry     beta= 0.70
     Davidson diagonalization with overlap
     c_bands:  1 eigenvalues not converged
     ethr =  1.87E-06,  avg # of iterations =  8.3

     negative rho (up, down):  2.743E-03 0.000E+00

     total cpu time spent up to now is     6900.8 secs

     total energy              =  -27816.07597738 Ry
     estimated scf accuracy    <       0.00468173 Ry

     iteration # 10     ecut=    60.00 Ry     beta= 0.70
     Davidson diagonalization with overlap
     c_bands:  1 eigenvalues not converged
     c_bands:  1 eigenvalues not converged
     ethr =  1.25E-06,  avg # of iterations =  8.9

     negative rho (up, down):  4.657E-03 0.000E+00

     total cpu time spent up to now is     7609.2 secs

     total energy              =  -27816.07601382 Ry
     estimated scf accuracy    <       0.00274003 Ry

     iteration # 11     ecut=    60.00 Ry     beta= 0.70
     Davidson diagonalization with overlap
     c_bands:  1 eigenvalues not converged
     ethr =  7.29E-07,  avg # of iterations = 12.2

     negative rho (up, down):  6.216E-03 0.000E+00

     total cpu time spent up to now is     8358.8 secs

     total energy              =  -27816.07617542 Ry
     estimated scf accuracy    <       0.00096181 Ry

     iteration # 12     ecut=    60.00 Ry     beta= 0.70
     Davidson diagonalization with overlap
     ethr =  2.56E-07,  avg # of iterations =  3.1

     negative rho (up, down):  8.370E-03 0.000E+00

     total cpu time spent up to now is     9055.0 secs

     total energy              =  -27816.07629756 Ry
     estimated scf accuracy    <       0.00053749 Ry

     iteration # 13     ecut=    60.00 Ry     beta= 0.70
     Davidson diagonalization with overlap
     ethr =  1.43E-07,  avg # of iterations =  3.5

     negative rho (up, down):  8.718E-03 0.000E+00

     total cpu time spent up to now is     9741.1 secs

     total energy              =  -27816.07643737 Ry
     estimated scf accuracy    <       0.00036017 Ry

     iteration # 14     ecut=    60.00 Ry     beta= 0.70
     Davidson diagonalization with overlap
     ethr =  9.58E-08,  avg # of iterations =  2.0

     negative rho (up, down):  8.998E-03 0.000E+00

     total cpu time spent up to now is    10371.5 secs

     total energy              =  -27816.07650386 Ry
     estimated scf accuracy    <       0.00029943 Ry

     iteration # 15     ecut=    60.00 Ry     beta= 0.70
     Davidson diagonalization with overlap
     c_bands:  1 eigenvalues not converged
     ethr =  7.96E-08,  avg # of iterations =  6.2

     negative rho (up, down):  1.039E-02 0.000E+00

     total cpu time spent up to now is    11037.0 secs

     total energy              =  -27816.07651070 Ry
     estimated scf accuracy    <       0.00011160 Ry

     iteration # 16     ecut=    60.00 Ry     beta= 0.70
     Davidson diagonalization with overlap
     ethr =  2.97E-08,  avg # of iterations =  2.3

     negative rho (up, down):  1.170E-02 0.000E+00

     total cpu time spent up to now is    11705.4 secs

     total energy              =  -27816.07651416 Ry
     estimated scf accuracy    <       0.00004973 Ry

     iteration # 17     ecut=    60.00 Ry     beta= 0.70
     Davidson diagonalization with overlap
     ethr =  1.32E-08,  avg # of iterations =  3.7

     negative rho (up, down):  1.239E-02 0.000E+00

     total cpu time spent up to now is    12422.3 secs

     total energy              =  -27816.07651737 Ry
     estimated scf accuracy    <       0.00005382 Ry

     iteration # 18     ecut=    60.00 Ry     beta= 0.70
     Davidson diagonalization with overlap
     ethr =  1.32E-08,  avg # of iterations =  1.1

     negative rho (up, down):  1.288E-02 0.000E+00

     total cpu time spent up to now is    13020.2 secs

     total energy              =  -27816.07651787 Ry
     estimated scf accuracy    <       0.00001079 Ry

     iteration # 19     ecut=    60.00 Ry     beta= 0.70
     Davidson diagonalization with overlap
     ethr =  2.87E-09,  avg # of iterations =  4.3

     negative rho (up, down):  1.291E-02 0.000E+00

     total cpu time spent up to now is    13916.9 secs

     total energy              =  -27816.07652192 Ry
     estimated scf accuracy    <       0.00000420 Ry

     iteration # 20     ecut=    60.00 Ry     beta= 0.70
     Davidson diagonalization with overlap
     ethr =  1.12E-09,  avg # of iterations =  2.0

     negative rho (up, down):  1.300E-02 0.000E+00

     total cpu time spent up to now is    14572.9 secs

     total energy              =  -27816.07652226 Ry
     estimated scf accuracy    <       0.00000386 Ry

     iteration # 21     ecut=    60.00 Ry     beta= 0.70
     Davidson diagonalization with overlap
     ethr =  1.03E-09,  avg # of iterations =  2.0

     negative rho (up, down):  1.293E-02 0.000E+00

     total cpu time spent up to now is    15162.9 secs

     End of self-consistent calculation

          k = 0.0000 0.0000 0.0000 ( 91953 PWs)   bands (ev):

   -13.9448 -10.5894  -8.2732  -6.7369  -5.9320  -5.4755  -5.0091  -4.8177
    -4.4378  -4.3850  -4.3566  -4.3404  -4.3386  -4.3248  -4.3107  -4.1344
    -3.8937  -3.8212  -3.8156  -3.8043  -3.7926  -3.7552  -3.6095  -3.5329
    -3.4008  -3.3683  -3.3603  -3.3397  -3.2928  -3.1755  -3.1539  -3.1339
    -3.1127  -3.0962  -3.0316  -3.0035  -2.9948  -2.9488  -2.9241  -2.9092
    -2.8867  -2.8628  -2.8413  -2.8360  -2.8043  -2.7925  -2.7265  -2.5192
    -2.4582  -2.3423  -2.3002  -2.2789  -2.2739  -2.2399  -2.2229  -2.2157
    -2.1812  -2.0584  -2.0185  -2.0025  -1.9887  -1.8657  -1.7601  -1.6177
    -1.5299  -1.4937  -1.4614  -1.4492  -1.4428  -1.4061  -1.3569  -1.2999
    -1.2881  -1.2750  -1.2688  -1.2640  -1.2484  -1.2466  -1.2345  -1.2166
    -1.2002  -1.1813  -1.1659  -1.1412  -1.1342  -1.0950  -1.0793  -1.0668
    -1.0346  -1.0124  -0.9470  -0.9075  -0.8949  -0.8834  -0.8486  -0.8395
    -0.8157  -0.8090  -0.8035  -0.7644  -0.7464  -0.7404  -0.7104  -0.6340
    -0.6244  -0.6226  -0.5926  -0.5826  -0.5814  -0.5486  -0.4947  -0.4362
    -0.4248  -0.4070  -0.2774  -0.2010  -0.1403  -0.0726  -0.0304   0.0057
     0.0454   0.0575   0.0751   0.0784   0.0873   0.1852   0.1920   0.2344
     0.2477   0.2863   0.2961   0.3205   0.3489   0.3629   0.3715   0.3930
     0.4382   0.5489   0.5612   0.5673   0.5912   0.7054   0.7305   0.7746
     0.7935   0.8098   0.8108   0.8484   0.8695   0.9039   1.0333   1.0439
     1.0534   1.0604   1.0973   1.1225   1.1284   1.1546   1.1844   1.2048
     1.2301   1.2486   1.2546   1.2582   1.2630   1.2739   1.2841   1.2926
     1.2992   1.3098   1.3547   1.3670   1.3751   1.4074   1.4267   1.4800
     1.4851   1.4939   1.5201   1.5296   1.5598   1.5775   1.6116   1.6141
     1.6245   1.6329   1.6388   1.6653   1.6819   1.6987   1.7298   1.7472
     1.7732   1.7775   1.8866   1.9230   1.9983   2.0372   2.0394   2.0543
     2.0601   2.0892   2.2934   2.4048   2.5468   2.5912   2.8337   2.9053
     2.9608   3.3023   3.8726   3.9628   4.6775   5.1779   5.2321   5.2403
     5.4579   5.7451   5.9284   6.4293   6.6460   6.8375   6.8657   6.8763
     6.9036   6.9215

          k = 0.0000 0.2309 0.0000 ( 91816 PWs)   bands (ev):

   -13.9446 -10.5905  -8.2660  -6.5967  -5.9295  -5.3468  -5.0094  -4.9206
    -4.6946  -4.4536  -4.4365  -4.2711  -4.2186  -4.1378  -4.1003  -4.0646
    -3.9075  -3.8571  -3.7841  -3.7515  -3.7363  -3.7216  -3.6346  -3.5133
    -3.4009  -3.3382  -3.3181  -3.2623  -3.2402  -3.2183  -3.1954  -3.1703
    -3.1373  -3.1176  -3.0849  -3.0090  -2.9934  -2.9743  -2.9341  -2.9137
    -2.9106  -2.8299  -2.7566  -2.7003  -2.6824  -2.6593  -2.6317  -2.5175
    -2.4850  -2.4368  -2.3980  -2.3817  -2.3354  -2.2955  -2.2044  -2.1946
    -2.0782  -2.0574  -2.0243  -2.0146  -1.9430  -1.8984  -1.7998  -1.7173
    -1.6896  -1.6243  -1.5968  -1.5893  -1.5533  -1.5001  -1.4873  -1.4535
    -1.4407  -1.4105  -1.3901  -1.3450  -1.3106  -1.2859  -1.2718  -1.2475
    -1.2080  -1.1651  -1.1587  -1.1215  -1.0974  -1.0807  -1.0407  -1.0263
    -1.0131  -0.9659  -0.9524  -0.9181  -0.9109  -0.8944  -0.8549  -0.8442
    -0.8297  -0.8180  -0.7766  -0.7530  -0.7404  -0.7313  -0.7101  -0.6747
    -0.6636  -0.6487  -0.6410  -0.6141  -0.5906  -0.5661  -0.5272  -0.5120
    -0.4495  -0.4051  -0.3623  -0.3511  -0.3412  -0.3383  -0.3288  -0.3123
    -0.1155  -0.0964  -0.0140   0.0098   0.0263   0.0503   0.0946   0.1105
     0.1450   0.1537   0.2080   0.3214   0.3552   0.3879   0.4123   0.4465
     0.4620   0.4908   0.5026   0.5321   0.5609   0.5900   0.6420   0.6561
     0.6907   0.7055   0.7873   0.8179   0.8414   0.8552   0.8825   0.8922
     0.9590   0.9692   1.0092   1.0437   1.0669   1.0814   1.1084   1.1525
     1.1788   1.1924   1.2418   1.2690   1.3040   1.3210   1.3500   1.3792
     1.4157   1.4339   1.4611   1.5015   1.5620   1.5763   1.5830   1.5990
     1.6451   1.6537   1.6770   1.6801   1.7114   1.7386   1.7512   1.7813
     1.7877   1.8785   1.9092   1.9167   1.9445   1.9610   1.9764   2.0108
     2.0152   2.0411   2.0577   2.0667   2.1462   2.1716   2.1959   2.2583
     2.3284   2.3429   2.3805   2.4935   2.6035   2.7887   2.9643   3.4414
     3.4620   3.5746   3.9599   4.0042   4.6032   4.8631   5.2284   5.5423
     5.6806   5.7127   5.8240   6.0322   6.1529   6.5149   6.5865   6.6415
     6.7669   6.9047

          k = 0.0000 0.4619 0.0000 ( 91870 PWs)   bands (ev):

   -13.9444 -10.5922  -8.2547  -6.1961  -5.9254  -5.5533  -5.0075  -4.9986
    -4.6935  -4.4903  -4.4738  -4.3309  -4.0766  -3.9743  -3.9115  -3.8457
    -3.8109  -3.7614  -3.6748  -3.6528  -3.6114  -3.5678  -3.5488  -3.5333
    -3.4804  -3.4176  -3.3820  -3.3524  -3.3320  -3.3097  -3.2670  -3.2398
    -3.1937  -3.1371  -3.0086  -2.9659  -2.9421  -2.9310  -2.9121  -2.8860
    -2.7504  -2.7048  -2.6958  -2.6750  -2.6737  -2.6364  -2.5678  -2.5304
    -2.4704  -2.4094  -2.3904  -2.3536  -2.3183  -2.2675  -2.2392  -2.2000
    -2.1916  -2.1605  -2.0673  -2.0472  -2.0082  -1.9762  -1.9221  -1.8606
    -1.8369  -1.8046  -1.7737  -1.7589  -1.7302  -1.6183  -1.6006  -1.5825
    -1.5459  -1.5236  -1.4842  -1.4516  -1.4288  -1.4152  -1.3635  -1.3052
    -1.2908  -1.2403  -1.2370  -1.1981  -1.1787  -1.1507  -1.1230  -1.0909
    -1.0872  -1.0614  -1.0561  -1.0393  -1.0013  -0.9904  -0.9550  -0.9030
    -0.8852  -0.8775  -0.8602  -0.8412  -0.8092  -0.7757  -0.7263  -0.7078
    -0.6770  -0.6451  -0.6412  -0.6139  -0.5896  -0.5587  -0.4967  -0.4638
    -0.4325  -0.4183  -0.3872  -0.3590  -0.3448  -0.2961  -0.2149  -0.1635
    -0.1529  -0.1006  -0.0865  -0.0631  -0.0281  -0.0177   0.0300   0.0549
     0.0592   0.1038   0.1236   0.1532   0.1777   0.1916   0.2189   0.2377
     0.3011   0.3360   0.3421   0.3732   0.4704   0.4809   0.5299   0.5487
     0.6188   0.6393   0.6988   0.7612   0.7800   0.8282   0.8370   0.8947
     0.9234   0.9252   0.9671   0.9795   1.0265   1.0554   1.0862   1.1126
     1.1761   1.1862   1.2088   1.2428   1.2496   1.2805   1.3338   1.4143
     1.4592   1.4702   1.5170   1.5648   1.5796   1.6237   1.6268   1.6800
     1.6982   1.7658   1.7844   1.7993   1.8043   1.8737   1.8926   1.9246
     1.9446   1.9681   1.9718   2.0059   2.0380   2.1506   2.1676   2.1957
     2.2186   2.2245   2.3151   2.4559   2.4986   2.5582   2.6827   2.8090
     2.9050   3.1940   3.2923   3.3107   3.5598   3.6467   3.7348   3.8902
     3.9942   4.3187   4.4865   4.5058   4.5416   4.6141   4.8205   4.9316
     5.1554   5.2612   5.2920   5.5640   5.7688   5.9383   6.2756   6.3477
     6.5125   6.8502

          k = 0.2000-0.1155 0.0000 ( 91816 PWs)   bands (ev):

   -13.9446 -10.5898  -8.2665  -6.5956  -5.9292  -5.3461  -5.0171  -4.8756
    -4.7347  -4.4605  -4.4256  -4.2586  -4.2107  -4.1388  -4.1085  -4.0272
    -3.9531  -3.8799  -3.8257  -3.7393  -3.7297  -3.7028  -3.5831  -3.4975
    -3.4088  -3.3402  -3.3185  -3.3011  -3.2513  -3.2219  -3.1987  -3.1672
    -3.1208  -3.0936  -3.0540  -3.0285  -3.0069  -2.9941  -2.9406  -2.9194
    -2.9121  -2.8421  -2.7856  -2.7300  -2.6894  -2.6679  -2.6244  -2.5456
    -2.4750  -2.3953  -2.3862  -2.3428  -2.3225  -2.2951  -2.2111  -2.1551
    -2.1131  -2.0767  -2.0418  -2.0118  -1.9671  -1.8936  -1.7989  -1.7142
    -1.6621  -1.6372  -1.6074  -1.5807  -1.5449  -1.5264  -1.4943  -1.4514
    -1.4317  -1.4177  -1.3695  -1.3371  -1.3269  -1.3015  -1.2687  -1.2350
    -1.1867  -1.1712  -1.1592  -1.1447  -1.1038  -1.0740  -1.0620  -1.0336
    -1.0134  -0.9906  -0.9650  -0.9423  -0.9217  -0.9017  -0.8734  -0.8473
    -0.8268  -0.8040  -0.7755  -0.7589  -0.7182  -0.7071  -0.7022  -0.6814
    -0.6469  -0.6349  -0.6205  -0.5890  -0.5701  -0.5413  -0.5136  -0.4794
    -0.4395  -0.4272  -0.4014  -0.3586  -0.3379  -0.3314  -0.3214  -0.2711
    -0.1365  -0.0732  -0.0476   0.0100   0.0350   0.0699   0.0903   0.1244
     0.1396   0.2334   0.2621   0.3015   0.3413   0.3786   0.4123   0.4411
     0.4825   0.4937   0.5115   0.5354   0.5521   0.6066   0.6360   0.6551
     0.6939   0.7077   0.7641   0.8046   0.8352   0.8574   0.8730   0.9028
     0.9351   0.9857   1.0046   1.0437   1.0646   1.0804   1.1279   1.1507
     1.1878   1.2141   1.2360   1.2620   1.2923   1.3112   1.3598   1.3730
     1.3991   1.4316   1.4758   1.4879   1.5252   1.5581   1.5831   1.6045
     1.6287   1.6429   1.6648   1.6952   1.7095   1.7265   1.7554   1.7729
     1.7808   1.8728   1.8922   1.9162   1.9361   1.9689   1.9855   2.0083
     2.0245   2.0410   2.0580   2.0797   2.1456   2.1663   2.1881   2.2306
     2.3039   2.3310   2.3573   2.5279   2.5781   2.9050   3.0251   3.2601
     3.4776   3.6120   3.8557   4.1092   4.6364   4.8956   5.2410   5.4526
     5.6506   5.7140   5.8014   6.0087   6.2006   6.5425   6.6143   6.6696
     6.7222   6.9267

          k = 0.2000 0.1155 0.0000 ( 91816 PWs)   bands (ev):

   -13.9446 -10.5895  -8.2673  -6.5956  -5.9289  -5.3463  -5.0218  -4.8622
    -4.7402  -4.4620  -4.4208  -4.2586  -4.2089  -4.1532  -4.1050  -4.0214
    -3.9518  -3.8832  -3.8100  -3.7528  -3.7386  -3.7104  -3.5990  -3.4983
    -3.3816  -3.3342  -3.3218  -3.2907  -3.2612  -3.2254  -3.2006  -3.1677
    -3.1146  -3.0949  -3.0520  -3.0312  -3.0084  -2.9783  -2.9400  -2.9214
    -2.9153  -2.8593  -2.7884  -2.7291  -2.6826  -2.6645  -2.6154  -2.5499
    -2.4620  -2.4032  -2.3754  -2.3380  -2.3266  -2.2978  -2.2049  -2.1599
    -2.1320  -2.0887  -2.0376  -2.0131  -1.9712  -1.8909  -1.7897  -1.7229
    -1.6596  -1.6456  -1.6065  -1.5723  -1.5450  -1.5230  -1.5083  -1.4428
    -1.4291  -1.4189  -1.3698  -1.3522  -1.3318  -1.2977  -1.2768  -1.2409
    -1.1845  -1.1705  -1.1602  -1.1402  -1.1009  -1.0758  -1.0678  -1.0303
    -1.0135  -0.9798  -0.9674  -0.9496  -0.9165  -0.8914  -0.8721  -0.8452
    -0.8313  -0.8000  -0.7728  -0.7518  -0.7216  -0.7097  -0.6981  -0.6763
    -0.6467  -0.6323  -0.6238  -0.5866  -0.5658  -0.5319  -0.5088  -0.4854
    -0.4426  -0.4202  -0.4018  -0.3534  -0.3383  -0.3299  -0.3253  -0.2713
    -0.1552  -0.0916  -0.0268   0.0024   0.0311   0.0731   0.0903   0.1212
     0.1507   0.2435   0.2566   0.3117   0.3412   0.3756   0.4176   0.4388
     0.4835   0.5012   0.5091   0.5337   0.5473   0.6078   0.6367   0.6576
     0.6947   0.7050   0.7635   0.8016   0.8394   0.8611   0.8678   0.9029
     0.9439   0.9944   1.0076   1.0434   1.0684   1.0798   1.1285   1.1516
     1.1795   1.2154   1.2441   1.2658   1.2867   1.3104   1.3466   1.3768
     1.3983   1.4258   1.4738   1.4843   1.5261   1.5591   1.5844   1.6057
     1.6315   1.6453   1.6625   1.6903   1.7091   1.7268   1.7533   1.7724
     1.7812   1.8742   1.8911   1.9124   1.9381   1.9704   1.9836   2.0094
     2.0275   2.0395   2.0569   2.0776   2.1384   2.1543   2.1895   2.2293
     2.2924   2.3289   2.3621   2.5114   2.6117   2.8996   2.9820   3.2877
     3.4916   3.6086   3.8358   4.1185   4.6545   4.8658   5.2415   5.4666
     5.6564   5.7193   5.7828   5.9958   6.2202   6.5482   6.6112   6.6793
     6.7451   6.8656

          k = 0.2000 0.3464 0.0000 ( 91844 PWs)   bands (ev):

   -13.9445 -10.5907  -8.2583  -6.3233  -5.9248  -5.1719  -5.1290  -5.0562
    -4.9650  -4.6402  -4.1002  -4.0597  -4.0433  -4.0231  -3.9819  -3.9588
    -3.9446  -3.8638  -3.8445  -3.8238  -3.6885  -3.5406  -3.4835  -3.4671
    -3.4336  -3.3722  -3.3579  -3.3049  -3.2614  -3.2215  -3.2034  -3.1801
    -3.1198  -3.0910  -3.0685  -3.0602  -3.0363  -2.9893  -2.9591  -2.9539
    -2.8964  -2.8477  -2.7886  -2.6760  -2.6317  -2.5365  -2.4999  -2.4721
    -2.4356  -2.4117  -2.3975  -2.3806  -2.3326  -2.2993  -2.2294  -2.1880
    -2.1262  -2.0728  -2.0620  -2.0213  -1.9788  -1.9414  -1.9137  -1.8784
    -1.8332  -1.7765  -1.7176  -1.6883  -1.6390  -1.6285  -1.5923  -1.5684
    -1.5474  -1.5017  -1.4798  -1.4232  -1.3822  -1.3603  -1.3392  -1.3206
    -1.3016  -1.2640  -1.2167  -1.2042  -1.1508  -1.1277  -1.0989  -1.0772
    -1.0423  -1.0156  -0.9984  -0.9783  -0.9543  -0.9310  -0.9213  -0.9080
    -0.8764  -0.8494  -0.8291  -0.7963  -0.7575  -0.7474  -0.7382  -0.6964
    -0.6709  -0.6465  -0.6398  -0.6263  -0.6064  -0.5851  -0.5635  -0.5444
    -0.5206  -0.4775  -0.4595  -0.4208  -0.4039  -0.3123  -0.2854  -0.2546
    -0.1947  -0.1633  -0.0832  -0.0541  -0.0258  -0.0054   0.0554   0.0818
     0.0923   0.1314   0.1525   0.2004   0.2188   0.2452   0.2763   0.3338
     0.3857   0.4195   0.4497   0.4760   0.4962   0.5149   0.5602   0.6253
     0.6461   0.6904   0.7081   0.7278   0.7500   0.7968   0.8367   0.8695
     0.9142   0.9343   0.9548   1.0026   1.0300   1.0369   1.0595   1.0654
     1.0962   1.1217   1.1596   1.2360   1.2657   1.3234   1.3803   1.4164
     1.5201   1.5381   1.5852   1.6110   1.6474   1.6880   1.6976   1.7310
     1.7473   1.7760   1.8102   1.8165   1.8311   1.8498   1.8694   1.8870
     1.9250   1.9640   1.9889   1.9970   2.0366   2.0737   2.1182   2.1668
     2.2185   2.2349   2.2629   2.2868   2.3471   2.4224   2.4582   2.5518
     2.7127   2.9994   3.0276   3.0863   3.2907   3.4638   3.5590   3.6654
     3.9013   4.0621   4.3036   4.4061   4.5119   4.5904   4.9501   5.1965
     5.4763   5.6792   5.7842   5.8549   5.9912   6.1527   6.2675   6.3923
     6.4538   6.5782

          k = 0.2000-0.5774 0.0000 ( 91836 PWs)   bands (ev):

   -13.9443 -10.5919  -8.2522  -5.9645  -5.8237  -5.7270  -5.2084  -4.9827
    -4.8049  -4.5797  -4.4090  -4.0863  -3.9761  -3.8920  -3.8812  -3.7975
    -3.7422  -3.7317  -3.6463  -3.6374  -3.5743  -3.5573  -3.5107  -3.4951
    -3.4732  -3.4577  -3.4227  -3.3967  -3.3282  -3.3093  -3.2910  -3.2584
    -3.1831  -3.1335  -3.0782  -3.0357  -2.9806  -2.9517  -2.9167  -2.8864
    -2.8747  -2.8276  -2.7906  -2.7002  -2.6603  -2.6259  -2.5279  -2.4809
    -2.4734  -2.4563  -2.3278  -2.2919  -2.2541  -2.1943  -2.1508  -2.1145
    -2.0943  -2.0407  -2.0103  -1.9852  -1.9704  -1.9575  -1.9170  -1.8926
    -1.8753  -1.8306  -1.8146  -1.7945  -1.7767  -1.7313  -1.7021  -1.6343
    -1.6134  -1.5887  -1.5484  -1.5322  -1.4913  -1.4161  -1.4006  -1.3704
    -1.3545  -1.3432  -1.3152  -1.2698  -1.2518  -1.2164  -1.1795  -1.1685
    -1.1445  -1.1008  -1.0569  -1.0104  -1.0016  -0.9666  -0.9442  -0.9069
    -0.8774  -0.8437  -0.8017  -0.7937  -0.7621  -0.7330  -0.7082  -0.6957
    -0.6836  -0.6751  -0.6587  -0.6336  -0.5921  -0.5647  -0.5553  -0.5405
    -0.5343  -0.5193  -0.5034  -0.4698  -0.3923  -0.3075  -0.2437  -0.2331
    -0.1968  -0.1311  -0.0990  -0.0699  -0.0521  -0.0045   0.0222   0.0434
     0.0693   0.0923   0.1086   0.1345   0.1579   0.1987   0.2134   0.3052
     0.3330   0.3439   0.3819   0.4135   0.4631   0.5074   0.5249   0.6130
     0.6336   0.6670   0.6730   0.6853   0.7323   0.7737   0.7873   0.7998
     0.8407   0.8716   0.9084   0.9171   0.9568   0.9938   1.0227   1.0346
     1.1325   1.1547   1.2210   1.2435   1.3353   1.3812   1.4473   1.4657
     1.5152   1.5431   1.5548   1.6328   1.6642   1.7030   1.7265   1.7402
     1.7611   1.7939   1.8346   1.8447   1.9065   1.9274   1.9416   1.9501
     1.9858   1.9935   2.0104   2.0883   2.1228   2.1640   2.2035   2.2201
     2.2330   2.2540   2.2901   2.3104   2.4609   2.7337   2.9068   3.0851
     3.3263   3.3750   3.3998   3.6212   3.6952   3.7639   3.7782   3.9880
     4.3438   4.4299   4.4801   4.7104   4.8222   4.9101   4.9906   5.0734
     5.1719   5.2145   5.3060   5.3720   5.5675   5.8110   5.9781   6.1251
     6.1700   6.4416

          k = 0.2000-0.3464 0.0000 ( 91844 PWs)   bands (ev):

   -13.9444 -10.5913  -8.2571  -6.3234  -5.9246  -5.1673  -5.1334  -5.0582
    -4.9678  -4.6429  -4.1084  -4.0607  -4.0403  -4.0216  -3.9812  -3.9611
    -3.9312  -3.8688  -3.8374  -3.8116  -3.6792  -3.5382  -3.4739  -3.4647
    -3.4350  -3.3939  -3.3459  -3.3103  -3.2644  -3.2378  -3.2156  -3.1804
    -3.1220  -3.0876  -3.0781  -3.0564  -3.0312  -2.9935  -2.9525  -2.9496
    -2.8911  -2.8490  -2.7858  -2.6644  -2.6395  -2.5579  -2.4954  -2.4751
    -2.4626  -2.4058  -2.4019  -2.3747  -2.3425  -2.2970  -2.2073  -2.1794
    -2.1035  -2.0807  -2.0662  -2.0104  -1.9722  -1.9488  -1.9144  -1.8987
    -1.7943  -1.7726  -1.7192  -1.6920  -1.6253  -1.6104  -1.5982  -1.5714
    -1.5527  -1.5081  -1.4684  -1.4449  -1.3779  -1.3547  -1.3437  -1.3209
    -1.3040  -1.2607  -1.2204  -1.1932  -1.1519  -1.1408  -1.1033  -1.0837
    -1.0402  -1.0109  -1.0051  -0.9770  -0.9504  -0.9322  -0.9251  -0.9169
    -0.8794  -0.8511  -0.8389  -0.8050  -0.7692  -0.7421  -0.7335  -0.6911
    -0.6824  -0.6498  -0.6399  -0.6238  -0.6144  -0.5840  -0.5693  -0.5431
    -0.5261  -0.4748  -0.4530  -0.4185  -0.3973  -0.3155  -0.2935  -0.2377
    -0.1895  -0.1657  -0.0829  -0.0550  -0.0100   0.0011   0.0527   0.0724
     0.0912   0.1304   0.1599   0.1978   0.2199   0.2452   0.2736   0.3346
     0.3734   0.4090   0.4496   0.4781   0.4916   0.5133   0.5696   0.6283
     0.6455   0.6916   0.7105   0.7215   0.7502   0.7928   0.8414   0.8627
     0.9070   0.9354   0.9511   0.9996   1.0298   1.0370   1.0574   1.0682
     1.0982   1.1168   1.1671   1.2258   1.2766   1.3223   1.3778   1.4156
     1.5246   1.5433   1.5847   1.6093   1.6491   1.6811   1.7016   1.7304
     1.7542   1.7806   1.8088   1.8151   1.8279   1.8473   1.8686   1.8809
     1.9250   1.9677   1.9910   2.0003   2.0386   2.0690   2.1136   2.1605
     2.2215   2.2276   2.2590   2.2898   2.3547   2.4127   2.4573   2.5775
     2.7470   2.9906   3.0208   3.1279   3.2794   3.4608   3.5464   3.6603
     3.9384   4.0500   4.2986   4.4479   4.5062   4.5740   4.9445   5.2149
     5.4117   5.6814   5.7887   5.8806   6.0004   6.1305   6.2881   6.4161
     6.4337   6.5588

          k = 0.4000-0.2309 0.0000 ( 91870 PWs)   bands (ev):

   -13.9444 -10.5905  -8.2560  -6.1904  -5.9251  -5.5544  -5.0494  -4.9203
    -4.7102  -4.4954  -4.4286  -4.3665  -4.1021  -3.9712  -3.9095  -3.8428
    -3.8016  -3.7538  -3.7171  -3.6475  -3.5922  -3.5625  -3.5482  -3.4907
    -3.4516  -3.3941  -3.3585  -3.3423  -3.3352  -3.3142  -3.2884  -3.2503
    -3.2018  -3.1724  -3.0925  -3.0095  -2.9567  -2.9356  -2.9078  -2.8778
    -2.8358  -2.7485  -2.7042  -2.6927  -2.6629  -2.6437  -2.5871  -2.5332
    -2.4298  -2.4083  -2.3796  -2.3211  -2.3055  -2.2583  -2.2245  -2.1951
    -2.1895  -2.1552  -2.0619  -2.0385  -2.0071  -1.9963  -1.9455  -1.8528
    -1.8291  -1.8193  -1.8039  -1.7281  -1.6875  -1.6344  -1.6033  -1.5924
    -1.5654  -1.5362  -1.5216  -1.4566  -1.4345  -1.3770  -1.3403  -1.3194
    -1.2777  -1.2537  -1.2229  -1.1982  -1.1531  -1.1460  -1.1370  -1.1006
    -1.0802  -1.0636  -1.0395  -1.0269  -1.0128  -0.9825  -0.9625  -0.9137
    -0.9086  -0.8630  -0.8529  -0.8337  -0.7940  -0.7640  -0.7325  -0.7161
    -0.6857  -0.6544  -0.6325  -0.5933  -0.5602  -0.5230  -0.4911  -0.4651
    -0.4229  -0.3863  -0.3601  -0.3515  -0.3111  -0.2698  -0.2389  -0.2014
    -0.1214  -0.0914  -0.0739  -0.0602  -0.0143   0.0170   0.0410   0.0575
     0.0827   0.0909   0.1073   0.1441   0.1738   0.1885   0.1986   0.2831
     0.3168   0.3373   0.3547   0.3836   0.4261   0.4705   0.5236   0.5729
     0.6031   0.6525   0.7174   0.7655   0.7807   0.8137   0.8444   0.8917
     0.9276   0.9466   0.9685   1.0056   1.0355   1.0598   1.0791   1.1261
     1.1612   1.1909   1.2143   1.2286   1.2494   1.3031   1.3613   1.4250
     1.4617   1.4760   1.4957   1.5223   1.5698   1.6224   1.6311   1.6572
     1.7035   1.7188   1.7828   1.7899   1.8078   1.8578   1.9070   1.9259
     1.9436   1.9553   1.9618   1.9983   2.0459   2.1553   2.1756   2.1989
     2.2180   2.2279   2.3038   2.3926   2.4558   2.5246   2.5799   2.7801
     3.0877   3.2398   3.2749   3.3038   3.4372   3.5799   3.7054   3.9100
     4.0604   4.3236   4.4845   4.5032   4.5854   4.6606   4.7563   4.8714
     5.0713   5.2194   5.4279   5.5966   5.8081   5.8749   6.2328   6.3655
     6.4925   6.8036

          k = 0.4000-0.0000 0.0000 ( 91844 PWs)   bands (ev):

   -13.9445 -10.5897  -8.2592  -6.3194  -5.9269  -5.1686  -5.1379  -5.0512
    -4.9388  -4.6501  -4.0822  -4.0632  -4.0390  -4.0234  -4.0125  -3.9630
    -3.9441  -3.8597  -3.8404  -3.8131  -3.7290  -3.5289  -3.4692  -3.4495
    -3.4109  -3.3645  -3.3325  -3.2795  -3.2633  -3.2325  -3.2141  -3.1938
    -3.1469  -3.1199  -3.0856  -3.0590  -3.0090  -2.9896  -2.9514  -2.9420
    -2.8949  -2.8838  -2.8329  -2.7964  -2.6052  -2.5752  -2.5232  -2.4891
    -2.4541  -2.4109  -2.3792  -2.3293  -2.2902  -2.2738  -2.2128  -2.1966
    -2.1158  -2.0702  -2.0414  -2.0110  -1.9917  -1.9601  -1.9428  -1.8712
    -1.8084  -1.7697  -1.7270  -1.6814  -1.6712  -1.6193  -1.5815  -1.5694
    -1.5394  -1.5174  -1.5103  -1.4354  -1.3782  -1.3527  -1.3418  -1.3146
    -1.2789  -1.2505  -1.2247  -1.1978  -1.1391  -1.1278  -1.1204  -1.0910
    -1.0696  -1.0230  -0.9887  -0.9816  -0.9586  -0.9261  -0.9135  -0.8933
    -0.8663  -0.8280  -0.8105  -0.7861  -0.7481  -0.7359  -0.7151  -0.7050
    -0.6873  -0.6716  -0.6455  -0.6243  -0.6038  -0.5861  -0.5418  -0.5191
    -0.4879  -0.4767  -0.4262  -0.3981  -0.3673  -0.3532  -0.3068  -0.2886
    -0.1946  -0.1223  -0.0823  -0.0302  -0.0109   0.0290   0.0581   0.0921
     0.1007   0.1210   0.1444   0.2000   0.2122   0.2360   0.2974   0.3341
     0.3621   0.4312   0.4643   0.4699   0.4919   0.5177   0.5711   0.5944
     0.6160   0.6737   0.7043   0.7197   0.7625   0.7994   0.8406   0.8882
     0.9093   0.9366   0.9647   0.9900   1.0157   1.0491   1.0581   1.0957
     1.1078   1.1428   1.1807   1.2039   1.2469   1.2787   1.3545   1.4770
     1.5084   1.5184   1.5934   1.6115   1.6195   1.7023   1.7045   1.7404
     1.7440   1.7782   1.8021   1.8135   1.8280   1.8385   1.8705   1.8919
     1.9226   1.9637   1.9830   1.9930   2.0278   2.0767   2.1359   2.1561
     2.2320   2.2548   2.2816   2.3044   2.3585   2.4143   2.4618   2.5230
     2.6462   2.8481   3.0227   3.1706   3.3764   3.4434   3.5557   3.6205
     3.8492   4.0448   4.2804   4.4430   4.4975   4.7120   4.8165   5.2371
     5.4822   5.6659   5.7545   5.9371   6.0085   6.1457   6.2608   6.3259
     6.4856   6.5622

          k = 0.4000 0.2309 0.0000 ( 91870 PWs)   bands (ev):

   -13.9445 -10.5896  -8.2580  -6.1904  -5.9242  -5.5578  -5.0451  -4.9119
    -4.7043  -4.4964  -4.4271  -4.3644  -4.1179  -3.9770  -3.9170  -3.8414
    -3.8075  -3.7476  -3.7183  -3.6762  -3.5934  -3.5642  -3.5474  -3.5081
    -3.4478  -3.3847  -3.3622  -3.3353  -3.3151  -3.2982  -3.2814  -3.2465
    -3.2034  -3.1689  -3.0991  -3.0141  -2.9457  -2.9320  -2.9141  -2.8858
    -2.8311  -2.7566  -2.7171  -2.6844  -2.6586  -2.6423  -2.5725  -2.5265
    -2.4174  -2.3942  -2.3804  -2.3221  -2.3097  -2.2606  -2.2324  -2.1983
    -2.1857  -2.1710  -2.0896  -2.0273  -2.0037  -1.9970  -1.9479  -1.8614
    -1.8237  -1.8074  -1.7888  -1.7447  -1.7073  -1.6591  -1.6132  -1.6025
    -1.5663  -1.5230  -1.5116  -1.4557  -1.4367  -1.3778  -1.3560  -1.3256
    -1.2694  -1.2434  -1.2195  -1.1889  -1.1573  -1.1481  -1.1230  -1.1006
    -1.0831  -1.0622  -1.0430  -1.0268  -1.0061  -0.9745  -0.9676  -0.9217
    -0.9030  -0.8613  -0.8527  -0.8318  -0.7908  -0.7705  -0.7215  -0.7061
    -0.6823  -0.6461  -0.6229  -0.5931  -0.5674  -0.5251  -0.5058  -0.4645
    -0.4067  -0.3905  -0.3671  -0.3439  -0.3224  -0.2628  -0.2339  -0.1894
    -0.1201  -0.0827  -0.0715  -0.0571  -0.0060   0.0168   0.0374   0.0566
     0.0778   0.0896   0.1058   0.1288   0.1743   0.1973   0.2080   0.2722
     0.3241   0.3348   0.3542   0.3803   0.4219   0.4747   0.5248   0.5691
     0.6036   0.6516   0.7140   0.7640   0.7803   0.8231   0.8507   0.8956
     0.9352   0.9479   0.9717   1.0116   1.0381   1.0584   1.0815   1.1419
     1.1658   1.1955   1.2144   1.2250   1.2524   1.3049   1.3492   1.4280
     1.4595   1.4692   1.4938   1.5196   1.5736   1.6203   1.6289   1.6650
     1.6740   1.7211   1.7775   1.7822   1.8098   1.8582   1.9103   1.9312
     1.9379   1.9553   1.9622   1.9965   2.0450   2.1579   2.1677   2.1955
     2.2208   2.2252   2.3028   2.4255   2.4559   2.5309   2.5813   2.7581
     3.0158   3.1982   3.2898   3.3133   3.4112   3.5714   3.7384   3.9075
     4.0377   4.3218   4.4839   4.5185   4.5840   4.6696   4.7850   4.8639
     5.0947   5.1625   5.4760   5.5990   5.7764   5.8620   6.2588   6.4049
     6.4914   6.7688

          k = 0.4000-0.6928 0.0000 ( 91836 PWs)   bands (ev):

   -13.9444 -10.5903  -8.2542  -5.9545  -5.8080  -5.7546  -5.1985  -5.0085
    -4.7066  -4.5700  -4.4965  -4.0633  -4.0252  -3.8978  -3.8713  -3.7888
    -3.7397  -3.6913  -3.6506  -3.6194  -3.5770  -3.5588  -3.5158  -3.4944
    -3.4869  -3.4543  -3.4350  -3.3736  -3.3228  -3.2944  -3.2752  -3.2525
    -3.1967  -3.1593  -3.1218  -3.0371  -3.0217  -2.9637  -2.9206  -2.9019
    -2.8683  -2.8525  -2.8148  -2.6873  -2.6697  -2.6262  -2.5559  -2.4689
    -2.4453  -2.4014  -2.3456  -2.3043  -2.2631  -2.1831  -2.1555  -2.1269
    -2.1091  -2.0608  -2.0081  -1.9938  -1.9729  -1.9423  -1.9205  -1.8761
    -1.8509  -1.8300  -1.8074  -1.7876  -1.7679  -1.7532  -1.7201  -1.6858
    -1.6312  -1.5845  -1.5567  -1.4892  -1.4541  -1.4158  -1.4035  -1.3867
    -1.3608  -1.3362  -1.3157  -1.2792  -1.2495  -1.2023  -1.1904  -1.1590
    -1.1166  -1.1000  -1.0308  -1.0132  -0.9928  -0.9807  -0.9720  -0.8642
    -0.8489  -0.8294  -0.8025  -0.7921  -0.7672  -0.7328  -0.7110  -0.6911
    -0.6848  -0.6618  -0.6539  -0.6115  -0.5889  -0.5605  -0.5494  -0.5288
    -0.5268  -0.5144  -0.4918  -0.4352  -0.4017  -0.3195  -0.2910  -0.2317
    -0.1866  -0.1415  -0.1026  -0.0817  -0.0428  -0.0188  -0.0048   0.0356
     0.0528   0.0975   0.1306   0.1349   0.1671   0.2003   0.2536   0.3014
     0.3281   0.3433   0.4050   0.4307   0.4920   0.5056   0.5539   0.6063
     0.6185   0.6643   0.6673   0.7283   0.7575   0.7620   0.7879   0.8140
     0.8484   0.8802   0.9099   0.9361   0.9712   0.9815   1.0218   1.0392
     1.1168   1.1254   1.2157   1.2726   1.2874   1.3981   1.4259   1.4482
     1.4855   1.5262   1.5651   1.6117   1.6520   1.7207   1.7245   1.7512
     1.7790   1.7967   1.8089   1.8537   1.9150   1.9216   1.9365   1.9582
     1.9697   1.9840   2.0030   2.0830   2.1136   2.1643   2.1999   2.2255
     2.2430   2.2678   2.2947   2.3913   2.4806   2.6838   2.9076   2.9898
     3.1341   3.3749   3.4189   3.6217   3.7010   3.7866   3.8784   4.0263
     4.2800   4.3903   4.4261   4.5685   4.8777   4.9412   4.9934   5.0756
     5.1957   5.2705   5.2977   5.4217   5.7095   5.7670   5.8685   6.0771
     6.1956   6.4534

          k = 0.4000-0.4619 0.0000 ( 91836 PWs)   bands (ev):

   -13.9444 -10.5909  -8.2531  -5.9566  -5.8065  -5.7517  -5.2056  -5.0057
    -4.7120  -4.5748  -4.4959  -4.0687  -4.0031  -3.8875  -3.8674  -3.7909
    -3.7426  -3.6929  -3.6482  -3.6232  -3.5747  -3.5352  -3.5264  -3.4979
    -3.4802  -3.4648  -3.4367  -3.3757  -3.3206  -3.2922  -3.2841  -3.2550
    -3.2199  -3.1408  -3.1183  -3.0375  -3.0145  -2.9792  -2.9290  -2.9029
    -2.8648  -2.8498  -2.8064  -2.6801  -2.6716  -2.6499  -2.5467  -2.4700
    -2.4512  -2.4133  -2.3438  -2.3006  -2.2551  -2.1851  -2.1596  -2.1136
    -2.0940  -2.0652  -2.0161  -1.9895  -1.9658  -1.9592  -1.9159  -1.8863
    -1.8437  -1.8263  -1.8059  -1.7925  -1.7627  -1.7508  -1.7028  -1.6655
    -1.6366  -1.5899  -1.5529  -1.4913  -1.4662  -1.4189  -1.3940  -1.3834
    -1.3756  -1.3422  -1.3220  -1.2685  -1.2292  -1.2092  -1.1824  -1.1549
    -1.1305  -1.0933  -1.0302  -1.0099  -0.9970  -0.9806  -0.9693  -0.8945
    -0.8559  -0.8250  -0.8102  -0.7912  -0.7617  -0.7359  -0.7147  -0.6942
    -0.6815  -0.6646  -0.6566  -0.6139  -0.5932  -0.5562  -0.5526  -0.5330
    -0.5237  -0.5179  -0.4948  -0.4548  -0.3952  -0.3067  -0.2756  -0.2112
    -0.1833  -0.1646  -0.1016  -0.0780  -0.0472  -0.0147  -0.0022   0.0393
     0.0498   0.0998   0.1137   0.1409   0.1656   0.2038   0.2487   0.3021
     0.3326   0.3509   0.3980   0.4433   0.4648   0.5016   0.5526   0.6104
     0.6229   0.6600   0.6686   0.7225   0.7557   0.7609   0.7903   0.8155
     0.8490   0.8792   0.9075   0.9482   0.9658   0.9834   1.0158   1.0364
     1.1024   1.1271   1.2149   1.2720   1.2908   1.4027   1.4316   1.4526
     1.4924   1.5305   1.5562   1.6178   1.6500   1.7175   1.7241   1.7549
     1.7769   1.7954   1.8092   1.8496   1.9126   1.9197   1.9359   1.9535
     1.9717   1.9907   2.0023   2.0861   2.1145   2.1652   2.2043   2.2310
     2.2420   2.2551   2.2929   2.3762   2.4676   2.7192   2.9152   2.9888
     3.1760   3.3782   3.4102   3.6189   3.7144   3.7787   3.8860   4.0301
     4.3232   4.3849   4.4003   4.6004   4.8450   4.9540   4.9759   5.0499
     5.1711   5.2682   5.2975   5.4591   5.7071   5.7554   5.8709   6.1118
     6.1862   6.4300

     the Fermi energy is     2.0142 ev

!    total energy              =  -27816.07652192 Ry

     total all-electron energy =  -1326876.134217 Ry
     estimated scf accuracy    <       0.00000082 Ry
     smearing contrib. (-TS)   =       0.00204722 Ry
     internal energy E=F+TS    =  -27816.07856914 Ry

     The total energy is F=E-TS. E is the sum of the following terms:
     one-electron contribution =  -28959.11559595 Ry
     hartree contribution      =   14784.80166481 Ry
     xc contribution           =    -907.39831770 Ry
     ewald contribution        =   12759.26949584 Ry
     one-center paw contrib.   =  -25493.63581614 Ry

     convergence has been achieved in  21 iterations

     negative rho (up, down):  1.293E-02 0.000E+00

     Forces acting on atoms (cartesian axes, Ry/au):

     atom    1 type  1   force =    -0.00191999   -0.00123679   -0.00480116
     atom    2 type  1   force =     0.00186410   -0.00126514   -0.00445784
     atom    3 type  1   force =     0.00002378   -0.00092725   -0.00446046
     atom    4 type  1   force =     0.00006378   -0.00099369   -0.00203583
     atom    5 type  1   force =     0.00041880    0.00033004   -0.00341853
     atom    6 type  1   force =    -0.00033504    0.00015090   -0.00335798
     atom    7 type  1   force =     0.00044193    0.00069317   -0.00380179
     atom    8 type  1   force =    -0.00078308   -0.00194152   -0.00887786
     atom    9 type  1   force =    -0.00046535    0.00079157   -0.00352378
     atom   10 type  1   force =     0.00030987    0.00306137   -0.00128858
     atom   11 type  1   force =    -0.00141867    0.00086939    0.01202190
     atom   12 type  1   force =     0.00120831    0.00147385    0.01133722
     atom   13 type  1   force =    -0.00027111   -0.00205496    0.00741524
     atom   14 type  1   force =    -0.00017095    0.00107341    0.00223197
     atom   15 type  1   force =     0.00050861   -0.00201001    0.00687658
     atom   16 type  1   force =     0.00009073    0.00147007   -0.00388646
     atom   17 type  1   force =     0.00024322    0.00226751   -0.00516468
     atom   18 type  1   force =    -0.00038648    0.00319579    0.00813251
     atom   19 type  1   force =    -0.00021352   -0.00015327   -0.00012241
     atom   20 type  1   force =     0.00011833   -0.00022551   -0.00005367
     atom   21 type  1   force =    -0.00002228   -0.00033424   -0.00036176
     atom   22 type  1   force =    -0.00000538   -0.00016517    0.00035416
     atom   23 type  1   force =     0.00031439   -0.00006778    0.00014090
     atom   24 type  1   force =    -0.00018797   -0.00008092    0.00029069
     atom   25 type  1   force =     0.00028914   -0.00042922   -0.00021450
     atom   26 type  1   force =    -0.00001189    0.00000880    0.00029048
     atom   27 type  1   force =    -0.00022860   -0.00047285   -0.00014504
     atom   28 type  1   force =     0.00002580   -0.00011838    0.00022478
     atom   29 type  1   force =     0.00030847   -0.00010721    0.00035586
     atom   30 type  1   force =    -0.00004956   -0.00000930   -0.00031715
     atom   31 type  1   force =     0.00004561   -0.00051366    0.00053397
     atom   32 type  1   force =     0.00068076    0.00015348    0.00057399
     atom   33 type  1   force =    -0.00055212    0.00020687    0.00045637
     atom   34 type  1   force =     0.00035182   -0.00027449    0.00025749
     atom   35 type  1   force =     0.00009912   -0.00058918   -0.00001649
     atom   36 type  1   force =     0.00008105   -0.00033678    0.00037025
     atom   37 type  2   force =    -0.00123297   -0.00186191   -0.00049442
     atom   38 type  2   force =     0.00065301    0.00135023   -0.00081006
     atom   39 type  2   force =     0.00050463    0.00515720    0.00442474
     atom   40 type  3   force =    -0.00031595   -0.00039022   -0.00013901
     atom   41 type  3   force =     0.00045522   -0.00013647   -0.00004352
     atom   42 type  3   force =    -0.00065979   -0.00058213   -0.00044294
     atom   43 type  3   force =     0.00013019   -0.00497563   -0.00405320

     Total force =     0.010096     Total SCF correction =     0.002742
     SCF correction compared to forces is large: reduce conv_thr to get better values

     negative rho (up, down):  1.293E-02 0.000E+00

     negative rho (up, down):  1.293E-02 0.000E+00

     negative rho (up, down):  1.293E-02 0.000E+00

     negative rho (up, down):  1.293E-02 0.000E+00

     negative rho (up, down):  1.293E-02 0.000E+00

     negative rho (up, down):  1.293E-02 0.000E+00

     negative rho (up, down):  1.293E-02 0.000E+00

     negative rho (up, down):  1.293E-02 0.000E+00

     negative rho (up, down):  1.293E-02 0.000E+00

     negative rho (up, down):  1.293E-02 0.000E+00

     negative rho (up, down):  1.293E-02 0.000E+00

     negative rho (up, down):  1.293E-02 0.000E+00

     negative rho (up, down):  1.293E-02 0.000E+00

     negative rho (up, down):  1.293E-02 0.000E+00

     negative rho (up, down):  1.293E-02 0.000E+00

     negative rho (up, down):  1.293E-02 0.000E+00

     negative rho (up, down):  1.293E-02 0.000E+00

     negative rho (up, down):  1.293E-02 0.000E+00

     negative rho (up, down):  1.293E-02 0.000E+00

     negative rho (up, down):  1.293E-02 0.000E+00

     negative rho (up, down):  1.293E-02 0.000E+00

     negative rho (up, down):  1.293E-02 0.000E+00

     negative rho (up, down):  1.293E-02 0.000E+00

     negative rho (up, down):  1.293E-02 0.000E+00

     negative rho (up, down):  1.293E-02 0.000E+00

     negative rho (up, down):  1.293E-02 0.000E+00

     negative rho (up, down):  1.293E-02 0.000E+00

     negative rho (up, down):  1.293E-02 0.000E+00

     negative rho (up, down):  1.293E-02 0.000E+00

     negative rho (up, down):  1.293E-02 0.000E+00

     negative rho (up, down):  1.293E-02 0.000E+00

     negative rho (up, down):  1.293E-02 0.000E+00

     negative rho (up, down):  1.293E-02 0.000E+00

     negative rho (up, down):  1.293E-02 0.000E+00
 BEEFens 2000 ensemble energies
             -0.607527241499513E+02
             -0.361885346415534E+01
             -0.158492604613637E+02
              0.429820955371209E+02
             -0.221286591499841E+02
             -0.205403668448401E+02
             -0.352763256194721E+02
             -0.866053349301755E+02
             -0.465256266262297E+02
             -0.472847693845878E+02
             -0.369704232674665E+02
              0.227954216857614E+01
              0.408870731620061E+01
              0.759924390726178E+01
              0.266178458416840E+01
              0.475432441616019E+02
             -0.208916786316543E+02
             -0.230214183383080E+02
              0.193442984256316E+02
             -0.112487483751146E+03
              0.536871054652347E+02
             -0.289916943061825E+02
             -0.335216664444296E+01
             -0.114040691059110E+02
             -0.882785945954754E+01
             -0.464117702430306E+01
              0.883579888727354E+02
             -0.187417303436897E+02
             -0.901100683204163E+01
             -0.519137593175915E+02
              0.816051204088253E+02
             -0.187184474582826E+02
             -0.375447227216528E+02
              0.249331760863884E+02
             -0.283966921752574E+01
              0.164600439112284E+02
             -0.484097911793543E+01
              0.107900707617331E+02
              0.288962208425265E+02
             -0.103361447880332E+03
              0.558886923867169E+02
              0.142533436209734E+02
             -0.173800314705585E+01
             -0.361771820228347E+02
              0.123334591494358E+02
             -0.146877277836700E+02
              0.399059227443913E+02
              0.365087404499191E+02
             -0.308101125874014E+02
             -0.275539381264003E+02
             -0.328849656285308E+02
             -0.352531782238891E+02
              0.136693394184029E+02
             -0.491438008612708E+02
              0.115745406469696E+02
              0.623689217798830E+02
              0.636220496672595E+02
              0.356013347364957E+02
              0.154198489701541E+02
              0.270922238100964E+02
              0.892284390569320E+02
              0.212703654424500E+02
             -0.549041545581292E+02
             -0.157066809631467E+02
             -0.236271246133874E+02
              0.630526380713215E+02
             -0.773933737869564E+02
             -0.672294048350399E+02
             -0.259856354485370E+02
             -0.649904544192430E+01
             -0.471186479664276E+02
              0.270930274748831E+02
              0.802549905532464E+01
              0.869837165649164E+01
             -0.397547568476630E+02
             -0.347249030291408E+02
             -0.542548764766787E+02
              0.390572063541398E+02
             -0.296319610281109E+02
              0.265585929541420E+02
             -0.716370111328094E+01
             -0.318271260277210E+02
             -0.576595479525307E+02
             -0.176859352646420E+02
             -0.908523648761820E+01
             -0.124803368433169E+02
              0.412511404942700E+02
              0.683647020477709E+02
             -0.386085414541445E+02
             -0.795411734431309E+02
             -0.219761801704107E+02
              0.111601703863809E+03
             -0.592916972938158E+02
              0.356443738141541E+02
             -0.959656837188174E+01
             -0.663669823301075E+02
              0.254649674962184E+02
              0.398136864627774E+02
             -0.199036599498374E+02
              0.400450166502619E+02
             -0.296199236060099E+02
             -0.478968421042667E+02
              0.867086537321566E+02
              0.454440336504413E+02
              0.336427050322620E+02
              0.146617493458583E+02
              0.205973219258994E+02
              0.857301492655766E+02
             -0.256881147081979E+02
              0.787564139017373E+01
             -0.142530831384605E+03
              0.181203793932079E+02
             -0.716864360790476E+02
              0.151019030132673E+02
              0.204814048039036E+02
             -0.333334259710300E+02
             -0.557602526693983E+02
              0.653804572927788E+01
             -0.304533467734552E+02
              0.308544552806457E+02
             -0.530243869559062E+02
              0.169416193333279E+01
             -0.357358719777218E+02
             -0.424544393992977E+01
             -0.101058618163069E+01
              0.181614098111651E+02
              0.142821433782626E+01
             -0.651482279422021E+01
              0.591112599138883E+02
              0.909142605334349E+02
              0.484700458096284E+02
              0.830686471637452E+02
             -0.115124654688957E+02
              0.143198924952824E+02
              0.541426221518221E+02
             -0.110518029060750E+02
             -0.736375777358191E+02
             -0.384630994467317E+02
             -0.522194983634760E+02
             -0.276932923636375E+02
              0.327506196327994E+02
             -0.116908043464393E+03
             -0.187239949591129E+02
              0.414660225593506E+02
             -0.386680139552838E+02
             -0.365569071063104E+02
              0.544884500452603E+02
              0.401154088094740E+02
             -0.354112118931570E+02
              0.138245886818435E+02
             -0.273442488605666E+02
              0.343532415597563E+02
              0.446219741150185E+01
              0.211130922068906E+02
             -0.885376104286843E+02
             -0.480527847824509E+02
             -0.995351361040161E+01
              0.322507533430144E+01
             -0.367169142181286E+02
              0.106140264490161E+03
             -0.230827304611016E+02
             -0.398793650849923E+02
              0.389191761336717E+02
             -0.494605950668786E+02
             -0.363854197140955E+02
              0.325234344622654E+02
              0.124721831739752E+02
              0.164664810998095E+02
              0.116854795777216E+02
             -0.132966538144716E+02
              0.225062060481940E+02
              0.590600255199255E+02
             -0.311765189189415E+02
              0.162769237025752E+02
              0.935169407918654E+02
              0.341047177821975E+02
             -0.728203456354072E+01
             -0.188940672881959E+02
              0.153495312388291E+03
             -0.164513226362786E+02
              0.363698495424182E+02
              0.194878698698247E+02
              0.361689279805877E+02
              0.892899412387460E+02
              0.543411615121418E+02
             -0.241122901511606E+01
              0.228097535309945E+02
              0.485548426537054E+02
              0.363857782111307E+02
             -0.526097920639126E+02
              0.936870975187850E+02
             -0.826301606704747E+02
             -0.198059989724524E+02
              0.583302329472839E+02
              0.680047620760165E+01
              0.791505269207278E+01
              0.340965368266238E+02
              0.299214697734398E+02
              0.353865785761450E+02
             -0.638214829567132E+02
              0.287157466780513E+01
             -0.297762097667825E+02
             -0.870365555471439E+01
             -0.147013275924201E+01
             -0.725431501728997E+01
             -0.415476637808274E+01
              0.860009304509861E+02
             -0.101069651094394E+02
             -0.276583713794840E+02
             -0.496027626700864E+01
              0.140202905756490E+02
             -0.564721898133259E+02
             -0.407973204024191E+02
             -0.382364881827762E+02
             -0.630936410323291E+02
             -0.170024830384431E+02
             -0.447885870900306E+02
              0.163437192628138E+02
             -0.238396894976241E+01
             -0.104526634150285E+02
             -0.934807876680551E+01
              0.807513092060191E+01
             -0.242661544508458E+02
              0.689935452704986E+02
             -0.808058735070698E+02
             -0.141178308969493E+02
             -0.174092177799621E+02
              0.181967593891341E+02
              0.214905639804249E+02
             -0.464420876096319E+02
             -0.202010619381376E+02
              0.441304367919684E+02
             -0.276215477124963E+02
              0.187177376560084E+02
              0.382971486844747E+02
             -0.322727612726669E+01
              0.114254790482719E+03
             -0.230026129561503E+02
             -0.341289087259851E+02
              0.577201657006236E+01
             -0.228572487221682E+02
              0.528267659361927E+02
             -0.337881965260615E+02
              0.106789266226308E+02
              0.640819030633619E+02
             -0.126270901161056E+02
              0.120343412652427E+03
              0.125982780454806E+03
             -0.650493049967833E+02
              0.591141223427863E+02
              0.166936744314316E+02
             -0.518316266200227E+02
              0.216277360421564E+02
              0.354491900711275E+02
              0.363304837316211E+02
              0.135064581563012E+01
              0.160048072722415E+02
              0.696464579110805E+02
             -0.247209044818078E+02
              0.181268589541186E+02
              0.739359688464963E+02
             -0.372800228315822E+02
             -0.130102365414811E+02
              0.509266087452004E+02
              0.297784495014226E+02
              0.781092020648263E+02
              0.223122410261788E+02
              0.627668305451687E+01
              0.280668390012317E+02
              0.383698565039154E+02
             -0.472416504459457E+02
              0.333897531596733E+01
              0.130234937207576E+02
              0.113942498134829E+02
              0.220800306779370E+02
             -0.575447141894911E+02
              0.366370604188235E+02
             -0.444288182418237E+02
             -0.347745724209619E+02
              0.178299805560555E+02
             -0.181336667877386E+02
              0.555868906191081E+02
             -0.255957203787004E+02
              0.267095675242741E+02
              0.368620203608924E+02
              0.829913075260388E+02
              0.575038464205720E+02
              0.462156042248653E+02
             -0.105321951086675E+02
             -0.393838824507861E+01
             -0.332233841357216E+02
              0.751544857196268E+02
              0.798022414117865E+02
              0.362356533671091E+02
             -0.192334879754223E+02
              0.512342461735993E+02
             -0.162596674784881E+02
              0.214716270042494E+02
              0.615238311727865E+02
              0.214139013440737E+01
             -0.104458717604419E+02
             -0.283046439621231E+02
             -0.512407096181976E+02
              0.946274896324859E+02
              0.440388804549546E+02
             -0.559910064694940E+02
             -0.966581952776605E+01
              0.249993830195432E+02
             -0.996106937666889E+01
              0.592843302817362E+02
              0.152386878719578E+02
              0.800124509503905E+02
              0.279889372269175E+02
             -0.264095771581342E+02
              0.249068128519881E+02
             -0.503296429522669E+01
             -0.323767818022842E+02
              0.133308630782153E+02
              0.205781584769264E+02
              0.933809148338502E+02
              0.798049275191678E+02
              0.551629313568585E+02
              0.731300945550297E+02
              0.800738062173863E+01
             -0.273893568640916E+02
              0.163327272981961E+02
             -0.368288399593183E+02
             -0.476962577699646E+02
             -0.564057514674453E+02
             -0.266955001231690E+02
             -0.109797683029252E+03
             -0.291922312444263E+02
             -0.838151559284734E+02
              0.210350035101462E+02
             -0.477390181780580E+02
              0.397526438153656E+02
             -0.942463399441201E+02
             -0.330386340388194E+02
              0.548657795687342E+02
              0.207924117140556E+02
             -0.831689159316437E+02
              0.631433424224297E+02
             -0.257145854869105E+02
              0.513000055517699E+02
             -0.242756759726253E+02
             -0.752075575854694E+02
              0.112167177474017E+02
             -0.612035470276375E+02
             -0.167917944045276E+02
             -0.149446812980850E+01
              0.418560057193012E+02
              0.127140346666267E+03
             -0.462063236421531E+02
             -0.363115200631860E+02
             -0.990296560342927E+00
             -0.130128965549193E+02
             -0.823436492179471E+02
             -0.597263130458679E+02
              0.517657796488012E+02
             -0.288971783592380E+02
              0.169766171590749E+02
             -0.489903075460242E+02
             -0.132149098276226E+02
             -0.437704796241168E+02
              0.566058722941374E+02
              0.151074351529682E+02
             -0.231944178162568E+02
             -0.127261975485949E+02
              0.669112551744023E+01
             -0.619105041833967E+01
              0.441942693748990E+02
             -0.252242391476888E+02
              0.279240429490869E+01
              0.339626616812748E+02
              0.171296405831098E+02
             -0.160134384463059E+02
              0.156424162595354E+03
              0.538695939338297E+02
              0.119488120661468E+01
              0.161766547929282E+02
             -0.615288048274048E+02
              0.315480735549713E+02
             -0.722678047962978E+02
             -0.252632040315811E+02
             -0.523275218594590E+02
             -0.220299246125003E+02
              0.569916527881212E+02
             -0.537550722689485E+02
              0.161342156305482E+02
             -0.409588740283812E+01
              0.387619847050246E+01
             -0.434111615811480E+02
             -0.478760762486945E+02
             -0.403208161006864E+01
             -0.424977659464253E+02
             -0.217383045429676E+02
             -0.438952075869423E+02
             -0.119266826683261E+02
             -0.359242556191994E+02
             -0.516944144258525E+02
              0.212764852479291E+02
             -0.209267451853559E+02
              0.188144629187818E+02
              0.974305117497701E+01
             -0.738821345295557E+02
             -0.548507228350992E+02
             -0.398927351908441E+02
              0.354349386968315E+02
              0.268327143138129E+01
             -0.627152390357904E+02
              0.586289779200134E+02
             -0.401582984029098E+02
              0.545654108862599E+02
             -0.289900340993713E+02
             -0.446395084894749E+02
              0.298711076437127E+02
             -0.658520661310427E+02
             -0.379996160549842E+02
              0.673079130652061E+02
              0.204227489725471E+02
             -0.360663219273811E+02
              0.489921232739141E+02
             -0.174142734479188E+02
             -0.323133655362340E+02
             -0.301994613312007E+02
             -0.501243189424476E+02
              0.249791401919875E+02
             -0.933875067548076E+02
             -0.840799827195493E+02
             -0.735033878988736E+01
             -0.307168264965562E+02
             -0.576309533458721E+02
              0.722751561234484E+02
              0.131684038096815E+03
             -0.360872937869436E+02
             -0.257112345191098E+01
             -0.637497559737888E+02
              0.651371484498743E+02
              0.170961496178646E+02
             -0.181895298412572E+02
             -0.410361504639992E+02
              0.148770728553089E+02
             -0.586704798102729E+02
             -0.197729862337823E+02
             -0.905463097689544E+02
              0.337343949452269E+02
              0.168962147093129E+02
              0.182338625030059E+01
             -0.708851064711405E+01
             -0.330188505232611E+02
             -0.760481986938794E+01
              0.125669581346493E+03
             -0.199228163590282E+02
             -0.437925541472025E+02
             -0.684766107275065E+02
              0.109386757269015E+02
             -0.342629799057714E+02
              0.592476070498567E+01
              0.261876346718413E+02
              0.102195710680217E+02
              0.278343353559440E+02
              0.120179208183698E+02
              0.630265680904798E+02
              0.316910618326086E+02
             -0.327022676132856E+02
              0.356481261377677E+02
              0.379865913753097E+02
              0.121047663540140E+02
              0.487163595766441E+02
             -0.225335077025071E+02
              0.766509719702884E+02
              0.172859292767083E+02
             -0.272618219617763E+02
             -0.722683005319196E+01
             -0.186514618134619E+02
              0.261886782881894E+02
             -0.234701956166033E+02
             -0.158577037862017E+00
             -0.849890652718204E+01
              0.810662233380285E+02
              0.500663748869321E+02
             -0.687581496437784E+02
             -0.477930189510661E+01
             -0.555829227780928E+02
             -0.159584319421160E+02
             -0.268426718985506E+02
              0.377197576855860E+01
              0.587641313938075E+00
             -0.257876341511061E+02
              0.817225039393935E+01
             -0.604385182756801E+01
             -0.128465790363653E+02
              0.860006201454856E+02
              0.181907735272324E+02
             -0.807961837989876E+02
             -0.458579212068871E+02
              0.946112711233585E+02
              0.278024433999650E+02
             -0.106965286736987E+02
              0.104669267612537E+03
             -0.194960482426881E+02
             -0.123076743736609E+02
             -0.541217001050347E+01
              0.107543319022180E+02
              0.272925387355526E+02
              0.780822826346633E+01
              0.305718018430319E+02
             -0.188041432051036E+02
             -0.304400821557694E+02
             -0.418228236656801E+02
             -0.477276925988414E+02
              0.464291709225024E+02
              0.127027123867329E+02
              0.387972473326666E+02
              0.133612308231506E+02
              0.856613253282602E+02
              0.156807581256509E+02
             -0.846909655777645E+02
             -0.334739910265378E+02
              0.133653181354662E+02
             -0.303131332138510E+02
              0.627305213861691E+02
             -0.887925384581558E+01
              0.148962630326748E+02
              0.497948304873812E+02
             -0.708318682148779E+02
              0.149891849860095E+03
              0.208867180970340E+02
              0.271696850687507E+02
              0.348052939479783E+02
              0.103569595018654E+02
             -0.157376115141528E+01
              0.358713782881367E+02
             -0.357449614324918E+02
              0.774292737541610E+02
              0.685712670482964E+02
             -0.406364985614141E+02
              0.149577210494259E+02
              0.671029290474204E+02
             -0.224165499081768E+02
              0.154735377851531E+02
              0.435226890018847E+02
              0.422610952697558E+02
             -0.785458162811306E+02
             -0.152587178570395E+02
             -0.356241367211142E+02
             -0.148417275986282E+01
             -0.766623447931225E+01
             -0.542174828654913E+01
             -0.180658561186027E+02
             -0.294135380577109E+02
              0.637108954489216E+01
              0.111703438592648E+02
              0.536173382530703E+02
             -0.390865843993182E+02
              0.375103316753699E+02
              0.439081435797245E+02
             -0.186534054320636E+02
              0.872821255708712E+02
             -0.698678881914745E+02
             -0.103292677450975E+03
             -0.662042094741780E+01
             -0.268443388761648E+01
              0.385144116858100E+01
              0.790390491559155E+02
             -0.106994201796377E+02
              0.417203694305334E+02
              0.444454414918083E+02
              0.385775346324973E+02
             -0.996272757301801E+01
              0.628096094917279E+02
             -0.133814656979172E+02
             -0.307953531607475E+02
             -0.479413646103063E+02
              0.590824255792081E+01
              0.369723092436242E+02
             -0.602493278190158E+01
              0.393285322002544E+02
             -0.176109440902064E+01
              0.655750219641566E+02
              0.187446147496512E+02
              0.999900229601697E+01
             -0.121577804354397E+02
              0.332389113744914E+02
              0.363196236692183E+02
              0.232803840805865E+02
             -0.521804330584416E+00
             -0.551213512363541E+02
              0.261124496210297E+02
              0.175462593464453E+02
              0.402854348540441E+02
              0.272528232493525E+02
              0.373031500253646E+02
             -0.607190871793489E+01
              0.251555179088475E+02
             -0.299057366156533E+02
             -0.197098727851517E+01
             -0.569724616403636E+02
             -0.308474838231512E+02
              0.379289627618606E+02
             -0.936522911231457E+02
              0.294569889808441E+02
              0.184088092295335E+02
              0.841222685193389E+02
             -0.300352910605016E+02
              0.329856508289101E+02
             -0.137881433529060E+02
             -0.464593970721655E+02
             -0.762276447584196E+02
             -0.529215133411188E+01
             -0.860929979748406E+02
              0.199690716087193E+02
             -0.247691290134976E+02
              0.306293201090614E+02
              0.237357397572697E+02
             -0.241474827687525E+02
             -0.265746426874273E+02
              0.391486208496552E+02
             -0.588906629535016E+02
             -0.116835880662234E+02
             -0.196220281007698E+02
              0.213061650230738E+02
             -0.887991989603688E+01
              0.362748724682257E+01
             -0.200652187273162E+02
              0.559372428299752E+02
             -0.440425985138660E+02
              0.786265202380150E+01
              0.586014738977356E+02
             -0.323864705981116E+02
              0.361476832971670E+01
             -0.880163276235123E+01
             -0.669970184986215E+02
             -0.482759388569905E+02
             -0.860069498358706E+01
              0.241215906489032E+02
              0.302863861201061E+02
              0.859294087834087E+01
             -0.418110551719280E+01
              0.151911955311903E+02
             -0.440224901700416E+02
              0.331691723156018E+01
             -0.531732677040013E+02
             -0.325183749984377E+02
              0.475393441768676E+02
             -0.295550801704184E+02
              0.623340756539674E+02
             -0.214968961080889E+02
              0.353992519918045E+02
              0.241969236861012E+02
             -0.644745851641213E+02
             -0.280605672945059E+02
              0.935192916965025E+01
             -0.372379570031989E+02
             -0.340126814095582E+02
             -0.831185422280516E+02
             -0.539855851622302E+02
             -0.510942149313310E+02
             -0.416188193329117E+02
             -0.993571587813278E+00
              0.100061485923734E+02
              0.107126472909587E+01
              0.153727772788467E+02
             -0.550018304259723E+02
              0.141963405464529E+02
              0.257195877028096E+02
             -0.667600209912649E+02
             -0.702556001094101E+02
             -0.431802386078758E+02
             -0.172538936627691E+02
              0.178506396039953E+02
              0.454098578229639E+01
             -0.426432668667534E+02
              0.366403220078338E+02
             -0.216586645410129E+02
              0.518080681073072E+02
             -0.888324265959438E+02
              0.598626488940511E+02
             -0.216369128777236E+01
             -0.368932509811017E+02
             -0.216751592090576E+02
              0.471649008274814E+01
              0.375405821876446E+02
             -0.756974903269425E+02
             -0.120942909527943E+02
             -0.216786628310862E+02
              0.511383857563382E+02
              0.865747493382160E+02
             -0.966463393779961E+02
              0.945069711516445E+02
              0.468086760437419E+02
             -0.726364692391507E+02
             -0.366830788852871E+02
              0.752896889858867E+02
              0.632633408451728E+02
             -0.181290073340194E+02
             -0.465168890241603E+01
              0.735648488160528E+01
              0.650120528377983E+02
             -0.509252708350147E+02
              0.158404103629454E+02
             -0.473999747016707E+01
              0.347942155464632E+02
             -0.747728104335129E+02
             -0.647113641109929E+01
             -0.351190866202979E+02
              0.461313983690407E+02
              0.469243302503517E+02
             -0.862999173174571E+02
             -0.487556807988663E+02
             -0.256426004958208E+02
             -0.340100583024916E+02
             -0.109371754362169E+02
[...]
              0.283716991751570E+02
              0.141933149345712E+03
              0.242707078377314E+02
              0.122745424975708E+02
             -0.464848503845262E+02
             -0.638133246559042E+02
             -0.189005946799412E+02
              0.329847970773317E+02
             -0.427482303982583E+01
              0.190258772221597E+02
              0.336546909762041E+02
             -0.587092518139365E+02
              0.222653500191478E+02
              0.582100366185812E+02
              0.553395824641383E+02
             -0.421926405924802E+01
             -0.135046248268907E+01
             -0.993737100972794E+01
             -0.482567950277761E+02
             -0.675827751168268E+02
              0.786041636351076E+02
             -0.525149949403163E+01
             -0.588222305985780E+02
              0.174321180451710E+01
             -0.205683337141944E+02
              0.939139133095986E+02
             -0.216807803742685E+02
             -0.354085478539854E+02
              0.335685633766149E+02
             -0.145933827736989E+02
              0.390065621535949E+02
             -0.234982560969797E+01
              0.101158117937852E+03
              0.490365551044536E+02
             -0.505795632704148E+01
             -0.322419202517871E+02
              0.232619098322439E+02
             -0.528992219773173E+02
             -0.127868661382528E+02
              0.586340707280338E+02
             -0.287896779171911E+02
             -0.438689956628772E+02
             -0.223536664809756E+02
              0.519183601175685E+02
              0.124867421285522E+02
             -0.849525916790498E+02
              0.304159176016870E+02
              0.151822149642011E+02
              0.578474387913585E+01
             -0.513887220556530E+02
             -0.375684711592595E+01
              0.323424463277266E+02
              0.513020271302765E+02
              0.633323084839561E+02
              0.229418930652666E+02
              0.780224599645436E+00
             -0.498660168726348E+02
             -0.510322176177082E+02
             -0.748225707775331E+02
             -0.617650833954349E+01
              0.309282651501481E+02
             -0.376807911200913E+01
              0.547339310792133E+02
             -0.318308990565416E+02
              0.166719471669632E+02
             -0.103051738909896E+02
             -0.289711634121256E+02
              0.586153008834713E+02
              0.792402208602948E+01
              0.604897206543307E+02
              0.509359986673053E+01
              0.265049525681479E+02
             -0.192865497969734E+02
              0.586646198402906E+02
             -0.111680553352752E+02
             -0.126637572280067E+00
             -0.790856504973959E+02
             -0.128315658924958E+02
              0.719606646211972E+02
              0.673619487465982E+02
              0.252189730692148E+02
             -0.130657118771475E+02
              0.345436006796851E+01
             -0.173911831652546E+02
             -0.211346653076276E+01
              0.908692371113707E+02
              0.127216940727192E+01
             -0.190826854024261E+02
             -0.110838458861407E+03
             -0.552723371954408E+02
             -0.375339721321658E+02
             -0.659024233596080E+02
             -0.556055040953363E+02
             -0.683130470552589E+02
             -0.447447123250911E+02
             -0.410952185945430E+02
             -0.452418317894332E+02
              0.483816736264167E+02
             -0.294139686336390E+02
             -0.995765293512964E+02
              0.419192999644199E+02
             -0.260338395096223E+02
             -0.791560493878461E+02
              0.944766563310783E+02
             -0.219964321224942E+02
              0.228134564462313E+02
              0.455316370810681E+02
             -0.131021578883747E+01
              0.254712087971653E+02
              0.470792306176895E+01
              0.425954821226341E+00
             -0.150680689946810E+02
             -0.716325005914201E+02
              0.133258921651048E+02
             -0.129463271060902E+03
              0.624961410255452E+02
             -0.440925892026200E+02
             -0.163363180601600E+02
             -0.158556318271887E+02
              0.717793145295072E+01
             -0.227752116696616E+02
              0.297332431309137E+02
             -0.521222156503376E+02
              0.367343749351657E+02
              0.371250868662875E+02
              0.168311684099414E+02
              0.100541740093987E+02
              0.198048126064469E+02
              0.623782460966669E+01
              0.310529647456252E+02
             -0.797097029821234E+01
             -0.593236522664427E+02
              0.757754064207541E+01
             -0.153044500321118E+02
             -0.193108941944456E+01
              0.506864386331163E+02
             -0.827412039956378E+02
             -0.149907957740834E+01
              0.586962966480939E+00
              0.996815037312746E+01
              0.318663984136619E+02
             -0.123611155161865E+02
              0.836535531116710E+02
              0.487687800694342E+02
             -0.183308580656684E+02
             -0.956170675090704E+01
              0.107675662526637E+01
              0.770234505849066E+02
             -0.586613090321023E+02
             -0.105844505072504E+03
              0.309414112235150E+02
             -0.163186026219475E+02
             -0.139587604000059E+02
              0.130817926678872E+02
              0.769083018883290E+02
              0.464362096706793E+02
             -0.153540725289423E+02
             -0.503575875862404E+02
             -0.552145057290332E+01
              0.306609206590042E+02
             -0.111808860026129E+02
             -0.756490084490774E+02
             -0.273514308678440E+01
             -0.890908725299127E+02
             -0.476223854844467E+02
              0.769422044531055E+02
             -0.483992165040847E+02
             -0.637194094065537E+02
             -0.514671537175907E+02
             -0.350190279010931E+02
              0.341168498648345E+02
              0.822380601947075E+02
             -0.358812251954430E+01
              0.276801518610200E+02
             -0.184037628363285E+02
             -0.694596432981912E+02
              0.465454578865474E+02
             -0.445478091408744E+02
              0.321820077985511E+02
              0.376329837111189E+02
             -0.658475117366277E+01
              0.390612715934918E+02
              0.438529159377512E+02
              0.100797033068517E+03
             -0.155927568769615E+02
             -0.456892640098563E+02
             -0.613403128065315E+02
             -0.124282045752153E+02
             -0.233561198825955E+02
              0.103062869898516E+03
             -0.449277449502174E+02
              0.105361771064811E+02
              0.970952215742790E+01
             -0.264636694799962E+02
             -0.799650060571738E+02
             -0.699315334348034E+01
              0.980723022907148E+02
              0.942844503292763E+01
              0.809241619975057E+01
             -0.527719092047347E+02
             -0.605926826824632E+02
             -0.567369214374042E+01
              0.500772228024803E+02
             -0.222141938707376E+02
              0.108045071981360E+03
             -0.436024239573558E+02
              0.146574199886780E+02
             -0.224077305938262E+02
             -0.718936096263430E+02
              0.169668209805616E+01
             -0.502247986387365E+02
             -0.761288346907013E+02
              0.617942309709463E+01
              0.237143854901467E+01
              0.514519348758374E+02
              0.187608901271340E+02
             -0.323862644600056E+02
              0.230115354520534E+02
             -0.811868551571522E+02
             -0.522054507062479E+02
              0.902518321200300E+02
              0.142230403302337E+02
             -0.187845773652012E+02
             -0.352441027108302E+02
             -0.269167377565213E+01
             -0.589640026154370E+01
              0.830987558850290E+02
              0.417989362428659E+02
             -0.165975301911230E+02
             -0.121673468757587E+02
             -0.427850753868724E+02
             -0.200577069590939E+02
             -0.670406185323299E+02
              0.460043674634656E+02
              0.546469549692586E+01
              0.144806983705603E+02
              0.156419248209112E+02
             -0.593643123137255E+00
             -0.168697920698613E+02
             -0.304324113543491E+01
             -0.100538995935935E+03
             -0.229730650273095E+02
             -0.766214426080603E+01
             -0.948157077462642E+01
              0.546677920708010E+02
              0.624398588310779E+02
              0.165072325935423E+02
             -0.971304330887244E+02
              0.648086263888800E+02
             -0.215234625918003E+02
             -0.377316797358826E+02
             -0.864927414647455E+02
             -0.386921947213428E+02
              0.565204293841996E+02
              0.244516401509248E+02
              0.515111628873700E+01
              0.292645189265154E+02
             -0.565324428301239E+02
             -0.422861129355879E+02
              0.515847258741286E+02
              0.387618413147540E+02
              0.519174990879404E+02
             -0.118697599981141E+01
              0.686274551913709E+01
              0.569893089619385E+02
              0.963466697766698E+02
             -0.300214911331493E+02
              0.323206772950973E+02
             -0.119177740783765E+02
             -0.412460289354180E+02
             -0.314564166905012E+02
             -0.300559449533706E+02
             -0.131494008924261E+02
             -0.523788724062513E+02
             -0.217198642770454E+02
             -0.141248819888921E+03
              0.369004612816197E+02
              0.207216760915490E+02
             -0.394680410167216E+01
             -0.380221367014102E+02
             -0.204230177414207E+02
             -0.527397233969108E+02
              0.151001250300718E+02
              0.820568163280348E+02
             -0.252347044488142E+02
             -0.163179322602701E+02
              0.238283470504674E+02
             -0.489783398562435E+02
              0.881046271253114E+02
              0.154409491561989E+02
              0.226122220751038E+02
              0.490649493077985E+02
              0.318538858585731E+01
              0.542638811415459E+02
              0.143276900073409E+02
             -0.106301673077219E+02
              0.733860700185716E+01
              0.776854646406264E+00
              0.727615765073531E+02
              0.101062675334035E+02
              0.120829733681034E+02
             -0.130104137124285E+02
              0.132327679157894E+02
             -0.911939387599959E+02
             -0.325953429663258E+02
             -0.457906315855763E+02
              0.485548125480893E+02
             -0.291507416686408E+02
             -0.658688880467269E+02
              0.538951100033319E+02
             -0.122088083176445E+02
              0.440284551437597E+02
             -0.899312235608003E+02
              0.231852737798228E+02
              0.857273850040002E+01
              0.584812213254418E+01
             -0.835101638123507E+01
             -0.904552006836286E+01
              0.479759747499075E+02
              0.200262550267104E+01
             -0.475669465524828E+02
             -0.176361962203846E+02
              0.276642436877443E+02
             -0.118003568773605E+03
             -0.930229139664972E+02
              0.396188298107256E+01
              0.117928180069094E+02
             -0.413727558295799E+02
             -0.386640074456545E+01
              0.112175976788251E+03
              0.306624602312106E+02
             -0.571923261941911E+02
              0.925988351592116E+01
             -0.966373405540469E+01
              0.105707566255731E+02
             -0.337975767186425E+02
              0.195722434611944E+02
              0.284705375939839E+02
             -0.301333714462203E+01
              0.108267885491925E+03
             -0.140094737604425E+02
             -0.316143607837728E+02
              0.143473684777460E+02
              0.466930534076841E+02
             -0.355901742457955E+02
             -0.317696388944912E+01
              0.965553821444415E+02
             -0.464380102074472E+01
              0.622013705312513E+02
              0.135540674221549E+02
             -0.902065306391702E+01
             -0.305311724696724E+02
              0.566782415570006E+02
             -0.514812841706935E+02
             -0.219923346549984E+01
             -0.170313394622875E+02
             -0.405384772131886E+02
              0.184902208016300E+02
              0.239472679734657E+02
              0.115830793822597E+02
              0.727995478495473E+00
             -0.384997262222047E+02
              0.215502333101728E+02
             -0.674307647951005E+01
             -0.246664265169078E+02
             -0.210683709408443E+02
              0.203332084587514E+02
             -0.594627953029817E+01
             -0.349516174310693E+02
             -0.106708393206881E+03
              0.103032741390754E+02
              0.248563555790997E+02
             -0.387724605648819E+02
             -0.211221863973312E+02
              0.807639840405582E+02
              0.654003497947633E+01
              0.311385005607187E+02
              0.393160305285815E+01
              0.322319868801431E+02
              0.645338816676917E+01
             -0.373285876342099E+02
             -0.235667696597383E+01
              0.876003490827122E+01
              0.274230060171697E+02
              0.782293492308766E+02
              0.507861093894755E+02
              0.186487354709129E+00
              0.169097664710703E+02
              0.613663003134703E+02
              0.236200107841736E+02
             -0.753275008587119E+02
             -0.273934665404034E+02
              0.150919242983474E+02
              0.563299264872626E+01
              0.255260647954005E+02
             -0.548124960378289E+02
              0.898071316524148E+01
              0.386288567836672E+02
              0.498405449549610E+02
             -0.435263200041625E+02
             -0.687840436668898E+01
             -0.208570405893698E+01
             -0.134113173349972E+02
             -0.365673239858472E+02
             -0.215191970163471E+02
             -0.206169221630621E+01
              0.794371192364622E+01
              0.421696458844239E+02
             -0.308692946447464E+02
              0.826771646840837E+02
              0.327744904513187E+02
              0.219953366476490E+02
              0.333332523419225E+02
              0.323177755796192E+02
              0.346525636277057E+02
              0.537652403516595E+02
             -0.434265103281662E+02
              0.620033101516076E+02
             -0.112357838905945E+03
              0.307642274821046E+02
             -0.106603892519196E+03
              0.855335046046221E+02
              0.691321559476867E+02
             -0.109910832912112E+02
             -0.493536486533077E+02
             -0.429873446976236E+02
             -0.623817531272090E+02
             -0.629338847360174E+02
              0.552168757855260E+02
              0.405831398964171E+02
              0.237062226604249E+02
              0.373850706918414E+02
              0.403746526452106E+02
             -0.382516290835472E+02
             -0.197925636272673E+02
              0.586765187502906E+02
             -0.116072168873156E+02
              0.552092771413618E+02
              0.700160311512258E+02
             -0.555112230675533E+01
             -0.706941654720449E+02
             -0.887433518874900E+00
             -0.246864676236240E+01
             -0.883869854915304E+01
             -0.178869018375190E+01
             -0.653381469130401E+02
             -0.210603236924090E+02
              0.541418440351059E+01
              0.901095451891695E+01
              0.469385629942424E+02
             -0.398251299542331E+02
              0.657503823784491E+02
             -0.425595087035177E+02
              0.210721323869225E+02
              0.350787637445189E+02
 
 BEEF-vdW xc energy contributions
           1 :   -783.469628031101     
           2 :    719.782557730669     
           3 :   -609.421102967692     
           4 :    479.365056450202     
           5 :   -357.142269846544     
           6 :    262.677235171282     
           7 :   -203.717577665812     
           8 :    175.764400541756     
           9 :   -166.096779662257     
          10 :    159.972707720520     
          11 :   -146.466184567941     
          12 :    121.737637291771     
          13 :   -88.8854749675941     
          14 :    55.0099025483352     
          15 :   -27.1846093407080     
          16 :    9.16407983073054     
          17 :  -0.106854387491126     
          18 :   -4.43727372861076     
          19 :    10.0020166543379     
          20 :   -20.4783459682528     
          21 :    36.4405205526167     
          22 :   -55.1798051315335     
          23 :    72.2551959967672     
          24 :   -83.7136276755103     
          25 :    87.8882701902912     
          26 :   -85.9864488374184     
          27 :    81.2966390967832     
          28 :   -77.4945944049902     
          29 :    76.8993773506469     
          30 :   -79.5030199525052     
          31 :   -85.9897984468369     
          32 :   -65.9186616907067     

     Writing output data file ./pwscf.save/
 
     init_run     :    349.59s CPU    354.03s WALL (       1 calls)
     electrons    :  14673.20s CPU  14808.78s WALL (       1 calls)
     forces       :    103.03s CPU    104.25s WALL (       1 calls)

     Called by init_run:
     wfcinit      :    302.44s CPU    305.90s WALL (       1 calls)
     potinit      :     44.24s CPU     44.58s WALL (       1 calls)
     hinit0       :      1.15s CPU      1.18s WALL (       1 calls)

     Called by electrons:
     c_bands      :  12232.93s CPU  12338.73s WALL (      21 calls)
     sum_band     :   1742.78s CPU   1755.57s WALL (      21 calls)
     v_of_rho     :    116.11s CPU    120.89s WALL (      22 calls)
     newd         :     32.85s CPU     45.07s WALL (      22 calls)
     PAW_pot      :    147.03s CPU    147.03s WALL (      22 calls)
     mix_rho      :    446.35s CPU    447.19s WALL (      21 calls)
     vdW_kernel   :     33.45s CPU     33.46s WALL (       1 calls)

     Called by c_bands:
     init_us_2    :     80.72s CPU     80.99s WALL (     572 calls)
     cegterg      :  11376.03s CPU  11480.98s WALL (     273 calls)

     Called by *egterg:
     cdiaghg      :    121.99s CPU    122.03s WALL (    1763 calls)
     h_psi        :   7391.15s CPU   7428.10s WALL (    1776 calls)
     s_psi        :   1190.83s CPU   1191.03s WALL (    1776 calls)
     g_psi        :     17.00s CPU     17.01s WALL (    1490 calls)

     Called by h_psi:
     h_psi:calbec :   1107.38s CPU   1107.91s WALL (    1776 calls)
     vloc_psi     :   5065.72s CPU   5067.52s WALL (    1776 calls)
     add_vuspsi   :   1190.45s CPU   1190.70s WALL (    1776 calls)

     General routines
     calbec       :   1617.78s CPU   1618.44s WALL (    2101 calls)
     fft          :     53.14s CPU     53.17s WALL (    3341 calls)
     ffts         :    147.78s CPU    147.83s WALL (    9611 calls)
     fftw         :   5185.82s CPU   5187.03s WALL (  351008 calls)
 
     Parallel routines
 
     PWSCF        :      4h13m CPU      4h16m WALL

 
   This run was terminated on:  19:42: 2  23Jan2023            

=------------------------------------------------------------------------------=
   JOB DONE.
=------------------------------------------------------------------------------=
