
     Program PWSCF v.6.7MaX starts on  4Jan2023 at 10:21:56 

     This program is part of the open-source Quantum ESPRESSO suite
     for quantum simulation of materials; please cite
         "P. Giannozzi et al., J. Phys.:Condens. Matter 21 395502 (2009);
         "P. Giannozzi et al., J. Phys.:Condens. Matter 29 465901 (2017);
          URL http://www.quantum-espresso.org", 
     in publications or presentations arising from this work. More details at
     http://www.quantum-espresso.org/quote

     Parallel version (MPI), running on     1 processors

     MPI processes distributed on     1 nodes
     Reading input from chchc-tri-ensemble.in
Warning: card &CELL ignored
Warning: card / ignored

     Current dimensions of program PWSCF are:
     Max number of different atomic species (ntypx) = 10
     Max number of k-points (npk) =  40000
     Max angular momentum in pseudopotentials (lmaxx) =  3
     file Pt.pbe-n-kjpaw_psl.1.0.0.UPF: wavefunction(s)  6S 5D renormalized
     file C.pbe-n-kjpaw_psl.1.0.0.UPF: wavefunction(s)  2S 2P renormalized
     file H.pbe-kjpaw_psl.1.0.0.UPF: wavefunction(s)  1S renormalized

     **************************************************************************
     Initializing libbeef V0.1.2 with the BEEF-vdW functional.
     Citation: Wellendorff et al., PRB 85, 235149 (2012).
     **************************************************************************


     IMPORTANT: XC functional enforced from input :
     Exchange-correlation= BEEF-VDW
                           (   1   4  43  14   2   0   0)
     Any further DFT definition will be discarded
     Please, verify this is what you really want


     Subspace diagonalization in iterative solution of the eigenvalue problem:
     a serial algorithm will be used

 
     G-vector sticks info
     --------------------
     sticks:   dense  smooth     PW     G-vecs:    dense   smooth      PW
     Sum        4267    4267   1159               712769   712769  100445
 


     bravais-lattice index     =            0
     lattice parameter (alat)  =      16.0349  a.u.
     unit-cell volume          =   11348.3981 (a.u.)^3
     number of atoms/cell      =           41
     number of atomic types    =            3
     number of electrons       =       374.00
     number of Kohn-Sham states=          224
     kinetic-energy cutoff     =      60.0000  Ry
     charge density cutoff     =     240.0000  Ry
     scf convergence threshold =      1.0E-06
     mixing beta               =       0.7000
     number of iterations used =            8  local-TF  mixing
     Exchange-correlation= BEEF-VDW
                           (   1   4  43  14   2   0   0)

     celldm(1)=  16.034858  celldm(2)=   0.000000  celldm(3)=   0.000000
     celldm(4)=   0.000000  celldm(5)=   0.000000  celldm(6)=   0.000000

     crystal axes: (cart. coord. in units of alat)
               a(1) = (   1.000000   0.000000   0.000000 )  
               a(2) = (   0.500000   0.866025   0.000000 )  
               a(3) = (   0.000000   0.000000   3.178400 )  

     reciprocal axes: (cart. coord. in units 2 pi/alat)
               b(1) = (  1.000000 -0.577350  0.000000 )  
               b(2) = (  0.000000  1.154701  0.000000 )  
               b(3) = (  0.000000  0.000000  0.314624 )  


     PseudoPot. # 1 for Pt read from file:
     /users/bkreitz1/quantum-espresso/potentials/Pt.pbe-n-kjpaw_psl.1.0.0.UPF
     MD5 check sum: 04dc8a03c51ece93fc7b5889c2958091
     Pseudo is Projector augmented-wave + core cor, Zval = 10.0
     Generated using 'atomic' code by A. Dal Corso  v.6.7MaX
     Shape of augmentation charge: PSQ
     Using radial grid of 1277 points,  6 beta functions with: 
                l(1) =   0
                l(2) =   0
                l(3) =   1
                l(4) =   1
                l(5) =   2
                l(6) =   2
     Q(r) pseudized with 0 coefficients 


     PseudoPot. # 2 for C  read from file:
     /users/bkreitz1/quantum-espresso/potentials/C.pbe-n-kjpaw_psl.1.0.0.UPF
     MD5 check sum: a169b0ebad56f5ec0d79c4633f80bf22
     Pseudo is Projector augmented-wave + core cor, Zval =  4.0
     Generated using 'atomic' code by A. Dal Corso  v.6.7MaX
     Shape of augmentation charge: PSQ
     Using radial grid of 1073 points,  4 beta functions with: 
                l(1) =   0
                l(2) =   0
                l(3) =   1
                l(4) =   1
     Q(r) pseudized with 0 coefficients 


     PseudoPot. # 3 for H  read from file:
     /users/bkreitz1/quantum-espresso/potentials/H.pbe-kjpaw_psl.1.0.0.UPF
     MD5 check sum: ae98473e6dc62675f0d0baffdab24f65
     Pseudo is Projector augmented-wave, Zval =  1.0
     Generated using 'atomic' code by A. Dal Corso  v.6.7MaX
     Shape of augmentation charge: PSQ
     Using radial grid of  929 points,  2 beta functions with: 
                l(1) =   0
                l(2) =   0
     Q(r) pseudized with 0 coefficients 


     atomic species   valence    mass     pseudopotential
        Pt            10.00   195.08400     Pt( 1.00)
        C              4.00    12.01100     C ( 1.00)
        H              1.00     1.00800     H ( 1.00)

     No symmetry found



   Cartesian axes

     site n.     atom                  positions (alat units)
         1           Pt  tau(   1) = (   0.0000000   0.0000000   1.0017346  )
         2           Pt  tau(   2) = (   0.3333333   0.0000000   1.0017346  )
         3           Pt  tau(   3) = (   0.6666667   0.0000000   1.0017346  )
         4           Pt  tau(   4) = (   0.1666667   0.2886751   1.0017346  )
         5           Pt  tau(   5) = (   0.5000000   0.2886751   1.0017346  )
         6           Pt  tau(   6) = (   0.8333333   0.2886751   1.0017346  )
         7           Pt  tau(   7) = (   0.3333333   0.5773503   1.0017346  )
         8           Pt  tau(   8) = (   0.6666667   0.5773503   1.0017346  )
         9           Pt  tau(   9) = (   1.0000000   0.5773503   1.0017346  )
        10           Pt  tau(  10) = (   0.1666667   0.0962250   1.2739001  )
        11           Pt  tau(  11) = (   0.5000000   0.0962250   1.2739001  )
        12           Pt  tau(  12) = (   0.8333333   0.0962250   1.2739001  )
        13           Pt  tau(  13) = (   0.3333333   0.3849002   1.2739001  )
        14           Pt  tau(  14) = (   0.6666667   0.3849002   1.2739001  )
        15           Pt  tau(  15) = (   1.0000000   0.3849002   1.2739001  )
        16           Pt  tau(  16) = (   0.5000000   0.6735753   1.2739001  )
        17           Pt  tau(  17) = (   0.8333333   0.6735753   1.2739001  )
        18           Pt  tau(  18) = (   1.1666667   0.6735753   1.2739001  )
        19           Pt  tau(  19) = (   0.0005202   0.1911877   1.5485166  )
        20           Pt  tau(  20) = (   0.3406988   0.1930673   1.5479089  )
        21           Pt  tau(  21) = (   0.6690525   0.1896039   1.5464776  )
        22           Pt  tau(  22) = (   0.1663837   0.4793875   1.5477929  )
        23           Pt  tau(  23) = (   0.5020443   0.4781270   1.5457884  )
        24           Pt  tau(  24) = (   0.8365203   0.4777166   1.5451837  )
        25           Pt  tau(  25) = (   0.3366327   0.7658931   1.5413137  )
        26           Pt  tau(  26) = (   0.6704611   0.7692555   1.5395465  )
        27           Pt  tau(  27) = (   1.0023839   0.7643694   1.5445889  )
        28           Pt  tau(  28) = (   0.0095443  -0.0119546   1.8163043  )
        29           Pt  tau(  29) = (   0.3400907  -0.0028485   1.8159680  )
        30           Pt  tau(  30) = (   0.6715578  -0.0150341   1.8133276  )
        31           Pt  tau(  31) = (   0.1793941   0.2801270   1.8197660  )
        32           Pt  tau(  32) = (   0.5070016   0.2834117   1.8434876  )
        33           Pt  tau(  33) = (   0.8501378   0.2642154   1.8311558  )
        34           Pt  tau(  34) = (   0.3361505   0.5701373   1.8198172  )
        35           Pt  tau(  35) = (   0.6670537   0.5775235   1.8139327  )
        36           Pt  tau(  36) = (   1.0096129   0.5713284   1.8465200  )
        37           C   tau(  37) = (   0.6483008   0.2708514   2.0324539  )
        38           C   tau(  38) = (   0.7772735   0.3690003   2.0714750  )
        39           C   tau(  39) = (   0.8239557   0.4818508   1.9538091  )
        40           H   tau(  40) = (   0.6220953   0.1754639   2.1142996  )
        41           H   tau(  41) = (   0.8461029   0.3490631   2.1789167  )

     number of k points=    13  Marzari-Vanderbilt smearing, width (Ry)=  0.0200
                       cart. coord. in units 2pi/alat
        k(    1) = (   0.0000000   0.0000000   0.0000000), wk =   0.0800000
        k(    2) = (   0.0000000   0.2309401   0.0000000), wk =   0.1600000
        k(    3) = (   0.0000000   0.4618802   0.0000000), wk =   0.1600000
        k(    4) = (   0.2000000  -0.1154701   0.0000000), wk =   0.1600000
        k(    5) = (   0.2000000   0.1154701   0.0000000), wk =   0.1600000
        k(    6) = (   0.2000000   0.3464102   0.0000000), wk =   0.1600000
        k(    7) = (   0.2000000  -0.5773503   0.0000000), wk =   0.1600000
        k(    8) = (   0.2000000  -0.3464102   0.0000000), wk =   0.1600000
        k(    9) = (   0.4000000  -0.2309401   0.0000000), wk =   0.1600000
        k(   10) = (   0.4000000  -0.0000000   0.0000000), wk =   0.1600000
        k(   11) = (   0.4000000   0.2309401   0.0000000), wk =   0.1600000
        k(   12) = (   0.4000000  -0.6928203   0.0000000), wk =   0.1600000
        k(   13) = (   0.4000000  -0.4618802   0.0000000), wk =   0.1600000

     Dense  grid:   712769 G-vectors     FFT dimensions: (  80,  80, 256)

     Estimated max dynamical RAM per process >       8.61 GB

     Check: negative core charge=   -0.000002

     Initial potential from superposition of free atoms

     starting charge  373.99375, renormalised to  374.00000

     negative rho (up, down):  1.199E-02 0.000E+00


     %%%%%%%%%%%%%%%%%%%%%%%%%%%%%%%%%%%%%%%%%%%%%%%%%%%%%%%%%%%%%%%%%%%%%%%%
     %                                                                      %
     % You are using vdW-DF, which was implemented by the Thonhauser group. %
     % Please cite the following two papers that made this development      %
     % possible and the two reviews that describe the various versions:     %
     %                                                                      %
     %   T. Thonhauser et al., PRL 115, 136402 (2015).                      %
     %   T. Thonhauser et al., PRB 76, 125112 (2007).                       %
     %   K. Berland et al., Rep. Prog. Phys. 78, 066501 (2015).             %
     %   D.C. Langreth et al., J. Phys.: Condens. Matter 21, 084203 (2009). %
     %                                                                      %
     %                                                                      %
     % If you are calculating the stress with vdW-DF, please also cite:     %
     %                                                                      %
     %   R. Sabatini et al., J. Phys.: Condens. Matter 24, 424209 (2012).   %
     %                                                                      %
     %%%%%%%%%%%%%%%%%%%%%%%%%%%%%%%%%%%%%%%%%%%%%%%%%%%%%%%%%%%%%%%%%%%%%%%%


     Starting wfcs are  338 randomized atomic wfcs
     Checking if some PAW data can be deallocated... 

     total cpu time spent up to now is      338.5 secs

     Self-consistent Calculation

     iteration #  1     ecut=    60.00 Ry     beta= 0.70
     Davidson diagonalization with overlap
     ethr =  1.00E-02,  avg # of iterations =  2.0

     Threshold (ethr) on eigenvalues was too large:
     Diagonalizing with lowered threshold

     Davidson diagonalization with overlap
     ethr =  8.06E-04,  avg # of iterations =  2.8

     negative rho (up, down):  1.310E-02 0.000E+00

     total cpu time spent up to now is     1630.0 secs

     total energy              =  -27813.20341974 Ry
     estimated scf accuracy    <       3.31718256 Ry

     iteration #  2     ecut=    60.00 Ry     beta= 0.70
     Davidson diagonalization with overlap
     ethr =  8.87E-04,  avg # of iterations =  2.0

     negative rho (up, down):  1.113E-02 0.000E+00

     total cpu time spent up to now is     2229.7 secs

     total energy              =  -27813.47097731 Ry
     estimated scf accuracy    <       1.39276193 Ry

     iteration #  3     ecut=    60.00 Ry     beta= 0.70
     Davidson diagonalization with overlap
     ethr =  3.72E-04,  avg # of iterations =  1.9

     negative rho (up, down):  8.983E-03 0.000E+00

     total cpu time spent up to now is     2818.1 secs

     total energy              =  -27813.54183112 Ry
     estimated scf accuracy    <       0.67665128 Ry

     iteration #  4     ecut=    60.00 Ry     beta= 0.70
     Davidson diagonalization with overlap
     ethr =  1.81E-04,  avg # of iterations =  2.0

     negative rho (up, down):  6.852E-03 0.000E+00

     total cpu time spent up to now is     3421.2 secs

     total energy              =  -27813.57910613 Ry
     estimated scf accuracy    <       0.10928938 Ry

     iteration #  5     ecut=    60.00 Ry     beta= 0.70
     Davidson diagonalization with overlap
     c_bands:  1 eigenvalues not converged
     c_bands:  1 eigenvalues not converged
     ethr =  2.92E-05,  avg # of iterations = 17.6

     negative rho (up, down):  5.268E-03 0.000E+00

     total cpu time spent up to now is     4456.5 secs

     total energy              =  -27813.60995266 Ry
     estimated scf accuracy    <       0.08741719 Ry

     iteration #  6     ecut=    60.00 Ry     beta= 0.70
     Davidson diagonalization with overlap
     ethr =  2.34E-05,  avg # of iterations =  1.1

     negative rho (up, down):  4.090E-03 0.000E+00

     total cpu time spent up to now is     5034.3 secs

     total energy              =  -27813.61194114 Ry
     estimated scf accuracy    <       0.01491554 Ry

     iteration #  7     ecut=    60.00 Ry     beta= 0.70
     Davidson diagonalization with overlap
     c_bands:  1 eigenvalues not converged
     c_bands:  1 eigenvalues not converged
     c_bands:  1 eigenvalues not converged
     c_bands:  1 eigenvalues not converged
     ethr =  3.99E-06,  avg # of iterations = 12.5

     negative rho (up, down):  3.662E-03 0.000E+00

     total cpu time spent up to now is     5774.8 secs

     total energy              =  -27813.61327539 Ry
     estimated scf accuracy    <       0.00572511 Ry

     iteration #  8     ecut=    60.00 Ry     beta= 0.70
     Davidson diagonalization with overlap
     ethr =  1.53E-06,  avg # of iterations =  4.1

     negative rho (up, down):  3.584E-03 0.000E+00

     total cpu time spent up to now is     6398.9 secs

     total energy              =  -27813.61371156 Ry
     estimated scf accuracy    <       0.00270515 Ry

     iteration #  9     ecut=    60.00 Ry     beta= 0.70
     Davidson diagonalization with overlap
     ethr =  7.23E-07,  avg # of iterations =  2.0

     negative rho (up, down):  4.048E-03 0.000E+00

     total cpu time spent up to now is     7013.9 secs

     total energy              =  -27813.61389136 Ry
     estimated scf accuracy    <       0.00208563 Ry

     iteration # 10     ecut=    60.00 Ry     beta= 0.70
     Davidson diagonalization with overlap
     c_bands:  2 eigenvalues not converged
     c_bands:  2 eigenvalues not converged
     c_bands:  2 eigenvalues not converged
     c_bands:  1 eigenvalues not converged
     ethr =  5.58E-07,  avg # of iterations = 10.3

     negative rho (up, down):  4.954E-03 0.000E+00

     total cpu time spent up to now is     7682.5 secs

     total energy              =  -27813.61395867 Ry
     estimated scf accuracy    <       0.00172159 Ry

     iteration # 11     ecut=    60.00 Ry     beta= 0.70
     Davidson diagonalization with overlap
     ethr =  4.60E-07,  avg # of iterations =  5.8

     negative rho (up, down):  6.812E-03 0.000E+00

     total cpu time spent up to now is     8295.3 secs

     total energy              =  -27813.61399319 Ry
     estimated scf accuracy    <       0.00088540 Ry

     iteration # 12     ecut=    60.00 Ry     beta= 0.70
     Davidson diagonalization with overlap
     ethr =  2.37E-07,  avg # of iterations =  1.9

     negative rho (up, down):  7.601E-03 0.000E+00

     total cpu time spent up to now is     8875.0 secs

     total energy              =  -27813.61404893 Ry
     estimated scf accuracy    <       0.00037105 Ry

     iteration # 13     ecut=    60.00 Ry     beta= 0.70
     Davidson diagonalization with overlap
     ethr =  9.92E-08,  avg # of iterations =  2.0

     negative rho (up, down):  9.872E-03 0.000E+00

     total cpu time spent up to now is     9480.5 secs

     total energy              =  -27813.61410887 Ry
     estimated scf accuracy    <       0.00016108 Ry

     iteration # 14     ecut=    60.00 Ry     beta= 0.70
     Davidson diagonalization with overlap
     ethr =  4.31E-08,  avg # of iterations =  2.3

     negative rho (up, down):  9.943E-03 0.000E+00

     total cpu time spent up to now is    10124.1 secs

     total energy              =  -27813.61414385 Ry
     estimated scf accuracy    <       0.00014131 Ry

     iteration # 15     ecut=    60.00 Ry     beta= 0.70
     Davidson diagonalization with overlap
     ethr =  3.78E-08,  avg # of iterations =  1.2

     negative rho (up, down):  1.188E-02 0.000E+00

     total cpu time spent up to now is    10665.5 secs

     total energy              =  -27813.61414200 Ry
     estimated scf accuracy    <       0.00007425 Ry

     iteration # 16     ecut=    60.00 Ry     beta= 0.70
     Davidson diagonalization with overlap
     ethr =  1.99E-08,  avg # of iterations =  2.0

     negative rho (up, down):  1.277E-02 0.000E+00

     total cpu time spent up to now is    11255.7 secs

     total energy              =  -27813.61414531 Ry
     estimated scf accuracy    <       0.00001452 Ry

     iteration # 17     ecut=    60.00 Ry     beta= 0.70
     Davidson diagonalization with overlap
     ethr =  3.88E-09,  avg # of iterations =  5.7

     negative rho (up, down):  1.300E-02 0.000E+00

     total cpu time spent up to now is    12252.7 secs

     total energy              =  -27813.61415169 Ry
     estimated scf accuracy    <       0.00000608 Ry

     iteration # 18     ecut=    60.00 Ry     beta= 0.70
     Davidson diagonalization with overlap
     ethr =  1.63E-09,  avg # of iterations =  2.2

     negative rho (up, down):  1.320E-02 0.000E+00

     total cpu time spent up to now is    12869.7 secs

     total energy              =  -27813.61415190 Ry
     estimated scf accuracy    <       0.00000415 Ry

     iteration # 19     ecut=    60.00 Ry     beta= 0.70
     Davidson diagonalization with overlap
     ethr =  1.11E-09,  avg # of iterations =  1.5

     negative rho (up, down):  1.317E-02 0.000E+00

     total cpu time spent up to now is    13410.5 secs

     End of self-consistent calculation

          k = 0.0000 0.0000 0.0000 ( 89069 PWs)   bands (ev):

   -14.4276 -10.6753  -7.8369  -6.6393  -6.1516  -5.3605  -4.8978  -4.6791
    -4.3775  -4.3218  -4.2943  -4.2776  -4.2761  -4.2334  -4.1749  -4.0823
    -3.8825  -3.7596  -3.7307  -3.7182  -3.6671  -3.5933  -3.5368  -3.4160
    -3.3500  -3.2889  -3.1847  -3.1487  -3.1272  -3.1049  -3.0656  -3.0483
    -3.0331  -2.9666  -2.9596  -2.9223  -2.9160  -2.8847  -2.8722  -2.8149
    -2.7854  -2.7785  -2.7599  -2.7396  -2.6642  -2.5370  -2.4762  -2.4172
    -2.3446  -2.2827  -2.2224  -2.2085  -2.1942  -2.1776  -2.1471  -2.0938
    -2.0797  -1.9919  -1.9529  -1.9450  -1.8755  -1.7240  -1.6856  -1.5594
    -1.4960  -1.4687  -1.4464  -1.4300  -1.4039  -1.3541  -1.3423  -1.2666
    -1.2456  -1.2286  -1.2103  -1.1980  -1.1840  -1.1677  -1.1451  -1.1326
    -1.1166  -1.1091  -1.0997  -1.0792  -1.0643  -1.0435  -1.0332  -1.0243
    -0.9955  -0.9791  -0.9342  -0.8666  -0.8251  -0.7678  -0.7648  -0.7423
    -0.7180  -0.6969  -0.6943  -0.6669  -0.6535  -0.6499  -0.6198  -0.5739
    -0.5571  -0.5471  -0.5188  -0.5158  -0.5016  -0.4749  -0.4117  -0.3926
    -0.3515  -0.2964  -0.2433  -0.1605  -0.0748  -0.0266   0.0322   0.0827
     0.1193   0.1322   0.1433   0.1992   0.2500   0.2789   0.3009   0.3080
     0.3410   0.3497   0.3641   0.3773   0.3938   0.4228   0.4947   0.5740
     0.6193   0.6334   0.6528   0.7053   0.7291   0.7909   0.8050   0.8214
     0.8578   0.8850   0.9124   0.9334   0.9474   1.0055   1.0297   1.0619
     1.0964   1.1346   1.1550   1.1776   1.1929   1.2136   1.2757   1.2814
     1.2945   1.3063   1.3262   1.3301   1.3392   1.3506   1.3567   1.3650
     1.3828   1.3944   1.4288   1.4596   1.4935   1.5143   1.5412   1.5490
     1.5590   1.5745   1.6104   1.6343   1.6546   1.6633   1.6800   1.6822
     1.6946   1.7331   1.7424   1.7541   1.7776   1.7925   1.8329   1.8472
     1.8726   1.9657   2.0238   2.0561   2.0808   2.1071   2.1090   2.1364
     2.1519   2.3790   2.5981   2.6992   2.8514   2.9672   2.9995   3.2889
     3.7580   3.8709   4.5240   4.8931   5.2659   5.2933   5.4783   5.5387
     5.9871   6.0747   6.3112   6.7335   6.8463   6.9140   6.9661   6.9905

          k = 0.0000 0.2309 0.0000 ( 89048 PWs)   bands (ev):

   -14.4273 -10.6761  -7.8191  -6.5058  -6.1480  -5.2556  -4.9318  -4.7311
    -4.6220  -4.3959  -4.3130  -4.1870  -4.1487  -4.0727  -4.0303  -3.9658
    -3.8852  -3.8013  -3.7299  -3.6665  -3.6463  -3.5337  -3.4797  -3.3691
    -3.3228  -3.2926  -3.2068  -3.1640  -3.1505  -3.1143  -3.0919  -3.0627
    -3.0452  -2.9996  -2.9696  -2.9560  -2.9067  -2.8804  -2.8554  -2.8167
    -2.7742  -2.6985  -2.6725  -2.6208  -2.5945  -2.5430  -2.4737  -2.4269
    -2.3802  -2.3346  -2.2994  -2.2813  -2.2531  -2.2240  -2.1318  -2.0645
    -2.0412  -1.9985  -1.9557  -1.9223  -1.8797  -1.7935  -1.7071  -1.6737
    -1.6139  -1.5612  -1.5395  -1.5269  -1.4981  -1.4876  -1.4566  -1.4267
    -1.3935  -1.3552  -1.3239  -1.2629  -1.2471  -1.2383  -1.2039  -1.1659
    -1.1307  -1.0995  -1.0840  -1.0581  -1.0149  -1.0063  -0.9900  -0.9761
    -0.9635  -0.9493  -0.8851  -0.8500  -0.8416  -0.8151  -0.7917  -0.7790
    -0.7731  -0.7388  -0.7062  -0.6833  -0.6652  -0.6494  -0.6297  -0.6140
    -0.5977  -0.5855  -0.5672  -0.5562  -0.5258  -0.4711  -0.4485  -0.3743
    -0.3404  -0.3232  -0.3005  -0.2818  -0.2759  -0.2653  -0.2168  -0.1033
    -0.0345   0.0101   0.0526   0.0998   0.1199   0.1434   0.1597   0.2005
     0.2631   0.3046   0.3253   0.3857   0.4357   0.4724   0.5042   0.5228
     0.5425   0.5690   0.5957   0.6262   0.6756   0.7103   0.7394   0.7532
     0.7887   0.8223   0.8352   0.8816   0.9024   0.9131   0.9549   0.9920
     1.0174   1.0811   1.0917   1.1343   1.1572   1.1792   1.2092   1.2487
     1.2817   1.3063   1.3292   1.3519   1.3799   1.3973   1.4360   1.4600
     1.4978   1.5475   1.5764   1.6048   1.6218   1.6387   1.6612   1.6881
     1.7126   1.7320   1.7546   1.7834   1.8003   1.8181   1.8376   1.8566
     1.9204   1.9471   1.9666   1.9986   2.0255   2.0612   2.0763   2.0845
     2.1102   2.1286   2.1735   2.2013   2.2288   2.2616   2.3099   2.3727
     2.4040   2.4411   2.6972   2.8441   3.0569   3.3108   3.4316   3.5700
     3.9086   3.9871   4.4376   4.8838   5.0011   5.3927   5.5947   5.7413
     5.8284   6.0173   6.1185   6.2037   6.3858   6.7394   6.8427   6.9399

          k = 0.0000 0.4619 0.0000 ( 89078 PWs)   bands (ev):

   -14.4266 -10.6774  -7.7907  -6.2023  -6.0571  -5.4916  -4.9993  -4.7298
    -4.6170  -4.4328  -4.3088  -4.1861  -4.0141  -3.9344  -3.8611  -3.7760
    -3.7249  -3.6760  -3.6482  -3.5438  -3.5108  -3.4656  -3.4528  -3.4110
    -3.3334  -3.3039  -3.2902  -3.2768  -3.2529  -3.2016  -3.1826  -3.1281
    -3.0846  -2.9873  -2.9313  -2.8907  -2.8743  -2.8504  -2.7984  -2.7503
    -2.7292  -2.6966  -2.6321  -2.6072  -2.5704  -2.5223  -2.4568  -2.4370
    -2.3907  -2.3338  -2.3207  -2.2827  -2.2416  -2.1897  -2.1666  -2.1357
    -2.0946  -2.0825  -2.0161  -1.9676  -1.9312  -1.8925  -1.8661  -1.7914
    -1.7717  -1.7296  -1.6959  -1.6695  -1.6179  -1.5944  -1.5497  -1.5122
    -1.4871  -1.4389  -1.4141  -1.3869  -1.3671  -1.3453  -1.2921  -1.2394
    -1.2110  -1.1871  -1.1619  -1.1116  -1.0948  -1.0768  -1.0460  -1.0209
    -0.9952  -0.9814  -0.9645  -0.9522  -0.9167  -0.8881  -0.8849  -0.8574
    -0.8306  -0.8192  -0.7897  -0.7515  -0.7172  -0.6840  -0.6386  -0.6239
    -0.6100  -0.5878  -0.5558  -0.5256  -0.5080  -0.4651  -0.4283  -0.3878
    -0.3679  -0.3125  -0.3046  -0.2964  -0.2381  -0.2177  -0.1707  -0.0892
    -0.0768  -0.0431  -0.0015   0.0242   0.0592   0.0769   0.1047   0.1316
     0.1442   0.1712   0.1927   0.2325   0.2437   0.2752   0.3172   0.3576
     0.3907   0.4176   0.4320   0.5128   0.5448   0.6151   0.6558   0.6944
     0.7482   0.7804   0.8371   0.8567   0.8803   0.9063   0.9691   0.9832
     1.0059   1.0296   1.0516   1.1051   1.1224   1.1555   1.1798   1.2070
     1.2365   1.2751   1.2963   1.3575   1.3833   1.4208   1.4606   1.5034
     1.5499   1.5872   1.6410   1.6737   1.6897   1.7047   1.7446   1.7704
     1.7901   1.8212   1.8580   1.8937   1.9401   1.9584   1.9775   1.9988
     2.0285   2.0642   2.0944   2.1151   2.1804   2.2655   2.2719   2.3021
     2.3122   2.3343   2.5172   2.5341   2.6430   2.7561   2.9246   3.2100
     3.2316   3.3101   3.5089   3.5660   3.6774   3.8483   4.0488   4.2105
     4.3251   4.5631   4.6092   4.6836   4.8155   4.9579   5.0509   5.1308
     5.1879   5.6507   5.7409   5.9550   6.1389   6.2925   6.5077   6.6601

          k = 0.2000-0.1155 0.0000 ( 89048 PWs)   bands (ev):

   -14.4273 -10.6746  -7.8208  -6.5041  -6.1452  -5.2543  -4.9180  -4.8160
    -4.5229  -4.3882  -4.3535  -4.1956  -4.1503  -4.0588  -4.0285  -4.0003
    -3.8439  -3.8141  -3.6966  -3.6561  -3.6349  -3.5934  -3.4705  -3.3681
    -3.3374  -3.2785  -3.2150  -3.1881  -3.1469  -3.1038  -3.0808  -3.0551
    -3.0201  -3.0009  -2.9660  -2.9481  -2.9300  -2.9121  -2.8531  -2.8201
    -2.7717  -2.7360  -2.6623  -2.6367  -2.5821  -2.5453  -2.4935  -2.4156
    -2.3627  -2.3205  -2.3004  -2.2683  -2.2254  -2.2106  -2.1529  -2.0976
    -2.0378  -2.0264  -1.9624  -1.9483  -1.8951  -1.7996  -1.6891  -1.6582
    -1.6193  -1.5883  -1.5618  -1.5342  -1.5184  -1.4790  -1.4450  -1.4048
    -1.3880  -1.3494  -1.3096  -1.2780  -1.2638  -1.2439  -1.2101  -1.1217
    -1.1110  -1.1038  -1.0679  -1.0570  -1.0306  -1.0060  -0.9905  -0.9778
    -0.9609  -0.9546  -0.8912  -0.8667  -0.8388  -0.8100  -0.7987  -0.7744
    -0.7584  -0.7302  -0.7039  -0.6855  -0.6665  -0.6357  -0.6238  -0.6068
    -0.5984  -0.5780  -0.5649  -0.5359  -0.4955  -0.4829  -0.4224  -0.3922
    -0.3424  -0.3335  -0.2953  -0.2782  -0.2732  -0.2599  -0.2182  -0.1260
    -0.0145   0.0169   0.0937   0.1124   0.1334   0.1625   0.1845   0.2056
     0.2812   0.2988   0.3374   0.3951   0.4045   0.4495   0.4906   0.5249
     0.5473   0.5598   0.5865   0.6226   0.6651   0.7191   0.7393   0.7656
     0.7742   0.7997   0.8574   0.8829   0.9175   0.9330   0.9776   0.9965
     1.0294   1.0901   1.1079   1.1238   1.1523   1.1842   1.2130   1.2364
     1.2840   1.3125   1.3268   1.3380   1.3509   1.4034   1.4357   1.4440
     1.4883   1.5303   1.5610   1.6066   1.6417   1.6469   1.6524   1.6753
     1.7158   1.7446   1.7558   1.7680   1.7918   1.8105   1.8461   1.8658
     1.9074   1.9668   1.9851   2.0115   2.0239   2.0503   2.0581   2.0767
     2.0836   2.1103   2.1476   2.1786   2.2388   2.2580   2.3396   2.3844
     2.4007   2.5147   2.5800   2.7880   3.0551   3.3091   3.4721   3.6711
     3.8044   3.9675   4.5438   4.7925   4.9118   5.3750   5.6112   5.7558
     5.8556   5.9904   6.1325   6.2509   6.3684   6.7749   6.8431   6.9554

          k = 0.2000 0.1155 0.0000 ( 89048 PWs)   bands (ev):

   -14.4273 -10.6765  -7.8165  -6.5059  -6.1427  -5.2407  -4.9147  -4.7689
    -4.6295  -4.3885  -4.2989  -4.1890  -4.1472  -4.0808  -4.0152  -3.9752
    -3.9141  -3.8194  -3.7044  -3.6647  -3.6413  -3.5445  -3.4788  -3.3851
    -3.3279  -3.2654  -3.2480  -3.1797  -3.1665  -3.1211  -3.0793  -3.0495
    -3.0360  -3.0101  -2.9715  -2.9410  -2.9175  -2.8853  -2.8662  -2.8119
    -2.7571  -2.7322  -2.6722  -2.6496  -2.5529  -2.5406  -2.4654  -2.4226
    -2.3439  -2.3079  -2.2993  -2.2689  -2.2278  -2.2143  -2.1353  -2.0847
    -2.0377  -2.0166  -1.9688  -1.9546  -1.9053  -1.7914  -1.6828  -1.6633
    -1.6009  -1.5754  -1.5401  -1.5256  -1.5090  -1.4673  -1.4498  -1.4215
    -1.3945  -1.3772  -1.3199  -1.2685  -1.2413  -1.2176  -1.2044  -1.1724
    -1.1414  -1.0950  -1.0770  -1.0715  -1.0448  -1.0090  -0.9949  -0.9757
    -0.9659  -0.9217  -0.9114  -0.8789  -0.8440  -0.8167  -0.7962  -0.7737
    -0.7622  -0.7378  -0.7079  -0.6862  -0.6440  -0.6335  -0.6160  -0.6064
    -0.5859  -0.5696  -0.5557  -0.5379  -0.5243  -0.4813  -0.4219  -0.3828
    -0.3590  -0.3370  -0.3037  -0.2813  -0.2756  -0.2641  -0.2160  -0.1191
    -0.0269   0.0143   0.0701   0.1072   0.1262   0.1421   0.1815   0.1997
     0.2651   0.3137   0.3487   0.3786   0.4367   0.4598   0.5002   0.5179
     0.5462   0.5726   0.6011   0.6331   0.6840   0.6931   0.7282   0.7492
     0.7874   0.8085   0.8743   0.8888   0.9189   0.9277   0.9567   1.0013
     1.0248   1.0874   1.1115   1.1184   1.1336   1.1673   1.2087   1.2518
     1.2773   1.3062   1.3224   1.3537   1.3589   1.3887   1.4376   1.4622
     1.4937   1.5206   1.5694   1.5939   1.6295   1.6345   1.6566   1.6869
     1.7100   1.7301   1.7635   1.7822   1.8045   1.8227   1.8412   1.8503
     1.9196   1.9252   1.9841   2.0062   2.0205   2.0508   2.0660   2.0817
     2.0946   2.1059   2.1556   2.2091   2.2389   2.2544   2.3336   2.3802
     2.4214   2.4592   2.6063   2.9070   3.0749   3.2485   3.4481   3.6173
     3.8289   3.9677   4.4529   4.8978   5.0474   5.2455   5.7068   5.7774
     5.8491   6.0121   6.1482   6.2531   6.4003   6.7011   6.8021   6.8519

          k = 0.2000 0.3464 0.0000 ( 89036 PWs)   bands (ev):

   -14.4268 -10.6781  -7.7924  -6.2657  -6.1128  -5.1397  -5.0630  -4.9724
    -4.7372  -4.4885  -4.0888  -3.9997  -3.9691  -3.9533  -3.9009  -3.8721
    -3.8502  -3.7764  -3.7553  -3.7293  -3.5116  -3.4353  -3.4106  -3.3765
    -3.3496  -3.3189  -3.2803  -3.2294  -3.1962  -3.1358  -3.0799  -3.0598
    -3.0483  -3.0227  -2.9935  -2.9686  -2.9280  -2.8869  -2.8365  -2.8188
    -2.7902  -2.7144  -2.6677  -2.5927  -2.5174  -2.4746  -2.4576  -2.3770
    -2.3645  -2.3304  -2.2851  -2.2595  -2.2162  -2.1949  -2.1605  -2.1163
    -2.0702  -2.0441  -1.9706  -1.9398  -1.9052  -1.8867  -1.8430  -1.7969
    -1.7530  -1.6834  -1.6556  -1.6206  -1.5883  -1.5605  -1.5457  -1.4857
    -1.4748  -1.4173  -1.3824  -1.3685  -1.3298  -1.3177  -1.3011  -1.2728
    -1.2278  -1.1830  -1.1316  -1.1191  -1.0933  -1.0717  -1.0514  -1.0065
    -0.9857  -0.9527  -0.9371  -0.9054  -0.8965  -0.8802  -0.8686  -0.8389
    -0.8223  -0.7724  -0.7405  -0.7188  -0.6899  -0.6577  -0.6496  -0.6328
    -0.6037  -0.5791  -0.5596  -0.5370  -0.5304  -0.5127  -0.4845  -0.4545
    -0.4218  -0.3890  -0.3615  -0.3174  -0.2723  -0.2393  -0.1934  -0.1544
    -0.0802  -0.0553   0.0062   0.0283   0.0737   0.0931   0.1153   0.1512
     0.1908   0.2148   0.2645   0.2773   0.2905   0.3384   0.3935   0.4147
     0.4763   0.4980   0.5240   0.5486   0.5833   0.6483   0.6807   0.6997
     0.7516   0.7651   0.7932   0.8130   0.8595   0.9060   0.9345   0.9551
     0.9782   1.0164   1.0622   1.0837   1.1180   1.1280   1.1453   1.1746
     1.2122   1.2501   1.2831   1.3572   1.4038   1.4678   1.5355   1.5737
     1.6027   1.6513   1.6589   1.7035   1.7418   1.7686   1.7820   1.8103
     1.8287   1.8555   1.8723   1.8847   1.9049   1.9357   1.9684   1.9925
     2.0112   2.0483   2.0602   2.0808   2.1305   2.1619   2.2524   2.2933
     2.3156   2.3422   2.3906   2.4339   2.4834   2.5462   2.6797   2.8270
     3.0237   3.1625   3.3274   3.4229   3.5404   3.6623   3.8475   4.0715
     4.1632   4.3897   4.5319   4.6226   4.7581   5.1322   5.3802   5.6180
     5.7081   5.8045   6.0212   6.2659   6.2892   6.3672   6.5085   6.5883

          k = 0.2000-0.5774 0.0000 ( 89042 PWs)   bands (ev):

   -14.4265 -10.6773  -7.7819  -6.1650  -5.7547  -5.6699  -5.1457  -4.9179
    -4.5946  -4.4264  -4.2945  -3.9703  -3.9342  -3.8395  -3.7893  -3.6844
    -3.6742  -3.6288  -3.6054  -3.5601  -3.5066  -3.4603  -3.4287  -3.4185
    -3.4030  -3.3794  -3.3367  -3.2624  -3.2454  -3.2112  -3.1884  -3.1255
    -3.0826  -3.0380  -2.9911  -2.9576  -2.9076  -2.8685  -2.8365  -2.7969
    -2.7750  -2.6901  -2.6716  -2.6319  -2.5550  -2.4862  -2.4337  -2.4316
    -2.4002  -2.3201  -2.2697  -2.2288  -2.2060  -2.1323  -2.1082  -2.0633
    -2.0538  -2.0169  -1.9507  -1.9284  -1.8876  -1.8733  -1.8556  -1.8067
    -1.7973  -1.7768  -1.7431  -1.7359  -1.6877  -1.6463  -1.6170  -1.6013
    -1.5330  -1.5182  -1.4767  -1.4339  -1.4043  -1.3654  -1.3396  -1.3221
    -1.2942  -1.2744  -1.2337  -1.2078  -1.1673  -1.1275  -1.1108  -1.0933
    -1.0523  -0.9775  -0.9506  -0.9439  -0.9291  -0.9209  -0.8852  -0.8268
    -0.7850  -0.7513  -0.7414  -0.6966  -0.6712  -0.6669  -0.6392  -0.6324
    -0.6157  -0.5854  -0.5509  -0.5323  -0.5012  -0.4937  -0.4715  -0.4586
    -0.4537  -0.4325  -0.4040  -0.3498  -0.2974  -0.2359  -0.1908  -0.1277
    -0.0718  -0.0412  -0.0152  -0.0032   0.0461   0.0563   0.0791   0.1100
     0.1412   0.1732   0.2027   0.2225   0.2402   0.2937   0.3206   0.3787
     0.4173   0.4573   0.4648   0.5056   0.5365   0.6316   0.6759   0.7045
     0.7274   0.7565   0.7807   0.7899   0.8339   0.8488   0.8900   0.9301
     0.9378   0.9633   1.0124   1.0353   1.0552   1.0790   1.1390   1.1750
     1.2369   1.2929   1.3624   1.4213   1.4626   1.5089   1.5314   1.5802
     1.6036   1.6445   1.6941   1.7333   1.7559   1.7712   1.8054   1.8318
     1.8569   1.8934   1.9362   1.9618   1.9806   1.9937   2.0071   2.0346
     2.0556   2.0827   2.1423   2.1700   2.2529   2.2723   2.2796   2.3191
     2.3355   2.3559   2.4239   2.5431   2.9523   3.0296   3.2121   3.2957
     3.4475   3.5188   3.6537   3.7701   3.8512   4.0383   4.1417   4.3381
     4.3975   4.5983   4.7232   4.8480   4.9907   5.0455   5.1797   5.3087
     5.3606   5.4875   5.5733   5.6781   5.8267   6.2026   6.2734   6.4367

          k = 0.2000-0.3464 0.0000 ( 89036 PWs)   bands (ev):

   -14.4268 -10.6751  -7.7993  -6.2527  -6.1294  -5.1807  -5.0536  -4.9533
    -4.7567  -4.4733  -4.0565  -3.9961  -3.9526  -3.9348  -3.8984  -3.8796
    -3.8532  -3.7879  -3.7663  -3.7039  -3.5299  -3.4196  -3.3868  -3.3715
    -3.3500  -3.3041  -3.2681  -3.2208  -3.1786  -3.1244  -3.0840  -3.0693
    -3.0423  -3.0161  -2.9959  -2.9626  -2.9356  -2.9030  -2.8667  -2.8371
    -2.7829  -2.7518  -2.6626  -2.5894  -2.5292  -2.4867  -2.4397  -2.4171
    -2.3902  -2.3523  -2.2971  -2.2832  -2.2312  -2.2090  -2.1509  -2.1147
    -2.0842  -1.9956  -1.9680  -1.9320  -1.9101  -1.8850  -1.8607  -1.8276
    -1.7255  -1.6963  -1.6685  -1.6496  -1.5857  -1.5637  -1.5365  -1.5052
    -1.4867  -1.4144  -1.3951  -1.3760  -1.3401  -1.3042  -1.2712  -1.2649
    -1.2252  -1.1682  -1.1203  -1.1070  -1.0858  -1.0342  -1.0075  -0.9919
    -0.9660  -0.9470  -0.9280  -0.9163  -0.8962  -0.8704  -0.8612  -0.8413
    -0.8143  -0.7778  -0.7440  -0.7148  -0.6973  -0.6608  -0.6479  -0.6331
    -0.6005  -0.5897  -0.5552  -0.5456  -0.5338  -0.5163  -0.4900  -0.4704
    -0.4041  -0.3731  -0.3510  -0.3433  -0.2736  -0.2433  -0.1982  -0.1339
    -0.1147  -0.0222   0.0075   0.0218   0.0955   0.1149   0.1344   0.1615
     0.1888   0.2082   0.2407   0.2818   0.2980   0.3257   0.3453   0.4276
     0.4736   0.4973   0.5225   0.5412   0.5868   0.6759   0.6981   0.7192
     0.7393   0.7705   0.7980   0.8226   0.8350   0.8903   0.9256   0.9659
     0.9833   1.0155   1.0570   1.0814   1.1151   1.1304   1.1491   1.1679
     1.1976   1.2409   1.2773   1.3503   1.4059   1.4844   1.5182   1.5747
     1.5986   1.6517   1.6951   1.7235   1.7399   1.7639   1.7897   1.8197
     1.8403   1.8602   1.8766   1.9014   1.9137   1.9218   1.9708   1.9847
     2.0103   2.0362   2.0518   2.1004   2.1365   2.1637   2.2570   2.2729
     2.3004   2.3286   2.3701   2.4041   2.4976   2.5279   2.7245   2.8658
     3.0126   3.1363   3.2973   3.4390   3.5178   3.7083   3.7804   4.1082
     4.2238   4.4013   4.4540   4.6730   4.6958   5.0388   5.1916   5.6643
     5.7734   5.9227   6.0369   6.1521   6.2517   6.3529   6.4933   6.5418

          k = 0.4000-0.2309 0.0000 ( 89078 PWs)   bands (ev):

   -14.4268 -10.6735  -7.7949  -6.1664  -6.0815  -5.5043  -4.9641  -4.8252
    -4.5416  -4.4226  -4.3645  -4.1795  -3.9853  -3.9040  -3.8348  -3.7748
    -3.7315  -3.6838  -3.6207  -3.5636  -3.4938  -3.4842  -3.4395  -3.4176
    -3.3554  -3.3164  -3.2956  -3.2598  -3.2389  -3.2135  -3.1770  -3.1450
    -3.1022  -3.0159  -2.9379  -2.9173  -2.8872  -2.8696  -2.8085  -2.7768
    -2.7384  -2.6862  -2.6594  -2.6118  -2.5765  -2.5139  -2.4601  -2.4232
    -2.3848  -2.3464  -2.2785  -2.2536  -2.2367  -2.1842  -2.1619  -2.1250
    -2.1230  -2.0778  -2.0537  -1.9898  -1.9544  -1.9350  -1.8923  -1.8294
    -1.7806  -1.7494  -1.7182  -1.6892  -1.6441  -1.5575  -1.5334  -1.5152
    -1.4757  -1.4223  -1.4132  -1.3862  -1.3360  -1.3159  -1.2380  -1.2043
    -1.1980  -1.1662  -1.1403  -1.1115  -1.0926  -1.0735  -1.0551  -1.0305
    -1.0080  -0.9887  -0.9699  -0.9481  -0.9107  -0.9002  -0.8733  -0.8425
    -0.8270  -0.7916  -0.7785  -0.7723  -0.7523  -0.6909  -0.6418  -0.6091
    -0.5846  -0.5582  -0.5316  -0.5096  -0.4613  -0.4461  -0.4032  -0.3748
    -0.3277  -0.3202  -0.3013  -0.2763  -0.2432  -0.2148  -0.1302  -0.0883
    -0.0671  -0.0356  -0.0164   0.0317   0.0616   0.0817   0.0903   0.1071
     0.1346   0.1574   0.1926   0.2331   0.2671   0.2766   0.3051   0.3364
     0.4047   0.4149   0.4290   0.4829   0.5425   0.6360   0.6720   0.7070
     0.7516   0.7893   0.8108   0.8783   0.9021   0.9190   0.9675   0.9939
     1.0155   1.0425   1.0778   1.1002   1.1287   1.1566   1.2012   1.2172
     1.2487   1.2771   1.2970   1.3391   1.3758   1.4266   1.4472   1.5054
     1.5193   1.5923   1.6379   1.6735   1.6845   1.7038   1.7426   1.7605
     1.8016   1.8420   1.8650   1.9088   1.9471   1.9682   1.9728   1.9868
     2.0217   2.0414   2.0867   2.1385   2.1597   2.2245   2.2506   2.2655
     2.2995   2.3310   2.4919   2.5196   2.5786   2.7992   2.9654   3.0782
     3.2291   3.3964   3.4583   3.5753   3.6398   3.8849   4.0178   4.1774
     4.2926   4.5262   4.5782   4.6690   4.7829   4.8769   4.9385   5.1325
     5.2869   5.6817   5.7547   5.8929   6.0899   6.3773   6.5105   6.7081

          k = 0.4000-0.0000 0.0000 ( 89036 PWs)   bands (ev):

   -14.4269 -10.6757  -7.7950  -6.2502  -6.1225  -5.1425  -5.0686  -4.9546
    -4.7778  -4.4749  -4.0496  -4.0032  -3.9556  -3.9440  -3.9193  -3.8969
    -3.8164  -3.7942  -3.7712  -3.6921  -3.5417  -3.4459  -3.3889  -3.3692
    -3.3274  -3.2909  -3.2840  -3.2336  -3.1860  -3.1590  -3.1335  -3.0703
    -3.0530  -3.0323  -2.9952  -2.9611  -2.9280  -2.9018  -2.8687  -2.8248
    -2.8020  -2.7587  -2.6737  -2.5863  -2.5301  -2.4551  -2.4174  -2.3973
    -2.3606  -2.3327  -2.2897  -2.2390  -2.2021  -2.1821  -2.1384  -2.1122
    -2.0780  -2.0491  -1.9942  -1.9369  -1.9219  -1.9026  -1.8536  -1.8291
    -1.7283  -1.6940  -1.6835  -1.6312  -1.6052  -1.5751  -1.5443  -1.5175
    -1.4790  -1.4188  -1.3948  -1.3405  -1.3129  -1.2998  -1.2710  -1.2469
    -1.2138  -1.1735  -1.1276  -1.1148  -1.0946  -1.0616  -1.0398  -1.0051
    -0.9683  -0.9495  -0.9275  -0.9068  -0.8973  -0.8758  -0.8489  -0.8298
    -0.8103  -0.7722  -0.7498  -0.7178  -0.6988  -0.6688  -0.6408  -0.6262
    -0.5994  -0.5729  -0.5475  -0.5286  -0.5142  -0.4940  -0.4819  -0.4594
    -0.4078  -0.3679  -0.3410  -0.3340  -0.3019  -0.2295  -0.2126  -0.1407
    -0.0950  -0.0510   0.0033   0.0455   0.0662   0.1109   0.1414   0.1633
     0.1959   0.2299   0.2551   0.2795   0.2990   0.3133   0.3528   0.4263
     0.4936   0.4995   0.5354   0.5447   0.5700   0.6143   0.6961   0.7231
     0.7536   0.7645   0.7843   0.8356   0.8803   0.9183   0.9368   0.9587
     1.0016   1.0244   1.0435   1.0642   1.1105   1.1299   1.1449   1.1791
     1.2063   1.2707   1.2822   1.3273   1.4033   1.4405   1.5286   1.5851
     1.6098   1.6415   1.6568   1.7116   1.7398   1.7716   1.7864   1.8310
     1.8452   1.8619   1.8864   1.8986   1.9123   1.9347   1.9651   1.9874
     2.0119   2.0350   2.0763   2.1026   2.1434   2.1698   2.2488   2.2699
     2.2811   2.3164   2.3593   2.3937   2.4965   2.5236   2.6137   2.9046
     3.0073   3.1566   3.3163   3.4336   3.5065   3.6086   3.8829   3.9839
     4.2223   4.3838   4.4940   4.5961   4.6612   5.0434   5.4936   5.5895
     5.7316   5.8901   6.0621   6.1660   6.2696   6.4000   6.4995   6.5481

          k = 0.4000 0.2309 0.0000 ( 89078 PWs)   bands (ev):

   -14.4267 -10.6783  -7.7843  -6.1800  -6.0597  -5.4892  -4.9518  -4.7939
    -4.5992  -4.4351  -4.3033  -4.2285  -4.0464  -3.9146  -3.8368  -3.7745
    -3.7374  -3.6932  -3.6449  -3.5298  -3.5069  -3.4901  -3.4541  -3.3846
    -3.3579  -3.3226  -3.3047  -3.2789  -3.2548  -3.2167  -3.1941  -3.1369
    -3.1045  -3.0889  -2.9618  -2.8802  -2.8558  -2.8359  -2.8062  -2.7358
    -2.7068  -2.6740  -2.6113  -2.5965  -2.5854  -2.5084  -2.4598  -2.3888
    -2.3638  -2.3358  -2.2906  -2.2456  -2.2200  -2.2001  -2.1584  -2.1255
    -2.1026  -2.0865  -2.0547  -1.9939  -1.9469  -1.9188  -1.8443  -1.7845
    -1.7747  -1.7518  -1.7322  -1.6943  -1.6009  -1.5744  -1.5636  -1.5274
    -1.4561  -1.4498  -1.4203  -1.3790  -1.3379  -1.3158  -1.2571  -1.2396
    -1.2094  -1.1855  -1.1652  -1.1541  -1.0807  -1.0739  -1.0572  -1.0328
    -1.0209  -0.9905  -0.9684  -0.9587  -0.9227  -0.8827  -0.8747  -0.8563
    -0.8167  -0.7888  -0.7752  -0.7432  -0.6995  -0.6888  -0.6493  -0.6280
    -0.5922  -0.5546  -0.5404  -0.5083  -0.4782  -0.4496  -0.4265  -0.3969
    -0.3710  -0.3501  -0.3070  -0.2793  -0.2372  -0.1983  -0.1706  -0.1100
    -0.0517  -0.0314   0.0012   0.0456   0.0785   0.0947   0.1134   0.1434
     0.1617   0.1738   0.1945   0.2052   0.2407   0.2641   0.2956   0.3574
     0.4030   0.4298   0.4483   0.4768   0.5376   0.6023   0.6687   0.6992
     0.7374   0.7949   0.8270   0.8728   0.8911   0.9374   0.9481   0.9620
     1.0007   1.0362   1.0745   1.0893   1.1122   1.1485   1.1828   1.2150
     1.2330   1.2763   1.3153   1.3287   1.4074   1.4213   1.4702   1.5014
     1.5536   1.5703   1.6364   1.6735   1.6867   1.6978   1.7460   1.7697
     1.8030   1.8272   1.8668   1.8833   1.9400   1.9562   1.9743   1.9904
     2.0059   2.0308   2.1092   2.1249   2.1719   2.2469   2.2664   2.2979
     2.3147   2.3520   2.4341   2.5199   2.5984   2.8206   2.9207   3.1713
     3.2317   3.3820   3.4353   3.5862   3.6072   3.8582   3.9720   4.2017
     4.3709   4.5568   4.6105   4.6858   4.7424   4.8831   5.0623   5.2496
     5.2712   5.5897   5.7453   6.0318   6.1329   6.3310   6.4679   6.6254

          k = 0.4000-0.6928 0.0000 ( 89042 PWs)   bands (ev):

   -14.4265 -10.6778  -7.7779  -6.1507  -5.7211  -5.7083  -5.1570  -4.8578
    -4.6276  -4.4674  -4.2920  -3.9686  -3.9510  -3.8183  -3.7875  -3.6878
    -3.6563  -3.6427  -3.5826  -3.5571  -3.5015  -3.4591  -3.4431  -3.4295
    -3.4059  -3.3781  -3.3622  -3.2684  -3.2489  -3.2236  -3.2157  -3.1571
    -3.1002  -3.0941  -2.9802  -2.9560  -2.9272  -2.8516  -2.8114  -2.7973
    -2.7481  -2.6886  -2.6568  -2.5885  -2.5641  -2.4888  -2.4503  -2.3868
    -2.3739  -2.3315  -2.2571  -2.2228  -2.1907  -2.1280  -2.1031  -2.0768
    -2.0547  -2.0231  -1.9740  -1.9462  -1.9057  -1.8804  -1.8589  -1.8315
    -1.7909  -1.7755  -1.7412  -1.7082  -1.6981  -1.6580  -1.6188  -1.5932
    -1.5418  -1.5113  -1.4779  -1.4118  -1.3892  -1.3552  -1.3319  -1.3209
    -1.2913  -1.2601  -1.2317  -1.1899  -1.1541  -1.1261  -1.1020  -1.0727
    -1.0603  -1.0337  -0.9697  -0.9416  -0.9334  -0.9134  -0.8799  -0.8338
    -0.8002  -0.7595  -0.7209  -0.6971  -0.6670  -0.6557  -0.6426  -0.6279
    -0.6158  -0.5718  -0.5540  -0.5370  -0.5071  -0.4856  -0.4720  -0.4575
    -0.4431  -0.4234  -0.4018  -0.3578  -0.2906  -0.2042  -0.1697  -0.1503
    -0.0750  -0.0399  -0.0089   0.0144   0.0391   0.0542   0.0818   0.0951
     0.1363   0.1700   0.2044   0.2232   0.2665   0.3138   0.3269   0.3756
     0.3974   0.4272   0.4664   0.5216   0.5806   0.6234   0.6729   0.7094
     0.7303   0.7563   0.7898   0.8089   0.8337   0.8459   0.8899   0.9343
     0.9379   0.9584   0.9788   1.0186   1.0555   1.0943   1.1262   1.1551
     1.2774   1.2909   1.3399   1.4207   1.4680   1.4942   1.5061   1.5766
     1.5960   1.6525   1.6922   1.7433   1.7571   1.7950   1.8281   1.8424
     1.8572   1.8783   1.9178   1.9432   1.9672   1.9888   2.0049   2.0415
     2.0509   2.1059   2.1411   2.1726   2.2609   2.2808   2.2932   2.3183
     2.3495   2.3640   2.4432   2.5723   2.7289   3.0400   3.1813   3.3699
     3.4626   3.5117   3.6781   3.7140   3.8488   3.9486   4.1837   4.3028
     4.4953   4.5218   4.7313   4.8954   4.9463   5.0997   5.1645   5.2824
     5.3471   5.4404   5.5866   5.7322   5.8652   6.1137   6.3228   6.4151

          k = 0.4000-0.4619 0.0000 ( 89042 PWs)   bands (ev):

   -14.4266 -10.6748  -7.7845  -6.1475  -5.7730  -5.6726  -5.1527  -4.8307
    -4.7254  -4.4420  -4.2123  -3.9731  -3.8825  -3.8217  -3.8107  -3.7246
    -3.6755  -3.6343  -3.5809  -3.5466  -3.4898  -3.4529  -3.4427  -3.4307
    -3.4111  -3.3696  -3.3170  -3.2759  -3.2403  -3.2216  -3.1975  -3.1513
    -3.1073  -3.0670  -3.0242  -2.9741  -2.8931  -2.8672  -2.8281  -2.7984
    -2.7730  -2.7399  -2.6496  -2.6072  -2.5733  -2.5115  -2.4414  -2.3985
    -2.3734  -2.3310  -2.2784  -2.2373  -2.1751  -2.1346  -2.1059  -2.0686
    -2.0549  -1.9955  -1.9858  -1.9529  -1.9257  -1.8795  -1.8569  -1.8487
    -1.7899  -1.7716  -1.7492  -1.7271  -1.6987  -1.6612  -1.6348  -1.5736
    -1.5280  -1.5061  -1.4690  -1.4390  -1.3897  -1.3672  -1.3492  -1.3074
    -1.2911  -1.2513  -1.2214  -1.1720  -1.1528  -1.1260  -1.0953  -1.0685
    -1.0417  -0.9775  -0.9664  -0.9537  -0.9269  -0.9105  -0.8797  -0.7926
    -0.7787  -0.7551  -0.7249  -0.7046  -0.6765  -0.6490  -0.6334  -0.6167
    -0.6037  -0.5971  -0.5689  -0.5278  -0.5089  -0.4845  -0.4722  -0.4636
    -0.4545  -0.4214  -0.3806  -0.3504  -0.2941  -0.2515  -0.2023  -0.1321
    -0.0687  -0.0310  -0.0241  -0.0015   0.0271   0.0406   0.0739   0.1240
     0.1594   0.1714   0.2122   0.2297   0.2632   0.3018   0.3284   0.3711
     0.4018   0.4456   0.4864   0.5246   0.5941   0.6079   0.6739   0.7095
     0.7396   0.7469   0.7661   0.8023   0.8190   0.8675   0.8880   0.9207
     0.9434   0.9551   0.9920   1.0306   1.0537   1.0969   1.1286   1.2124
     1.2389   1.2956   1.3517   1.4060   1.4405   1.4895   1.5302   1.5629
     1.6140   1.6553   1.6899   1.7388   1.7677   1.7903   1.8300   1.8367
     1.8549   1.8997   1.9436   1.9520   1.9764   1.9914   2.0078   2.0456
     2.0727   2.1162   2.1609   2.1777   2.2301   2.2492   2.2737   2.2875
     2.3272   2.3575   2.4031   2.5433   2.8787   3.0085   3.1160   3.3398
     3.4852   3.5404   3.7173   3.7737   3.8475   4.0053   4.0691   4.2464
     4.4569   4.5558   4.5903   4.9032   4.9779   5.0718   5.1014   5.2990
     5.3532   5.4911   5.5432   5.7499   5.8696   6.0932   6.3422   6.4827

     the Fermi energy is     2.0776 ev

!    total energy              =  -27813.61415183 Ry

     total all-electron energy =  -1326873.671855 Ry
     estimated scf accuracy    <       0.00000088 Ry
     smearing contrib. (-TS)   =       0.00348579 Ry
     internal energy E=F+TS    =  -27813.61763761 Ry

     The total energy is F=E-TS. E is the sum of the following terms:
     one-electron contribution =  -27236.82592303 Ry
     hartree contribution      =   13923.77497182 Ry
     xc contribution           =    -905.93268073 Ry
     ewald contribution        =   11899.04028679 Ry
     one-center paw contrib.   =  -25493.67429246 Ry

     convergence has been achieved in  19 iterations

     negative rho (up, down):  1.317E-02 0.000E+00

     Forces acting on atoms (cartesian axes, Ry/au):

     atom    1 type  1   force =    -0.00289904    0.00033519   -0.00605025
     atom    2 type  1   force =     0.00113250   -0.00055852   -0.00624422
     atom    3 type  1   force =    -0.00014367    0.00061347   -0.00524511
     atom    4 type  1   force =    -0.00092111    0.00058888   -0.00331037
     atom    5 type  1   force =     0.00057299   -0.00003757   -0.00439553
     atom    6 type  1   force =     0.00003751   -0.00006485   -0.00426369
     atom    7 type  1   force =    -0.00051123    0.00056915   -0.00385730
     atom    8 type  1   force =    -0.00025818    0.00150056   -0.00375851
     atom    9 type  1   force =    -0.00071389    0.00124525   -0.00439000
     atom   10 type  1   force =    -0.00071811    0.00625234    0.00227410
     atom   11 type  1   force =    -0.00280667    0.00167513    0.00460495
     atom   12 type  1   force =     0.00321996    0.00213764    0.00325059
     atom   13 type  1   force =     0.00019605   -0.00332384    0.00652812
     atom   14 type  1   force =    -0.00089534   -0.00167288    0.00676854
     atom   15 type  1   force =     0.00270878   -0.00261259    0.00926997
     atom   16 type  1   force =     0.00215748   -0.00114914   -0.00181596
     atom   17 type  1   force =     0.00210900    0.00032173    0.00206710
     atom   18 type  1   force =    -0.00012480   -0.00301109    0.00673943
     atom   19 type  1   force =     0.00008234    0.00033518    0.00026886
     atom   20 type  1   force =     0.00024239    0.00021392    0.00028097
     atom   21 type  1   force =    -0.00028103    0.00002840    0.00022640
     atom   22 type  1   force =    -0.00025848   -0.00009532    0.00035509
     atom   23 type  1   force =    -0.00004736   -0.00023773    0.00000315
     atom   24 type  1   force =    -0.00000384   -0.00031023   -0.00009309
     atom   25 type  1   force =     0.00012998   -0.00009278    0.00024112
     atom   26 type  1   force =     0.00018698   -0.00018504    0.00012311
     atom   27 type  1   force =    -0.00000471   -0.00011036    0.00009230
     atom   28 type  1   force =     0.00017151    0.00000966   -0.00019242
     atom   29 type  1   force =     0.00026146   -0.00037888    0.00006683
     atom   30 type  1   force =    -0.00015966   -0.00027757    0.00015229
     atom   31 type  1   force =     0.00011720    0.00016579    0.00003882
     atom   32 type  1   force =     0.00053487   -0.00014073    0.00055966
     atom   33 type  1   force =    -0.00030524    0.00054232    0.00048128
     atom   34 type  1   force =     0.00017346   -0.00045117    0.00027594
     atom   35 type  1   force =    -0.00024670    0.00000191   -0.00001568
     atom   36 type  1   force =     0.00020476    0.00020679   -0.00001690
     atom   37 type  2   force =    -0.00173960   -0.00004720   -0.00062227
     atom   38 type  2   force =     0.00338374   -0.00294676    0.00752906
     atom   39 type  2   force =    -0.00072378   -0.00139742    0.00091569
     atom   40 type  3   force =     0.00070247    0.00013013   -0.00024212
     atom   41 type  3   force =    -0.00456296    0.00222822   -0.00859992

     Total force =     0.013677     Total SCF correction =     0.001608
     SCF correction compared to forces is large: reduce conv_thr to get better values

     negative rho (up, down):  1.317E-02 0.000E+00

     negative rho (up, down):  1.317E-02 0.000E+00

     negative rho (up, down):  1.317E-02 0.000E+00

     negative rho (up, down):  1.317E-02 0.000E+00

     negative rho (up, down):  1.317E-02 0.000E+00

     negative rho (up, down):  1.317E-02 0.000E+00

     negative rho (up, down):  1.317E-02 0.000E+00

     negative rho (up, down):  1.317E-02 0.000E+00

     negative rho (up, down):  1.317E-02 0.000E+00

     negative rho (up, down):  1.317E-02 0.000E+00

     negative rho (up, down):  1.317E-02 0.000E+00

     negative rho (up, down):  1.317E-02 0.000E+00

     negative rho (up, down):  1.317E-02 0.000E+00

     negative rho (up, down):  1.317E-02 0.000E+00

     negative rho (up, down):  1.317E-02 0.000E+00

     negative rho (up, down):  1.317E-02 0.000E+00

     negative rho (up, down):  1.317E-02 0.000E+00

     negative rho (up, down):  1.317E-02 0.000E+00

     negative rho (up, down):  1.317E-02 0.000E+00

     negative rho (up, down):  1.317E-02 0.000E+00

     negative rho (up, down):  1.317E-02 0.000E+00

     negative rho (up, down):  1.317E-02 0.000E+00

     negative rho (up, down):  1.317E-02 0.000E+00

     negative rho (up, down):  1.317E-02 0.000E+00

     negative rho (up, down):  1.317E-02 0.000E+00

     negative rho (up, down):  1.317E-02 0.000E+00

     negative rho (up, down):  1.317E-02 0.000E+00

     negative rho (up, down):  1.317E-02 0.000E+00

     negative rho (up, down):  1.317E-02 0.000E+00

     negative rho (up, down):  1.317E-02 0.000E+00

     negative rho (up, down):  1.317E-02 0.000E+00

     negative rho (up, down):  1.317E-02 0.000E+00

     negative rho (up, down):  1.317E-02 0.000E+00

     negative rho (up, down):  1.317E-02 0.000E+00
 BEEFens 2000 ensemble energies
             -0.606184892847608E+02
             -0.361914188562463E+01
             -0.158365743245481E+02
              0.429001390591706E+02
             -0.220855930433571E+02
             -0.205220847794270E+02
             -0.351743476466868E+02
             -0.864188768900055E+02
             -0.464981273018651E+02
             -0.472633717824400E+02
             -0.368993797219642E+02
              0.224342376931976E+01
              0.407584104112905E+01
              0.763047783965197E+01
              0.266051584733196E+01
              0.474526813414425E+02
             -0.208781230928790E+02
             -0.230520522437474E+02
              0.192917379089831E+02
             -0.112283404783699E+03
              0.535863146072797E+02
             -0.289693070431277E+02
             -0.334449398473111E+01
             -0.113971055321478E+02
             -0.886405030794629E+01
             -0.466932072019335E+01
              0.882046862341336E+02
             -0.186550403985873E+02
             -0.901805367155350E+01
             -0.518072553303928E+02
              0.815389700569281E+02
             -0.187553668804504E+02
             -0.374842971242593E+02
              0.249304884781382E+02
             -0.283632462618505E+01
              0.163740824401788E+02
             -0.485863022225845E+01
              0.108127341170277E+02
              0.287702116648516E+02
             -0.103222105889158E+03
              0.557770058972097E+02
              0.142210804174601E+02
             -0.168302762779132E+01
             -0.361476756016161E+02
              0.123068944912159E+02
             -0.146257525936552E+02
              0.398088673342102E+02
              0.364591289968392E+02
             -0.308072218497706E+02
             -0.275034667994812E+02
             -0.328211437645934E+02
             -0.351664680536192E+02
              0.135738443860598E+02
             -0.490641232131492E+02
              0.115337901772699E+02
              0.622468325852423E+02
              0.634561127486671E+02
              0.355415173371488E+02
              0.154096776905187E+02
              0.269986474643691E+02
              0.890452750854447E+02
              0.212871367640037E+02
             -0.548150634533561E+02
             -0.157034335896938E+02
             -0.235630092688231E+02
              0.629545352853114E+02
             -0.772996528285509E+02
             -0.671144686585640E+02
             -0.258797438309135E+02
             -0.639973734147986E+01
             -0.470965144973079E+02
              0.270409196487288E+02
              0.800236363506258E+01
              0.866875699425935E+01
             -0.396633493956590E+02
             -0.346616205225214E+02
             -0.541303832193179E+02
              0.390382361079427E+02
             -0.295594572943359E+02
              0.264594065067324E+02
             -0.711987833743265E+01
             -0.317917059157059E+02
             -0.576142865839225E+02
             -0.176723462379957E+02
             -0.906151683635176E+01
             -0.124885812202353E+02
              0.411690016841985E+02
              0.681709265103006E+02
             -0.385175494825442E+02
             -0.794157539661200E+02
             -0.219423375389026E+02
              0.111431465616345E+03
             -0.591669275065779E+02
              0.355964164834449E+02
             -0.956917742199914E+01
             -0.662821509480172E+02
              0.254205568089390E+02
              0.397937794567736E+02
             -0.198656804569024E+02
              0.400013912462814E+02
             -0.295925400687895E+02
             -0.477477123311439E+02
              0.864967548294265E+02
              0.453868837796979E+02
              0.336290329067148E+02
              0.146502955530010E+02
              0.205310781014840E+02
              0.855871473316272E+02
             -0.256334003401941E+02
              0.786114841114784E+01
             -0.142304762171651E+03
              0.181159661200344E+02
             -0.715785762516962E+02
              0.150694334452124E+02
              0.204372031995216E+02
             -0.332465061330367E+02
             -0.556825652713508E+02
              0.655664253239956E+01
             -0.303804964126382E+02
              0.307671901282083E+02
             -0.529418347013579E+02
              0.172259862278975E+01
             -0.356678413189542E+02
             -0.424692929532819E+01
             -0.105536159067756E+01
              0.180669653995659E+02
              0.143355960322936E+01
             -0.651470206978672E+01
              0.589534723177257E+02
              0.907391559451885E+02
              0.483710158151542E+02
              0.830013286528897E+02
             -0.114912565717042E+02
              0.143296762669435E+02
              0.540577415534443E+02
             -0.111079703253271E+02
             -0.734844661902208E+02
             -0.383401700345333E+02
             -0.521154308581187E+02
             -0.276375931775796E+02
              0.326893310644449E+02
             -0.116688398066461E+03
             -0.187053426210387E+02
              0.413742742028795E+02
             -0.385925056990450E+02
             -0.365280508973417E+02
              0.543354682317153E+02
              0.400397038584501E+02
             -0.353555731311630E+02
              0.137085496218813E+02
             -0.272795172153051E+02
              0.342863287113902E+02
              0.446917684606439E+01
              0.211157778837945E+02
             -0.883924218442256E+02
             -0.479748927050748E+02
             -0.992148528232542E+01
              0.325605679807784E+01
             -0.366275176994626E+02
              0.105921815137902E+03
             -0.230792721624805E+02
             -0.398223499720703E+02
              0.388747275602113E+02
             -0.493994897079974E+02
             -0.362917770479640E+02
              0.324491437864093E+02
              0.124365871776705E+02
              0.164160628533504E+02
              0.116272378667013E+02
             -0.132776026920204E+02
              0.225039869526017E+02
              0.589706368509002E+02
             -0.311527736624616E+02
              0.162372765780178E+02
              0.933496755065357E+02
              0.340413298852884E+02
             -0.728773030726438E+01
             -0.188398994213874E+02
              0.153209534137999E+03
             -0.163857847492539E+02
              0.362764660083555E+02
              0.194111113945996E+02
              0.361595652118401E+02
              0.891434531485003E+02
              0.542660651448438E+02
             -0.241576589099044E+01
              0.227494481534584E+02
              0.484534714213512E+02
              0.363305289911063E+02
             -0.524906766488587E+02
              0.935071120056041E+02
             -0.824652667787583E+02
             -0.198199692825066E+02
              0.582454812603668E+02
              0.672039107606987E+01
              0.791248522838646E+01
              0.340780615330020E+02
              0.298945642345604E+02
              0.353356400876894E+02
             -0.637236016180011E+02
              0.288388140953509E+01
             -0.297305407733555E+02
             -0.872754472040393E+01
             -0.145902701565433E+01
             -0.720907115598158E+01
             -0.413975990052097E+01
              0.858428979445703E+02
             -0.101018505892689E+02
             -0.276166379007291E+02
             -0.496003117116111E+01
              0.139835862319265E+02
             -0.563590448516097E+02
             -0.406465681908118E+02
             -0.381803455314047E+02
             -0.629791494447448E+02
             -0.169712688230971E+02
             -0.447163027872932E+02
              0.163312818067713E+02
             -0.240805021545722E+01
             -0.104207521947728E+02
             -0.933958237171910E+01
              0.807135896825645E+01
             -0.242852361750035E+02
              0.688562071786778E+02
             -0.806207400581615E+02
             -0.140947797964698E+02
             -0.173962884398051E+02
              0.181697066358056E+02
              0.214054580724318E+02
             -0.463495682927826E+02
             -0.202102294455728E+02
              0.440380908683350E+02
             -0.275886041891829E+02
              0.186739049956741E+02
              0.382479162651289E+02
             -0.322895983180604E+01
              0.114066007766502E+03
             -0.230336537736694E+02
             -0.340839471924555E+02
              0.578904545723219E+01
             -0.227873566423280E+02
              0.527248434785736E+02
             -0.336636715390848E+02
              0.106353534853185E+02
              0.640423071946355E+02
             -0.126071028010809E+02
              0.120128437771072E+03
              0.125754109878731E+03
             -0.649159604756501E+02
              0.590038217971005E+02
              0.166243245245728E+02
             -0.517197446117141E+02
              0.216196026081296E+02
              0.353266205151165E+02
              0.362195711121839E+02
              0.135483351443193E+01
              0.159304862500542E+02
              0.694713451447899E+02
             -0.246744262332844E+02
              0.181025674255030E+02
              0.738439348136741E+02
             -0.372246780130969E+02
             -0.129244847531951E+02
              0.507912748176358E+02
              0.297084153336692E+02
              0.779996632703053E+02
              0.222183700493247E+02
              0.621984904769164E+01
              0.280250176951838E+02
              0.382781808030309E+02
             -0.470865545571759E+02
              0.329640604589525E+01
              0.129212573863882E+02
              0.113646247636092E+02
              0.220182751353238E+02
             -0.574060789745283E+02
              0.366007309061006E+02
             -0.443617165535215E+02
             -0.347011454969000E+02
              0.177590566223351E+02
             -0.181321558671735E+02
              0.554540299184117E+02
             -0.256293888593435E+02
              0.266549909332740E+02
              0.368155956315084E+02
              0.828571525510664E+02
              0.574090216073805E+02
              0.461045309361146E+02
             -0.105911432569812E+02
             -0.390410289912415E+01
             -0.331560016474660E+02
              0.749794675899495E+02
              0.796512793319876E+02
              0.361569932471837E+02
             -0.191660311349192E+02
              0.511512115730457E+02
             -0.162872284021620E+02
              0.214767739846572E+02
              0.613731804973377E+02
              0.215476741556620E+01
             -0.104169793305958E+02
             -0.282985487746483E+02
             -0.510734711607959E+02
              0.944518102249904E+02
              0.438999933404813E+02
             -0.558509419289979E+02
             -0.962165826771735E+01
              0.249746080692892E+02
             -0.995575848997481E+01
              0.591570623901020E+02
              0.152222895776349E+02
              0.798683021824088E+02
              0.279011093098068E+02
             -0.264165670806417E+02
              0.249162196468627E+02
             -0.502285915625549E+01
             -0.323698774088243E+02
              0.133249652238719E+02
              0.205828703298600E+02
              0.931776647527498E+02
              0.796696030065605E+02
              0.550360566301720E+02
              0.730382977362233E+02
              0.797974190330191E+01
             -0.273460523540630E+02
              0.163085912509973E+02
             -0.367784945140985E+02
             -0.475629562894371E+02
             -0.563212374415467E+02
             -0.266285876428599E+02
             -0.109598542568669E+03
             -0.291028337160691E+02
             -0.836375332075712E+02
              0.209830408360038E+02
             -0.476525267608553E+02
              0.396318185252160E+02
             -0.940267341589350E+02
             -0.329869146862284E+02
              0.548456695025454E+02
              0.207626007871561E+02
             -0.829845152614259E+02
              0.630824188401040E+02
             -0.256446722917273E+02
              0.511959451445448E+02
             -0.242648251090792E+02
             -0.750661239129070E+02
              0.111933026953212E+02
             -0.610785151450449E+02
             -0.168197907331068E+02
             -0.146333329283010E+01
              0.418021571692487E+02
              0.126898892290090E+03
             -0.461453316575310E+02
             -0.362546608694217E+02
             -0.967655867574990E+00
             -0.130103086212128E+02
             -0.821987573852628E+02
             -0.596291674438297E+02
              0.516922860324000E+02
             -0.288850793004779E+02
              0.169068523100577E+02
             -0.489050428860243E+02
             -0.131727744448950E+02
             -0.436995456654351E+02
              0.565165664765175E+02
              0.151315689507087E+02
             -0.231424011509629E+02
             -0.126617776376820E+02
              0.665536551493189E+01
             -0.618067165603742E+01
              0.441318117853102E+02
             -0.251830605490601E+02
              0.272108410264138E+01
              0.338841348699915E+02
              0.171376334738683E+02
             -0.159345750849505E+02
              0.156152233083199E+03
              0.537152617016651E+02
              0.116903741218589E+01
              0.161813551135328E+02
             -0.614004417894935E+02
              0.314783001112982E+02
             -0.721194903461671E+02
             -0.251952586298556E+02
             -0.522115097115437E+02
             -0.219851050707285E+02
              0.568654469257091E+02
             -0.536489356108098E+02
              0.160553195868858E+02
             -0.406972825457910E+01
              0.388588154754046E+01
             -0.433612104160254E+02
             -0.478088396156543E+02
             -0.397591569924202E+01
             -0.424926030590750E+02
             -0.217218334359897E+02
             -0.438028985192370E+02
             -0.119293569001682E+02
             -0.358641355106446E+02
             -0.516126857664377E+02
              0.212561991253781E+02
             -0.209292739065830E+02
              0.187583610017909E+02
              0.973890569316143E+01
             -0.737345339684173E+02
             -0.547779050521096E+02
             -0.397561821335156E+02
              0.353995792417677E+02
              0.270997182841671E+01
             -0.626232859886676E+02
              0.585026953974875E+02
             -0.400761510522624E+02
              0.544269496045888E+02
             -0.289137175655008E+02
             -0.445651032353821E+02
              0.298590326211873E+02
             -0.657232308218033E+02
             -0.379506724930174E+02
              0.672106333279723E+02
              0.203687092826324E+02
             -0.359393557479164E+02
              0.488692112462185E+02
             -0.173752330546860E+02
             -0.322339008494765E+02
             -0.301485143338724E+02
             -0.500224055977527E+02
              0.249024382963251E+02
             -0.932185198788493E+02
             -0.839532063458775E+02
             -0.733400459921916E+01
             -0.306658512866792E+02
             -0.574967298811021E+02
              0.721319181033903E+02
              0.131420184900621E+03
             -0.360790865994951E+02
             -0.255419567750283E+01
             -0.636446899734205E+02
              0.650198193113351E+02
              0.170452143311511E+02
             -0.181100806346333E+02
             -0.409757452494338E+02
              0.148645111046106E+02
             -0.585766581580336E+02
             -0.197469768591193E+02
             -0.904066400908536E+02
              0.336589914936434E+02
              0.168924778784472E+02
              0.184166648406108E+01
             -0.703432245915155E+01
             -0.328975785435448E+02
             -0.756319887012654E+01
              0.125382569315472E+03
             -0.199086807191981E+02
             -0.436709686927739E+02
             -0.683361521604979E+02
              0.109000826077516E+02
             -0.341696318787056E+02
              0.588528398981849E+01
              0.261199659855732E+02
              0.101968550405709E+02
              0.277496362671997E+02
              0.119600895393951E+02
              0.629174720990929E+02
              0.316784670087592E+02
             -0.326172447744534E+02
              0.355069922190358E+02
              0.379259724127797E+02
              0.120848449378953E+02
              0.486428812246727E+02
             -0.224416389050887E+02
              0.765168796404959E+02
              0.172144384653351E+02
             -0.271940837067363E+02
             -0.720581701114132E+01
             -0.186164637799288E+02
              0.261845783950888E+02
             -0.234624440499201E+02
             -0.103382909174911E+00
             -0.847034737754041E+01
              0.809335045395291E+02
              0.499550866317344E+02
             -0.686853244317277E+02
             -0.473638347712310E+01
             -0.555136949831247E+02
             -0.159667424797282E+02
             -0.267885866226997E+02
              0.374214601961910E+01
              0.572515734062684E+00
             -0.257148603101609E+02
              0.812591368112288E+01
             -0.602182884150830E+01
             -0.128475257282509E+02
              0.858455687534701E+02
              0.181823225597554E+02
             -0.806194437530721E+02
             -0.457968847971897E+02
              0.944038471253410E+02
              0.277520971439087E+02
             -0.106778697367195E+02
              0.104460583541806E+03
             -0.195037111123397E+02
             -0.123068293133795E+02
             -0.536946817815317E+01
              0.107161781373050E+02
              0.272001595605337E+02
              0.779761827633607E+01
              0.305148806422152E+02
             -0.188056008606763E+02
             -0.303177572221454E+02
             -0.417345565006465E+02
             -0.476396401228756E+02
              0.463630679089490E+02
              0.126801700919351E+02
              0.387157503436964E+02
              0.133251753444733E+02
              0.854864768005892E+02
              0.156337423956942E+02
             -0.845406966539110E+02
             -0.334125021516608E+02
              0.133834198448536E+02
             -0.302605223430855E+02
              0.625957153995281E+02
             -0.885028100765021E+01
              0.148807339170956E+02
              0.496800224336076E+02
             -0.706754265056478E+02
              0.149620376648297E+03
              0.208454454839284E+02
              0.271213473721132E+02
              0.347220765272408E+02
              0.103534623545222E+02
             -0.158990077930054E+01
              0.358274799132345E+02
             -0.356546731910362E+02
              0.772469196520108E+02
              0.684081179809889E+02
             -0.405535368869984E+02
              0.149146093628644E+02
              0.669628034385702E+02
             -0.223890301584678E+02
              0.154163098423477E+02
              0.434941922592430E+02
              0.422070898241491E+02
             -0.784044551872238E+02
             -0.152600617172752E+02
             -0.356034823614788E+02
             -0.146955454995015E+01
             -0.762597868388619E+01
             -0.547513726776697E+01
             -0.180783079895774E+02
             -0.293224770256270E+02
              0.630568555534701E+01
              0.111745721485545E+02
              0.535130340448323E+02
             -0.389795434527771E+02
              0.373780952015945E+02
              0.437950523618679E+02
             -0.186749715281575E+02
              0.871724880531971E+02
             -0.697392803768748E+02
             -0.103102439768718E+03
             -0.658730440024458E+01
             -0.267691236307166E+01
              0.386233372201787E+01
              0.788745072742354E+02
             -0.107082175354582E+02
              0.416312110573800E+02
              0.442977841967256E+02
              0.385176593450415E+02
             -0.993918154106018E+01
              0.627360748460881E+02
             -0.133567158017259E+02
             -0.307033748349214E+02
             -0.479030066415274E+02
              0.586787029158309E+01
              0.369395893691127E+02
             -0.603125627010110E+01
              0.392934388038052E+02
             -0.177713549822829E+01
              0.654981368258578E+02
              0.187513817320149E+02
              0.998509692839561E+01
             -0.121683863145975E+02
              0.331965790069317E+02
              0.362547335034919E+02
              0.232725136092152E+02
             -0.519716457242907E+00
             -0.550030964869536E+02
              0.260570721410649E+02
              0.175080641340838E+02
              0.402413011396946E+02
              0.272078467249466E+02
              0.372307404284780E+02
             -0.605982096948011E+01
              0.250539603247064E+02
             -0.298361279112721E+02
             -0.195752179509384E+01
             -0.568846954163159E+02
             -0.308002366176935E+02
              0.378467564120245E+02
             -0.934870554118346E+02
              0.294313128691016E+02
              0.183782867345966E+02
              0.839388817235389E+02
             -0.300660219811825E+02
              0.328969632294666E+02
             -0.137798695750658E+02
             -0.463718072958737E+02
             -0.761405752198287E+02
             -0.523554762104015E+01
             -0.859044287493547E+02
              0.199806220656727E+02
             -0.247227225751502E+02
              0.305568668765395E+02
              0.236599590139223E+02
             -0.240674917838321E+02
             -0.264813373099825E+02
              0.390763447141848E+02
             -0.587504436542365E+02
             -0.116409596374765E+02
             -0.195974246467365E+02
              0.212285988109809E+02
             -0.893488227143496E+01
              0.363613100052103E+01
             -0.200550899353624E+02
              0.558427509232881E+02
             -0.438740476298242E+02
              0.786200362758325E+01
              0.584666402470625E+02
             -0.322982834155177E+02
              0.359117615663675E+01
             -0.882871273429942E+01
             -0.669021403857188E+02
             -0.482550767963973E+02
             -0.861844757419088E+01
              0.240497074604383E+02
              0.302108017543542E+02
              0.856932077342191E+01
             -0.415537699448817E+01
              0.151893980123176E+02
             -0.439735875784915E+02
              0.335101344602555E+01
             -0.530578116656167E+02
             -0.324572486513339E+02
              0.474383541728137E+02
             -0.294951451163079E+02
              0.621762566409328E+02
             -0.214211112333502E+02
              0.353627577172992E+02
              0.241442720299833E+02
             -0.643566614675206E+02
             -0.280394370985669E+02
              0.932702225171818E+01
             -0.371346973718688E+02
             -0.339414328552257E+02
             -0.829439647077447E+02
             -0.538934072752286E+02
             -0.510108477902154E+02
             -0.415287240686449E+02
             -0.983556430448942E+00
              0.994727382304856E+01
              0.100761869749360E+01
              0.152983062023060E+02
             -0.548949462045553E+02
              0.141542277147902E+02
              0.256047712234738E+02
             -0.666296204373405E+02
             -0.701561219821934E+02
             -0.430867430473397E+02
             -0.171578119594579E+02
              0.178478051060540E+02
              0.455402889926688E+01
             -0.425959525177073E+02
              0.366191442352080E+02
             -0.215929353282296E+02
              0.517116581743045E+02
             -0.886643635450442E+02
              0.597109882519691E+02
             -0.210824217113044E+01
             -0.367914527012138E+02
             -0.216472995020237E+02
              0.472017627612398E+01
              0.374430419032967E+02
             -0.755652163532255E+02
             -0.120841581103608E+02
             -0.216412234301044E+02
              0.510762591652192E+02
              0.864096008694860E+02
             -0.964337252816661E+02
              0.943478360259520E+02
              0.467688875986232E+02
             -0.724990121557174E+02
             -0.366403746168169E+02
              0.751236321887272E+02
              0.631609896050752E+02
             -0.180589537035000E+02
             -0.463572709829987E+01
              0.730030586813945E+01
              0.648447271706200E+02
             -0.507947395881116E+02
              0.158358449550886E+02
             -0.472155277223320E+01
              0.347655164681790E+02
             -0.746409742745207E+02
             -0.648347803533743E+01
             -0.350922685373099E+02
              0.460332141767187E+02
              0.468573788536160E+02
             -0.861165384741710E+02
             -0.486743638480860E+02
             -0.256131613321944E+02
             -0.338961927383379E+02
             -0.109306839337326E+02
             -0.242815756815729E+02
              0.426982941405080E+02
              0.400997057290233E+02
             -0.565734153281505E+01
             -0.415903913481794E+02
             -0.849652848888433E+02
              0.442782834244144E+02
             -0.523004031119823E+02
             -0.312673617098154E+02
              0.546721811229592E+01
             -0.322200226835255E+02
             -0.397744101910604E+02
             -0.239772930043218E+02
             -0.384749366706021E+02
             -0.270825092609530E+02
             -0.482221151923679E+02
              0.563579219092057E+02
              0.637742986100965E+02
             -0.171281334587172E+01
             -0.261106888512776E+02
             -0.624529471603751E+01
              0.440745703885844E+02
             -0.867260764042530E+02
             -0.146138833490236E+02
              0.523508386790934E+02
              0.662875602599564E+02
             -0.244356324439867E+02
              0.913957994842394E+01
              0.522837485764546E+02
              0.197928389697794E+02
             -0.831418041347047E+01
             -0.452749013182687E+02
              0.280181873378900E+02
             -0.352242779555956E+02
             -0.164616275999006E+02
             -0.152882921476840E+02
             -0.200130168556241E+02
[...]
              0.283258885625470E+02
              0.141711287105574E+03
              0.241889458271003E+02
              0.122429195131614E+02
             -0.464244202975634E+02
             -0.637430469306007E+02
             -0.188675379318782E+02
              0.328997677395930E+02
             -0.425967299664842E+01
              0.189401092853551E+02
              0.335839869215240E+02
             -0.586424467169189E+02
              0.222059074526700E+02
              0.582067051971478E+02
              0.552728668636446E+02
             -0.420709384533967E+01
             -0.138346146553260E+01
             -0.992416201255597E+01
             -0.481945701146611E+02
             -0.674401558828466E+02
              0.784982270194621E+02
             -0.523564794789675E+01
             -0.587422793072998E+02
              0.170599394488724E+01
             -0.204957091855687E+02
              0.937581968121790E+02
             -0.216279498781355E+02
             -0.353277430392887E+02
              0.334666417068720E+02
             -0.145501780282004E+02
              0.389214109847051E+02
             -0.240487250331967E+01
              0.101013159900955E+03
              0.489168299431255E+02
             -0.511913383022347E+01
             -0.321649184953882E+02
              0.231912815699961E+02
             -0.528044216150094E+02
             -0.127961661923634E+02
              0.585157967061427E+02
             -0.287391221680764E+02
             -0.438109393073386E+02
             -0.223040788252150E+02
              0.518406747883904E+02
              0.124875060837283E+02
             -0.848114383101720E+02
              0.303444873342891E+02
              0.151894807681891E+02
              0.574405709841068E+01
             -0.512997981444507E+02
             -0.377995867526641E+01
              0.322923968975251E+02
              0.512434973783618E+02
              0.631785023194013E+02
              0.228632509470470E+02
              0.790275037982269E+00
             -0.497372519824818E+02
             -0.509441010023517E+02
             -0.747442419773362E+02
             -0.612092969086621E+01
              0.308533843271839E+02
             -0.376749553260427E+01
              0.546474079564729E+02
             -0.317603754713336E+02
              0.166626509390189E+02
             -0.102205393782539E+02
             -0.289058335846161E+02
              0.584885791195936E+02
              0.791731415275746E+01
              0.603454484562159E+02
              0.506458788165787E+01
              0.264900656097269E+02
             -0.192600005709846E+02
              0.585654283683597E+02
             -0.110941340691387E+02
             -0.147232654733584E+00
             -0.789385650934998E+02
             -0.128290759080854E+02
              0.718408484630070E+02
              0.672698191820731E+02
              0.251533637110392E+02
             -0.130339231526279E+02
              0.341640237795781E+01
             -0.173226203053314E+02
             -0.202926210312975E+01
              0.906740487480425E+02
              0.123866068445761E+01
             -0.190123426480562E+02
             -0.110665595597942E+03
             -0.552432803144636E+02
             -0.374483897988495E+02
             -0.658127048771065E+02
             -0.554801919776899E+02
             -0.681978013420883E+02
             -0.446554195542395E+02
             -0.410658640293045E+02
             -0.451466614973665E+02
              0.482936005039436E+02
             -0.294174985366866E+02
             -0.995033592018764E+02
              0.418325412399203E+02
             -0.259589367795471E+02
             -0.790262536264630E+02
              0.942992653808566E+02
             -0.219431872392088E+02
              0.228005417766984E+02
              0.454729618191567E+02
             -0.138512436898628E+01
              0.254043647843321E+02
              0.469085189829590E+01
              0.423559088147524E+00
             -0.150199675124567E+02
             -0.714674107822205E+02
              0.132952025502070E+02
             -0.129275673308255E+03
              0.623167652755836E+02
             -0.440124075918984E+02
             -0.162827907666950E+02
             -0.158165571422501E+02
              0.710667739491504E+01
             -0.227564536897310E+02
              0.297001615273605E+02
             -0.520102824714406E+02
              0.366861241183913E+02
              0.370087924148975E+02
              0.168592506207480E+02
              0.100146111681032E+02
              0.197585299766639E+02
              0.620200723751492E+01
              0.310206948818856E+02
             -0.797194503099723E+01
             -0.591228695741477E+02
              0.756163800371286E+01
             -0.152346623316198E+02
             -0.191422039171624E+01
              0.505345951055231E+02
             -0.826000883298056E+02
             -0.152476593069514E+01
              0.567923216811096E+00
              0.994104349554999E+01
              0.318254674374342E+02
             -0.123492289509200E+02
              0.835125178736469E+02
              0.487499292872760E+02
             -0.183183250725457E+02
             -0.958503150363345E+01
              0.104788925959176E+01
              0.768940305874216E+02
             -0.585915656367517E+02
             -0.105664765324378E+03
              0.308732699110475E+02
             -0.162754946311277E+02
             -0.139013506876228E+02
              0.130488734043866E+02
              0.767785250366485E+02
              0.463683731708065E+02
             -0.153359960739992E+02
             -0.502435872039801E+02
             -0.548008031852753E+01
              0.306134043009314E+02
             -0.111327240442781E+02
             -0.754984742525319E+02
             -0.268846579324065E+01
             -0.888900991624240E+02
             -0.475144432013735E+02
              0.767483818327700E+02
             -0.482909646740403E+02
             -0.635694721052559E+02
             -0.513687821259586E+02
             -0.349341755991119E+02
              0.340192829246616E+02
              0.820602104120691E+02
             -0.353741895434251E+01
              0.276357761069908E+02
             -0.183412635065730E+02
             -0.693266521402419E+02
              0.464423678578026E+02
             -0.444364458567702E+02
              0.321572605845662E+02
              0.376014277221047E+02
             -0.652878711920096E+01
              0.390347899649109E+02
              0.438033691228254E+02
              0.100524589094733E+03
             -0.156037319780717E+02
             -0.455322412796485E+02
             -0.612252710031098E+02
             -0.123846827086439E+02
             -0.232323819553927E+02
              0.102922023570059E+03
             -0.448324259020973E+02
              0.105151614669793E+02
              0.972976159040979E+01
             -0.264466268472287E+02
             -0.797581351115267E+02
             -0.697471053544683E+01
              0.978728806034932E+02
              0.935405064756020E+01
              0.808491009876536E+01
             -0.526236966612705E+02
             -0.604980445370356E+02
             -0.561819105605316E+01
              0.500041267346145E+02
             -0.221522107369765E+02
              0.107872394321564E+03
             -0.434610115675969E+02
              0.146166713475458E+02
             -0.224259415699687E+02
             -0.717733230900913E+02
              0.167874145159442E+01
             -0.501122911105820E+02
             -0.759886513505539E+02
              0.613243635907952E+01
              0.237995225918172E+01
              0.513546270707905E+02
              0.186985401799860E+02
             -0.323096860297436E+02
              0.229788435489492E+02
             -0.809699060882964E+02
             -0.521424183950604E+02
              0.900778370315781E+02
              0.142520787349833E+02
             -0.188060690387414E+02
             -0.352120253605673E+02
             -0.268277706527545E+01
             -0.586100527683197E+01
              0.828642887839061E+02
              0.417010265472847E+02
             -0.166152260150145E+02
             -0.122027519377673E+02
             -0.427208854755634E+02
             -0.200583058057597E+02
             -0.669486921765192E+02
              0.458947634029483E+02
              0.544695422582916E+01
              0.144839558937460E+02
              0.155799540477464E+02
             -0.556570135304980E+00
             -0.168145398362167E+02
             -0.311059313404530E+01
             -0.100311333297804E+03
             -0.229585566357984E+02
             -0.761664921672462E+01
             -0.947716796207493E+01
              0.546282690974414E+02
              0.622949040876121E+02
              0.164677443224396E+02
             -0.969550347169759E+02
              0.647037780024411E+02
             -0.214843288513740E+02
             -0.376663081937190E+02
             -0.863280020256736E+02
             -0.386639163022263E+02
              0.563588013193962E+02
              0.243521387480880E+02
              0.510329878280231E+01
              0.291860184941958E+02
             -0.564302440020587E+02
             -0.421737118049070E+02
              0.514555930672964E+02
              0.386843060486975E+02
              0.518507375436304E+02
             -0.125782895418376E+01
              0.682556512047375E+01
              0.568892203548704E+02
              0.961632230340957E+02
             -0.300111648655164E+02
              0.322250340337421E+02
             -0.117836448497463E+02
             -0.411590946631142E+02
             -0.313745456296377E+02
             -0.299580671599542E+02
             -0.131260495855476E+02
             -0.523011312475184E+02
             -0.217134567716632E+02
             -0.141011726232493E+03
              0.368353318061138E+02
              0.206602668640095E+02
             -0.392822711533555E+01
             -0.379641304359606E+02
             -0.204108852172554E+02
             -0.526224118774466E+02
              0.150924653646382E+02
              0.819132603096447E+02
             -0.251973545670749E+02
             -0.162760787740314E+02
              0.237835156477747E+02
             -0.488548095954756E+02
              0.879529396375676E+02
              0.154289421635821E+02
              0.226276663277037E+02
              0.489920077417943E+02
              0.323326657086460E+01
              0.541627256056581E+02
              0.142810335471785E+02
             -0.106516324459135E+02
              0.732670671515862E+01
              0.834780325120391E+00
              0.726697061058679E+02
              0.100763298839419E+02
              0.120135978355939E+02
             -0.129740605569039E+02
              0.132038483974380E+02
             -0.910214142768855E+02
             -0.325447074722865E+02
             -0.456856156171447E+02
              0.484914420791458E+02
             -0.290746707069583E+02
             -0.657884121322121E+02
              0.537756355965334E+02
             -0.121940540684372E+02
              0.439616007856509E+02
             -0.897716142591592E+02
              0.231850335812995E+02
              0.858231904084474E+01
              0.582233898364348E+01
             -0.831421267987395E+01
             -0.902238046053310E+01
              0.478712670986071E+02
              0.199685800524162E+01
             -0.474434169194311E+02
             -0.175757488609350E+02
              0.276522516318773E+02
             -0.117782939517149E+03
             -0.928841699231291E+02
              0.397185032377467E+01
              0.117410598597697E+02
             -0.412426689651952E+02
             -0.387919898824316E+01
              0.112007644598059E+03
              0.306472992918943E+02
             -0.570961232983166E+02
              0.924796882415583E+01
             -0.964059398181134E+01
              0.105238309027541E+02
             -0.337060964656992E+02
              0.194976007596438E+02
              0.284331597703916E+02
             -0.301263356251741E+01
              0.108053115135561E+03
             -0.140144382861388E+02
             -0.315588719889262E+02
              0.142665508254920E+02
              0.466041238833777E+02
             -0.355419279938794E+02
             -0.318192040130138E+01
              0.963516290556964E+02
             -0.465000202261172E+01
              0.620956694481891E+02
              0.135207881349468E+02
             -0.903961849665514E+01
             -0.305162179133218E+02
              0.566189251174426E+02
             -0.513639491648740E+02
             -0.220448348390636E+01
             -0.169809322411650E+02
             -0.404747938054484E+02
              0.184559729847007E+02
              0.238688522610266E+02
              0.115992171006465E+02
              0.727022776778199E+00
             -0.384094611745016E+02
              0.215477025026700E+02
             -0.673785155556502E+01
             -0.246481392472494E+02
             -0.210453820754243E+02
              0.203370749302043E+02
             -0.594427476676242E+01
             -0.348742596040923E+02
             -0.106477335424531E+03
              0.102781057384803E+02
              0.248605611860756E+02
             -0.386680583903091E+02
             -0.210681069976391E+02
              0.805971120411319E+02
              0.648399619205802E+01
              0.310354283053522E+02
              0.389839400369596E+01
              0.321509147556455E+02
              0.644367651677641E+01
             -0.372604224403383E+02
             -0.228300474333511E+01
              0.875758256314185E+01
              0.273425123291699E+02
              0.781236627497030E+02
              0.506938750718369E+02
              0.166436371886959E+00
              0.168608746314713E+02
              0.612422969732263E+02
              0.235625804999331E+02
             -0.752214273012609E+02
             -0.273314857203455E+02
              0.150848381602534E+02
              0.561830405055582E+01
              0.254916044565760E+02
             -0.547256324794548E+02
              0.899794590088322E+01
              0.385224062947743E+02
              0.497556772068812E+02
             -0.434581674024765E+02
             -0.692129431519032E+01
             -0.207636970145882E+01
             -0.133667414361494E+02
             -0.365514784200256E+02
             -0.215130549518335E+02
             -0.199018561588595E+01
              0.790672165024012E+01
              0.420814271679695E+02
             -0.308145258465904E+02
              0.825205951644803E+02
              0.327231208723583E+02
              0.219293757052411E+02
              0.332349788702834E+02
              0.322982266246023E+02
              0.345452167977656E+02
              0.536650870846525E+02
             -0.433326802844704E+02
              0.618820025320389E+02
             -0.112113450767326E+03
              0.307130570650947E+02
             -0.106420260466595E+03
              0.853906311477626E+02
              0.689763995332191E+02
             -0.109840609238339E+02
             -0.492776015560314E+02
             -0.428918164313102E+02
             -0.622910247986996E+02
             -0.627958378628682E+02
              0.550985943347299E+02
              0.405166411365540E+02
              0.236669653374962E+02
              0.373681306943239E+02
              0.402618735480504E+02
             -0.381691359941198E+02
             -0.197734788669662E+02
              0.585754223262233E+02
             -0.115747837529591E+02
              0.551027660213752E+02
              0.698597680245912E+02
             -0.552487374952210E+01
             -0.705443983810801E+02
             -0.935456158944248E+00
             -0.245508252926339E+01
             -0.882099895221927E+01
             -0.178101064999328E+01
             -0.652312833604358E+02
             -0.210919826915245E+02
              0.536506736490195E+01
              0.894784757858548E+01
              0.468342798390543E+02
             -0.397381596013834E+02
              0.657009570640008E+02
             -0.424917104948075E+02
              0.209938408152368E+02
              0.349968213553889E+02
 
 BEEF-vdW xc energy contributions
           1 :   -782.336642062117     
           2 :    719.017289586747     
           3 :   -609.169646272027     
           4 :    479.535367378585     
           5 :   -357.523853148727     
           6 :    263.054125504120     
           7 :   -203.934236618080     
           8 :    175.753847806887     
           9 :   -165.880685890046     
          10 :    159.638958638079     
          11 :   -146.129308908625     
          12 :    121.495384488720     
          13 :   -88.7895850120019     
          14 :    55.0563028125464     
          15 :   -27.3220282297225     
          16 :    9.31791317026909     
          17 :  -0.211124607166653     
          18 :   -4.41365767380967     
          19 :    10.0502787533280     
          20 :   -20.5659082656798     
          21 :    36.5339150419733     
          22 :   -55.2620956422742     
          23 :    72.3314422315418     
          24 :   -83.8028542073907     
          25 :    88.0066199524697     
          26 :   -86.1335539574756     
          27 :    81.4539168891283     
          28 :   -77.6317510935980     
          29 :    76.9830012429081     
          30 :   -79.5037586660446     
          31 :   -85.7972291589734     
          32 :   -65.8321322796577     

     Writing output data file ./pwscf.save/
 
     init_run     :    334.02s CPU    338.33s WALL (       1 calls)
     electrons    :  12952.11s CPU  13072.02s WALL (       1 calls)
     forces       :     99.89s CPU    101.06s WALL (       1 calls)

     Called by init_run:
     wfcinit      :    286.02s CPU    289.39s WALL (       1 calls)
     potinit      :     45.14s CPU     45.47s WALL (       1 calls)
     hinit0       :      1.11s CPU      1.14s WALL (       1 calls)

     Called by electrons:
     c_bands      :  10714.97s CPU  10808.45s WALL (      20 calls)
     sum_band     :   1533.36s CPU   1545.04s WALL (      20 calls)
     v_of_rho     :    127.36s CPU    131.40s WALL (      20 calls)
     newd         :     29.27s CPU     40.15s WALL (      20 calls)
     PAW_pot      :    133.54s CPU    133.55s WALL (      20 calls)
     mix_rho      :    459.43s CPU    460.06s WALL (      20 calls)
     vdW_kernel   :     33.46s CPU     33.47s WALL (       1 calls)

     Called by c_bands:
     init_us_2    :     75.69s CPU     75.92s WALL (     546 calls)
     cegterg      :   9920.90s CPU  10014.10s WALL (     260 calls)

     Called by *egterg:
     cdiaghg      :     95.63s CPU     95.65s WALL (    1326 calls)
     h_psi        :   6452.98s CPU   6486.11s WALL (    1352 calls)
     s_psi        :   1042.99s CPU   1043.06s WALL (    1352 calls)
     g_psi        :     16.12s CPU     16.13s WALL (    1079 calls)

     Called by h_psi:
     h_psi:calbec :    983.47s CPU    983.66s WALL (    1352 calls)
     vloc_psi     :   4401.49s CPU   4402.95s WALL (    1352 calls)
     add_vuspsi   :   1042.70s CPU   1042.80s WALL (    1352 calls)

     General routines
     calbec       :   1450.85s CPU   1451.10s WALL (    1664 calls)
     fft          :     49.02s CPU     49.04s WALL (    3220 calls)
     ffts         :    146.21s CPU    146.23s WALL (   10246 calls)
     fftw         :   4492.19s CPU   4493.24s WALL (  331960 calls)
 
     Parallel routines
 
     PWSCF        :      3h45m CPU      3h47m WALL

 
   This run was terminated on:  14: 9:41   4Jan2023            

=------------------------------------------------------------------------------=
   JOB DONE.
=------------------------------------------------------------------------------=
