
     Program PWSCF v.6.7MaX starts on  4Jan2023 at 10:23:42 

     This program is part of the open-source Quantum ESPRESSO suite
     for quantum simulation of materials; please cite
         "P. Giannozzi et al., J. Phys.:Condens. Matter 21 395502 (2009);
         "P. Giannozzi et al., J. Phys.:Condens. Matter 29 465901 (2017);
          URL http://www.quantum-espresso.org", 
     in publications or presentations arising from this work. More details at
     http://www.quantum-espresso.org/quote

     Parallel version (MPI), running on     1 processors

     MPI processes distributed on     1 nodes
     Reading input from chchch2-mono-ensemble.in
Warning: card &CELL ignored
Warning: card / ignored

     Current dimensions of program PWSCF are:
     Max number of different atomic species (ntypx) = 10
     Max number of k-points (npk) =  40000
     Max angular momentum in pseudopotentials (lmaxx) =  3
     file Pt.pbe-n-kjpaw_psl.1.0.0.UPF: wavefunction(s)  6S 5D renormalized
     file C.pbe-n-kjpaw_psl.1.0.0.UPF: wavefunction(s)  2S 2P renormalized
     file H.pbe-kjpaw_psl.1.0.0.UPF: wavefunction(s)  1S renormalized

     **************************************************************************
     Initializing libbeef V0.1.2 with the BEEF-vdW functional.
     Citation: Wellendorff et al., PRB 85, 235149 (2012).
     **************************************************************************


     IMPORTANT: XC functional enforced from input :
     Exchange-correlation= BEEF-VDW
                           (   1   4  43  14   2   0   0)
     Any further DFT definition will be discarded
     Please, verify this is what you really want


     Subspace diagonalization in iterative solution of the eigenvalue problem:
     a serial algorithm will be used

 
     G-vector sticks info
     --------------------
     sticks:   dense  smooth     PW     G-vecs:    dense   smooth      PW
     Sum        4267    4267   1159               790341   790341  111451
 


     bravais-lattice index     =            0
     lattice parameter (alat)  =      16.0349  a.u.
     unit-cell volume          =   12581.4643 (a.u.)^3
     number of atoms/cell      =           43
     number of atomic types    =            3
     number of electrons       =       376.00
     number of Kohn-Sham states=          226
     kinetic-energy cutoff     =      60.0000  Ry
     charge density cutoff     =     240.0000  Ry
     scf convergence threshold =      1.0E-06
     mixing beta               =       0.7000
     number of iterations used =            8  local-TF  mixing
     Exchange-correlation= BEEF-VDW
                           (   1   4  43  14   2   0   0)

     celldm(1)=  16.034858  celldm(2)=   0.000000  celldm(3)=   0.000000
     celldm(4)=   0.000000  celldm(5)=   0.000000  celldm(6)=   0.000000

     crystal axes: (cart. coord. in units of alat)
               a(1) = (   1.000000   0.000000   0.000000 )  
               a(2) = (   0.500000   0.866025   0.000000 )  
               a(3) = (   0.000000   0.000000   3.523751 )  

     reciprocal axes: (cart. coord. in units 2 pi/alat)
               b(1) = (  1.000000 -0.577350  0.000000 )  
               b(2) = (  0.000000  1.154701  0.000000 )  
               b(3) = (  0.000000  0.000000  0.283788 )  


     PseudoPot. # 1 for Pt read from file:
     /users/bkreitz1/quantum-espresso/potentials/Pt.pbe-n-kjpaw_psl.1.0.0.UPF
     MD5 check sum: 04dc8a03c51ece93fc7b5889c2958091
     Pseudo is Projector augmented-wave + core cor, Zval = 10.0
     Generated using 'atomic' code by A. Dal Corso  v.6.7MaX
     Shape of augmentation charge: PSQ
     Using radial grid of 1277 points,  6 beta functions with: 
                l(1) =   0
                l(2) =   0
                l(3) =   1
                l(4) =   1
                l(5) =   2
                l(6) =   2
     Q(r) pseudized with 0 coefficients 


     PseudoPot. # 2 for C  read from file:
     /users/bkreitz1/quantum-espresso/potentials/C.pbe-n-kjpaw_psl.1.0.0.UPF
     MD5 check sum: a169b0ebad56f5ec0d79c4633f80bf22
     Pseudo is Projector augmented-wave + core cor, Zval =  4.0
     Generated using 'atomic' code by A. Dal Corso  v.6.7MaX
     Shape of augmentation charge: PSQ
     Using radial grid of 1073 points,  4 beta functions with: 
                l(1) =   0
                l(2) =   0
                l(3) =   1
                l(4) =   1
     Q(r) pseudized with 0 coefficients 


     PseudoPot. # 3 for H  read from file:
     /users/bkreitz1/quantum-espresso/potentials/H.pbe-kjpaw_psl.1.0.0.UPF
     MD5 check sum: ae98473e6dc62675f0d0baffdab24f65
     Pseudo is Projector augmented-wave, Zval =  1.0
     Generated using 'atomic' code by A. Dal Corso  v.6.7MaX
     Shape of augmentation charge: PSQ
     Using radial grid of  929 points,  2 beta functions with: 
                l(1) =   0
                l(2) =   0
     Q(r) pseudized with 0 coefficients 


     atomic species   valence    mass     pseudopotential
        Pt            10.00   195.08400     Pt( 1.00)
        C              4.00    12.01100     C ( 1.00)
        H              1.00     1.00800     H ( 1.00)

     No symmetry found



   Cartesian axes

     site n.     atom                  positions (alat units)
         1           Pt  tau(   1) = (   0.0000000   0.0000000   1.0017346  )
         2           Pt  tau(   2) = (   0.3333333   0.0000000   1.0017346  )
         3           Pt  tau(   3) = (   0.6666667   0.0000000   1.0017346  )
         4           Pt  tau(   4) = (   0.1666667   0.2886751   1.0017346  )
         5           Pt  tau(   5) = (   0.5000000   0.2886751   1.0017346  )
         6           Pt  tau(   6) = (   0.8333333   0.2886751   1.0017346  )
         7           Pt  tau(   7) = (   0.3333333   0.5773503   1.0017346  )
         8           Pt  tau(   8) = (   0.6666667   0.5773503   1.0017346  )
         9           Pt  tau(   9) = (   1.0000000   0.5773503   1.0017346  )
        10           Pt  tau(  10) = (   0.1666667   0.0962250   1.2739001  )
        11           Pt  tau(  11) = (   0.5000000   0.0962250   1.2739001  )
        12           Pt  tau(  12) = (   0.8333333   0.0962250   1.2739001  )
        13           Pt  tau(  13) = (   0.3333333   0.3849002   1.2739001  )
        14           Pt  tau(  14) = (   0.6666667   0.3849002   1.2739001  )
        15           Pt  tau(  15) = (   1.0000000   0.3849002   1.2739001  )
        16           Pt  tau(  16) = (   0.5000000   0.6735753   1.2739001  )
        17           Pt  tau(  17) = (   0.8333333   0.6735753   1.2739001  )
        18           Pt  tau(  18) = (   1.1666667   0.6735753   1.2739001  )
        19           Pt  tau(  19) = (  -0.0017320   0.1938624   1.5409414  )
        20           Pt  tau(  20) = (   0.3329939   0.1947305   1.5446255  )
        21           Pt  tau(  21) = (   0.6624150   0.1960866   1.5492162  )
        22           Pt  tau(  22) = (   0.1660076   0.4834712   1.5424094  )
        23           Pt  tau(  23) = (   0.4984939   0.4794298   1.5498638  )
        24           Pt  tau(  24) = (   0.8322868   0.4830673   1.5428767  )
        25           Pt  tau(  25) = (   0.3320918   0.7716325   1.5420853  )
        26           Pt  tau(  26) = (   0.6651378   0.7709735   1.5409277  )
        27           Pt  tau(  27) = (   0.9996199   0.7720962   1.5425013  )
        28           Pt  tau(  28) = (  -0.0011527   0.0047654   1.8172648  )
        29           Pt  tau(  29) = (   0.3304067   0.0023465   1.8138544  )
        30           Pt  tau(  30) = (   0.6675822   0.0025336   1.8181272  )
        31           Pt  tau(  31) = (   0.1627658   0.2931124   1.8136434  )
        32           Pt  tau(  32) = (   0.5018615   0.2951710   1.8405230  )
        33           Pt  tau(  33) = (   0.8355870   0.2936652   1.8169374  )
        34           Pt  tau(  34) = (   0.3309829   0.5847702   1.8179383  )
        35           Pt  tau(  35) = (   0.6671901   0.5846935   1.8170738  )
        36           Pt  tau(  36) = (   0.9991552   0.5823437   1.8172922  )
        37           C   tau(  37) = (   0.4751202   0.2754538   2.0630072  )
        38           C   tau(  38) = (   0.5768534   0.3264884   2.1866149  )
        39           C   tau(  39) = (   0.5361649   0.3017504   2.3393449  )
        40           H   tau(  40) = (   0.3672111   0.2178967   2.1027781  )
        41           H   tau(  41) = (   0.6865222   0.3854074   2.1575325  )
        42           H   tau(  42) = (   0.6111848   0.3395174   2.4355108  )
        43           H   tau(  43) = (   0.4268459   0.2429166   2.3709472  )

     number of k points=    13  Marzari-Vanderbilt smearing, width (Ry)=  0.0200
                       cart. coord. in units 2pi/alat
        k(    1) = (   0.0000000   0.0000000   0.0000000), wk =   0.0800000
        k(    2) = (   0.0000000   0.2309401   0.0000000), wk =   0.1600000
        k(    3) = (   0.0000000   0.4618802   0.0000000), wk =   0.1600000
        k(    4) = (   0.2000000  -0.1154701   0.0000000), wk =   0.1600000
        k(    5) = (   0.2000000   0.1154701   0.0000000), wk =   0.1600000
        k(    6) = (   0.2000000   0.3464102   0.0000000), wk =   0.1600000
        k(    7) = (   0.2000000  -0.5773503   0.0000000), wk =   0.1600000
        k(    8) = (   0.2000000  -0.3464102   0.0000000), wk =   0.1600000
        k(    9) = (   0.4000000  -0.2309401   0.0000000), wk =   0.1600000
        k(   10) = (   0.4000000  -0.0000000   0.0000000), wk =   0.1600000
        k(   11) = (   0.4000000   0.2309401   0.0000000), wk =   0.1600000
        k(   12) = (   0.4000000  -0.6928203   0.0000000), wk =   0.1600000
        k(   13) = (   0.4000000  -0.4618802   0.0000000), wk =   0.1600000

     Dense  grid:   790341 G-vectors     FFT dimensions: (  80,  80, 288)

     Estimated max dynamical RAM per process >       9.60 GB

     Check: negative core charge=   -0.000002

     Initial potential from superposition of free atoms

     starting charge  375.99373, renormalised to  376.00000

     negative rho (up, down):  1.187E-02 0.000E+00


     %%%%%%%%%%%%%%%%%%%%%%%%%%%%%%%%%%%%%%%%%%%%%%%%%%%%%%%%%%%%%%%%%%%%%%%%
     %                                                                      %
     % You are using vdW-DF, which was implemented by the Thonhauser group. %
     % Please cite the following two papers that made this development      %
     % possible and the two reviews that describe the various versions:     %
     %                                                                      %
     %   T. Thonhauser et al., PRL 115, 136402 (2015).                      %
     %   T. Thonhauser et al., PRB 76, 125112 (2007).                       %
     %   K. Berland et al., Rep. Prog. Phys. 78, 066501 (2015).             %
     %   D.C. Langreth et al., J. Phys.: Condens. Matter 21, 084203 (2009). %
     %                                                                      %
     %                                                                      %
     % If you are calculating the stress with vdW-DF, please also cite:     %
     %                                                                      %
     %   R. Sabatini et al., J. Phys.: Condens. Matter 24, 424209 (2012).   %
     %                                                                      %
     %%%%%%%%%%%%%%%%%%%%%%%%%%%%%%%%%%%%%%%%%%%%%%%%%%%%%%%%%%%%%%%%%%%%%%%%


     Starting wfcs are  340 randomized atomic wfcs
     Checking if some PAW data can be deallocated... 

     total cpu time spent up to now is      363.4 secs

     Self-consistent Calculation

     iteration #  1     ecut=    60.00 Ry     beta= 0.70
     Davidson diagonalization with overlap
     ethr =  1.00E-02,  avg # of iterations =  2.0

     negative rho (up, down):  1.362E-02 0.000E+00

     total cpu time spent up to now is     1041.4 secs

     total energy              =  -27815.35676574 Ry
     estimated scf accuracy    <       4.80586362 Ry

     iteration #  2     ecut=    60.00 Ry     beta= 0.70
     Davidson diagonalization with overlap
     ethr =  1.28E-03,  avg # of iterations =  2.0

     negative rho (up, down):  1.169E-02 0.000E+00

     total cpu time spent up to now is     1720.4 secs

     total energy              =  -27815.85202477 Ry
     estimated scf accuracy    <       1.10313022 Ry

     iteration #  3     ecut=    60.00 Ry     beta= 0.70
     Davidson diagonalization with overlap
     ethr =  2.93E-04,  avg # of iterations =  7.8

     negative rho (up, down):  9.030E-03 0.000E+00

     total cpu time spent up to now is     2521.6 secs

     total energy              =  -27815.99429744 Ry
     estimated scf accuracy    <       0.37346771 Ry

     iteration #  4     ecut=    60.00 Ry     beta= 0.70
     Davidson diagonalization with overlap
     ethr =  9.93E-05,  avg # of iterations =  9.2

     negative rho (up, down):  5.698E-03 0.000E+00

     total cpu time spent up to now is     3390.9 secs

     total energy              =  -27816.04688680 Ry
     estimated scf accuracy    <       0.15654334 Ry

     iteration #  5     ecut=    60.00 Ry     beta= 0.70
     Davidson diagonalization with overlap
     ethr =  4.16E-05,  avg # of iterations =  8.5

     negative rho (up, down):  3.981E-03 0.000E+00

     total cpu time spent up to now is     4186.8 secs

     total energy              =  -27816.06291598 Ry
     estimated scf accuracy    <       0.15210832 Ry

     iteration #  6     ecut=    60.00 Ry     beta= 0.70
     Davidson diagonalization with overlap
     ethr =  4.05E-05,  avg # of iterations =  1.1

     negative rho (up, down):  3.162E-03 0.000E+00

     total cpu time spent up to now is     4776.0 secs

     total energy              =  -27816.06775203 Ry
     estimated scf accuracy    <       0.01979726 Ry

     iteration #  7     ecut=    60.00 Ry     beta= 0.70
     Davidson diagonalization with overlap
     c_bands:  2 eigenvalues not converged
     c_bands:  1 eigenvalues not converged
     c_bands:  3 eigenvalues not converged
     c_bands:  1 eigenvalues not converged
     c_bands:  1 eigenvalues not converged
     c_bands:  2 eigenvalues not converged
     c_bands:  1 eigenvalues not converged
     c_bands:  1 eigenvalues not converged
     c_bands:  1 eigenvalues not converged
     c_bands:  3 eigenvalues not converged
     c_bands:  2 eigenvalues not converged
     ethr =  5.27E-06,  avg # of iterations = 18.2

     negative rho (up, down):  2.875E-03 0.000E+00

     total cpu time spent up to now is     5890.0 secs

     total energy              =  -27816.07291492 Ry
     estimated scf accuracy    <       0.01526474 Ry

     iteration #  8     ecut=    60.00 Ry     beta= 0.70
     Davidson diagonalization with overlap
     c_bands:  1 eigenvalues not converged
     ethr =  4.06E-06,  avg # of iterations =  4.9

     negative rho (up, down):  2.714E-03 0.000E+00

     total cpu time spent up to now is     6553.1 secs

     total energy              =  -27816.07342477 Ry
     estimated scf accuracy    <       0.00843901 Ry

     iteration #  9     ecut=    60.00 Ry     beta= 0.70
     Davidson diagonalization with overlap
     ethr =  2.24E-06,  avg # of iterations =  9.2

     negative rho (up, down):  3.301E-03 0.000E+00

     total cpu time spent up to now is     7268.3 secs

     total energy              =  -27816.07344064 Ry
     estimated scf accuracy    <       0.00457283 Ry

     iteration # 10     ecut=    60.00 Ry     beta= 0.70
     Davidson diagonalization with overlap
     c_bands:  1 eigenvalues not converged
     ethr =  1.22E-06,  avg # of iterations = 13.4

     negative rho (up, down):  6.234E-03 0.000E+00

     total cpu time spent up to now is     8055.9 secs

     total energy              =  -27816.07332773 Ry
     estimated scf accuracy    <       0.00249196 Ry

     iteration # 11     ecut=    60.00 Ry     beta= 0.70
     Davidson diagonalization with overlap
     ethr =  6.63E-07,  avg # of iterations =  6.7

     negative rho (up, down):  1.172E-02 0.000E+00

     total cpu time spent up to now is     8744.3 secs

     total energy              =  -27816.07332222 Ry
     estimated scf accuracy    <       0.00166163 Ry

     iteration # 12     ecut=    60.00 Ry     beta= 0.70
     Davidson diagonalization with overlap
     c_bands:  3 eigenvalues not converged
     ethr =  4.42E-07,  avg # of iterations = 10.7

     negative rho (up, down):  1.139E-02 0.000E+00

     total cpu time spent up to now is     9476.4 secs

     total energy              =  -27816.07342793 Ry
     estimated scf accuracy    <       0.00063965 Ry

     iteration # 13     ecut=    60.00 Ry     beta= 0.70
     Davidson diagonalization with overlap
     ethr =  1.70E-07,  avg # of iterations =  2.4

     negative rho (up, down):  1.036E-02 0.000E+00

     total cpu time spent up to now is    10139.0 secs

     total energy              =  -27816.07353972 Ry
     estimated scf accuracy    <       0.00060417 Ry

     iteration # 14     ecut=    60.00 Ry     beta= 0.70
     Davidson diagonalization with overlap
     ethr =  1.61E-07,  avg # of iterations =  2.0

     negative rho (up, down):  8.901E-03 0.000E+00

     total cpu time spent up to now is    10776.5 secs

     total energy              =  -27816.07360761 Ry
     estimated scf accuracy    <       0.00035584 Ry

     iteration # 15     ecut=    60.00 Ry     beta= 0.70
     Davidson diagonalization with overlap
     ethr =  9.46E-08,  avg # of iterations =  2.5

     negative rho (up, down):  1.032E-02 0.000E+00

     total cpu time spent up to now is    11389.9 secs

     total energy              =  -27816.07363654 Ry
     estimated scf accuracy    <       0.00014489 Ry

     iteration # 16     ecut=    60.00 Ry     beta= 0.70
     Davidson diagonalization with overlap
     ethr =  3.85E-08,  avg # of iterations =  4.2

     negative rho (up, down):  1.147E-02 0.000E+00

     total cpu time spent up to now is    12091.6 secs

     total energy              =  -27816.07363997 Ry
     estimated scf accuracy    <       0.00014779 Ry

     iteration # 17     ecut=    60.00 Ry     beta= 0.70
     Davidson diagonalization with overlap
     ethr =  3.85E-08,  avg # of iterations =  1.3

     negative rho (up, down):  1.249E-02 0.000E+00

     total cpu time spent up to now is    12679.8 secs

     total energy              =  -27816.07363850 Ry
     estimated scf accuracy    <       0.00007208 Ry

     iteration # 18     ecut=    60.00 Ry     beta= 0.70
     Davidson diagonalization with overlap
     ethr =  1.92E-08,  avg # of iterations =  1.2

     negative rho (up, down):  1.350E-02 0.000E+00

     total cpu time spent up to now is    13272.2 secs

     total energy              =  -27816.07363854 Ry
     estimated scf accuracy    <       0.00002294 Ry

     iteration # 19     ecut=    60.00 Ry     beta= 0.70
     Davidson diagonalization with overlap
     ethr =  6.10E-09,  avg # of iterations =  3.8

     negative rho (up, down):  1.367E-02 0.000E+00

     total cpu time spent up to now is    13994.7 secs

     total energy              =  -27816.07364138 Ry
     estimated scf accuracy    <       0.00000650 Ry

     iteration # 20     ecut=    60.00 Ry     beta= 0.70
     Davidson diagonalization with overlap
     ethr =  1.73E-09,  avg # of iterations =  4.2

     negative rho (up, down):  1.353E-02 0.000E+00

     total cpu time spent up to now is    14762.8 secs

     End of self-consistent calculation

          k = 0.0000 0.0000 0.0000 ( 98827 PWs)   bands (ev):

   -14.5512 -11.2251  -8.4359  -7.2647  -6.2751  -5.9176  -5.5017  -4.9232
    -4.8643  -4.8566  -4.8507  -4.8386  -4.8232  -4.8176  -4.8093  -4.3594
    -4.2974  -4.2927  -4.2892  -4.2799  -4.2752  -3.9593  -3.8635  -3.8378
    -3.8255  -3.8237  -3.8159  -3.7805  -3.6804  -3.6115  -3.6055  -3.6021
    -3.5979  -3.5591  -3.5166  -3.4443  -3.3982  -3.3844  -3.3819  -3.3806
    -3.3640  -3.3627  -3.3495  -3.3397  -3.3312  -3.2879  -3.2333  -3.0849
    -2.7640  -2.7534  -2.7457  -2.7274  -2.6952  -2.6868  -2.6822  -2.6732
    -2.6411  -2.5242  -2.5159  -2.4999  -2.4418  -2.3118  -1.9753  -1.9597
    -1.9504  -1.9379  -1.9219  -1.9158  -1.8582  -1.8023  -1.7815  -1.7577
    -1.7557  -1.7423  -1.7370  -1.7218  -1.7176  -1.7033  -1.6914  -1.6773
    -1.6753  -1.6513  -1.6448  -1.6214  -1.5635  -1.5425  -1.5291  -1.5201
    -1.5081  -1.3882  -1.3683  -1.3585  -1.3468  -1.3405  -1.3293  -1.3216
    -1.2981  -1.2965  -1.2384  -1.2338  -1.1665  -1.1628  -1.1511  -1.0959
    -1.0938  -1.0587  -1.0548  -1.0456  -0.9809  -0.9349  -0.9271  -0.9045
    -0.8893  -0.8841  -0.6113  -0.5286  -0.4882  -0.4571  -0.4213  -0.4103
    -0.3993  -0.3930  -0.3850  -0.3520  -0.3433  -0.3330  -0.2929  -0.2623
    -0.2309  -0.1464  -0.1418  -0.1228  -0.1076  -0.0610  -0.0337  -0.0135
     0.0002   0.0688   0.0901   0.0956   0.1134   0.2556   0.2679   0.3336
     0.3388   0.3458   0.3703   0.4004   0.4172   0.5541   0.5653   0.5858
     0.5988   0.6140   0.6548   0.6807   0.7020   0.7583   0.7613   0.7649
     0.7730   0.7882   0.7961   0.8001   0.8087   0.8187   0.8634   0.8679
     0.8816   0.8861   0.8980   0.9245   0.9669   0.9908   1.0046   1.0067
     1.0340   1.0374   1.0645   1.0766   1.0900   1.0923   1.1158   1.1546
     1.1569   1.1747   1.1829   1.1892   1.2040   1.2349   1.2717   1.2776
     1.2802   1.3062   1.3114   1.4618   1.4820   1.5683   1.5777   1.6055
     1.6147   1.6196   1.6346   1.8442   1.9171   2.3860   2.4582   2.4664
     2.4836   2.5059   2.6593   3.7078   4.6742   4.7385   4.7615   4.7726
     4.8278   5.0152   5.5122   5.7294   5.8931   6.2766   6.3633   6.3982
     6.4076   6.4159

          k = 0.0000 0.2309 0.0000 ( 98748 PWs)   bands (ev):

   -14.5512 -11.2250  -8.4358  -7.1193  -6.2563  -5.7950  -5.5006  -5.3443
    -4.9601  -4.9520  -4.7756  -4.7094  -4.6400  -4.6118  -4.6016  -4.4298
    -4.3789  -4.2776  -4.2241  -4.2146  -4.2062  -3.9779  -3.8747  -3.8156
    -3.7928  -3.7761  -3.7671  -3.7208  -3.7012  -3.6819  -3.6323  -3.6223
    -3.5965  -3.5819  -3.5516  -3.5132  -3.4838  -3.4045  -3.3931  -3.3836
    -3.3697  -3.3411  -3.2377  -3.1734  -3.1635  -3.1516  -3.1109  -3.0575
    -2.8859  -2.8640  -2.8193  -2.7987  -2.7705  -2.7449  -2.6774  -2.5900
    -2.5643  -2.5084  -2.4919  -2.4499  -2.4317  -2.3638  -2.2013  -2.1244
    -2.1002  -2.0711  -2.0541  -2.0193  -1.9661  -1.9471  -1.9208  -1.9043
    -1.8957  -1.8756  -1.8283  -1.7874  -1.7702  -1.7530  -1.7325  -1.6548
    -1.6375  -1.6215  -1.5799  -1.5667  -1.5618  -1.4976  -1.4953  -1.4884
    -1.4418  -1.4233  -1.4122  -1.3750  -1.3606  -1.3469  -1.3393  -1.3123
    -1.3058  -1.2432  -1.2039  -1.2020  -1.1898  -1.1607  -1.1453  -1.1353
    -1.1032  -1.0885  -1.0752  -1.0191  -0.9839  -0.9538  -0.9359  -0.9057
    -0.8963  -0.8756  -0.8530  -0.8206  -0.8148  -0.7987  -0.7763  -0.7065
    -0.5789  -0.5326  -0.4710  -0.4482  -0.4027  -0.3699  -0.3583  -0.3383
    -0.3273  -0.2300  -0.1850  -0.1679  -0.0821  -0.0473  -0.0299   0.0160
     0.0301   0.0432   0.0510   0.0959   0.1069   0.1670   0.1911   0.2158
     0.2292   0.2361   0.3470   0.3979   0.4179   0.4468   0.4648   0.4742
     0.5032   0.5493   0.5803   0.5899   0.6222   0.6254   0.6754   0.7050
     0.7211   0.7452   0.8025   0.8166   0.8470   0.8553   0.9132   0.9367
     0.9658   0.9961   1.0174   1.0219   1.0604   1.1035   1.1300   1.1478
     1.1879   1.2005   1.2150   1.2469   1.2512   1.2551   1.2680   1.2747
     1.3282   1.3402   1.4509   1.4546   1.5003   1.5114   1.5173   1.5370
     1.5627   1.5801   1.5851   1.6137   1.6568   1.6977   1.7204   1.7467
     1.7963   1.9044   1.9104   1.9164   2.1317   2.1901   2.3680   2.7470
     3.0726   3.0869   3.2010   3.7265   4.1860   4.4608   4.8463   5.1285
     5.1977   5.2367   5.2807   5.4222   5.6438   5.8949   5.9913   6.1640
     6.1937   6.3587

          k = 0.0000 0.4619 0.0000 ( 98712 PWs)   bands (ev):

   -14.5512 -11.2248  -8.4355  -6.7045  -6.2565  -6.0192  -5.5112  -5.4022
    -4.9925  -4.9843  -4.8669  -4.6160  -4.4651  -4.3889  -4.3315  -4.2893
    -4.2633  -4.1756  -4.1057  -4.0605  -4.0474  -4.0288  -3.9417  -3.9225
    -3.8791  -3.8561  -3.8330  -3.8093  -3.7762  -3.7373  -3.7057  -3.6893
    -3.6518  -3.5907  -3.4415  -3.4261  -3.4217  -3.4118  -3.3941  -3.3825
    -3.2364  -3.1827  -3.1700  -3.1518  -3.1358  -3.1022  -3.0665  -2.8784
    -2.8611  -2.8412  -2.8165  -2.7895  -2.7677  -2.7199  -2.6924  -2.6744
    -2.6562  -2.6294  -2.5696  -2.4797  -2.4652  -2.4466  -2.4238  -2.3215
    -2.2905  -2.2605  -2.2437  -2.2009  -2.0963  -2.0484  -2.0407  -2.0205
    -2.0119  -1.9496  -1.9223  -1.8932  -1.8276  -1.7843  -1.7687  -1.7506
    -1.7010  -1.6607  -1.6543  -1.6478  -1.6246  -1.5785  -1.5690  -1.5611
    -1.5385  -1.5294  -1.5084  -1.5031  -1.4874  -1.4591  -1.4047  -1.3696
    -1.3644  -1.3559  -1.3420  -1.3346  -1.2400  -1.1845  -1.1797  -1.1575
    -1.1078  -1.1009  -1.0830  -1.0587  -1.0433  -0.9721  -0.9298  -0.8995
    -0.8894  -0.8522  -0.8066  -0.8012  -0.7439  -0.6901  -0.6577  -0.5878
    -0.5535  -0.5260  -0.5006  -0.4850  -0.4409  -0.4363  -0.4276  -0.3720
    -0.3566  -0.3473  -0.3324  -0.3213  -0.2925  -0.2684  -0.2635  -0.2394
    -0.1528  -0.1046  -0.0927  -0.0755  -0.0255   0.0325   0.0970   0.1109
     0.1871   0.2045   0.2782   0.3366   0.3540   0.3962   0.4242   0.4511
     0.4688   0.4965   0.5358   0.5481   0.5883   0.6110   0.6313   0.7058
     0.7106   0.7434   0.7569   0.7803   0.7859   0.8635   0.9445   0.9562
     0.9949   1.0275   1.0560   1.0675   1.1429   1.1592   1.1742   1.2094
     1.2557   1.2638   1.2923   1.3358   1.3526   1.3823   1.4290   1.4632
     1.4888   1.5062   1.5160   1.5264   1.5465   1.5490   1.7193   1.7240
     1.7373   1.7627   1.7725   1.8989   1.9171   1.9871   2.1015   2.3580
     2.4703   2.5510   2.8075   2.8169   3.0299   3.1877   3.2345   3.5353
     3.5978   4.0196   4.0250   4.0339   4.1558   4.2770   4.3259   4.3580
     4.6438   4.6630   4.9071   5.2344   5.3224   5.5159   5.5552   5.8369
     5.9948   6.0339

          k = 0.2000-0.1155 0.0000 ( 98748 PWs)   bands (ev):

   -14.5512 -11.2250  -8.4358  -7.1195  -6.2563  -5.7953  -5.5007  -5.3511
    -4.9573  -4.9451  -4.7761  -4.7101  -4.6529  -4.6074  -4.5926  -4.4279
    -4.3759  -4.2785  -4.2277  -4.2213  -4.2081  -3.9728  -3.8786  -3.8159
    -3.7932  -3.7795  -3.7661  -3.7193  -3.7001  -3.6797  -3.6383  -3.6214
    -3.5965  -3.5808  -3.5533  -3.5078  -3.4805  -3.4146  -3.3961  -3.3825
    -3.3686  -3.3369  -3.2355  -3.1751  -3.1648  -3.1523  -3.1057  -3.0529
    -2.8800  -2.8629  -2.8192  -2.8040  -2.7733  -2.7451  -2.6747  -2.5855
    -2.5582  -2.5060  -2.4956  -2.4529  -2.4310  -2.3637  -2.1905  -2.1234
    -2.0995  -2.0549  -2.0443  -2.0112  -1.9657  -1.9526  -1.9221  -1.9108
    -1.9045  -1.8834  -1.8300  -1.7822  -1.7594  -1.7491  -1.7257  -1.6762
    -1.6515  -1.6483  -1.5725  -1.5662  -1.5569  -1.4930  -1.4839  -1.4733
    -1.4487  -1.4160  -1.4005  -1.3850  -1.3641  -1.3537  -1.3385  -1.3151
    -1.3048  -1.2434  -1.2179  -1.2021  -1.1795  -1.1623  -1.1430  -1.1379
    -1.1124  -1.0882  -1.0759  -1.0162  -0.9850  -0.9554  -0.9331  -0.9206
    -0.9004  -0.8741  -0.8530  -0.8202  -0.8116  -0.7995  -0.7782  -0.7045
    -0.5673  -0.5275  -0.4664  -0.4473  -0.4035  -0.3745  -0.3645  -0.3404
    -0.3328  -0.2292  -0.1907  -0.1741  -0.0846  -0.0558  -0.0148   0.0068
     0.0201   0.0425   0.0496   0.0903   0.1044   0.1685   0.1893   0.2141
     0.2283   0.2441   0.3471   0.3915   0.4175   0.4484   0.4624   0.4767
     0.5068   0.5472   0.5825   0.5939   0.6236   0.6299   0.6735   0.7094
     0.7206   0.7447   0.8023   0.8192   0.8467   0.8590   0.9112   0.9350
     0.9646   0.9939   1.0122   1.0217   1.0565   1.0992   1.1296   1.1493
     1.1904   1.1996   1.2125   1.2476   1.2519   1.2587   1.2664   1.2780
     1.3208   1.3308   1.4448   1.4566   1.5058   1.5075   1.5190   1.5458
     1.5739   1.5876   1.5913   1.6229   1.6583   1.6977   1.7202   1.7458
     1.7989   1.9042   1.9082   1.9202   2.1215   2.1960   2.3902   2.7441
     3.0650   3.0889   3.1956   3.7172   4.1838   4.4761   4.8467   5.1336
     5.2011   5.2361   5.2864   5.4045   5.6472   5.8877   5.9886   6.1511
     6.1840   6.3554

          k = 0.2000 0.1155 0.0000 ( 98748 PWs)   bands (ev):

   -14.5512 -11.2250  -8.4360  -7.1195  -6.2559  -5.7962  -5.5010  -5.3495
    -4.9590  -4.9452  -4.7756  -4.7102  -4.6501  -4.6083  -4.5942  -4.4374
    -4.3786  -4.2576  -4.2236  -4.2216  -4.2123  -3.9651  -3.8976  -3.8162
    -3.7969  -3.7790  -3.7635  -3.7138  -3.7053  -3.6552  -3.6500  -3.6229
    -3.6066  -3.5782  -3.5606  -3.5061  -3.4682  -3.4162  -3.4100  -3.3844
    -3.3655  -3.3281  -3.2287  -3.1759  -3.1672  -3.1471  -3.1032  -3.0640
    -2.8735  -2.8675  -2.8474  -2.8003  -2.7923  -2.7265  -2.6729  -2.5780
    -2.5232  -2.5131  -2.4954  -2.4695  -2.4342  -2.3631  -2.2054  -2.1103
    -2.0991  -2.0638  -2.0428  -2.0138  -1.9579  -1.9520  -1.9253  -1.9071
    -1.9028  -1.8893  -1.8343  -1.7802  -1.7569  -1.7523  -1.7226  -1.6654
    -1.6461  -1.6436  -1.5772  -1.5659  -1.5488  -1.4900  -1.4857  -1.4685
    -1.4455  -1.4108  -1.4057  -1.3970  -1.3747  -1.3562  -1.3360  -1.3163
    -1.2968  -1.2384  -1.2169  -1.2007  -1.1863  -1.1582  -1.1437  -1.1247
    -1.1039  -1.0910  -1.0705  -0.9887  -0.9811  -0.9665  -0.9557  -0.9197
    -0.8827  -0.8802  -0.8708  -0.8195  -0.8121  -0.7984  -0.7905  -0.7638
    -0.5395  -0.5095  -0.4604  -0.4550  -0.4030  -0.3741  -0.3523  -0.3375
    -0.3297  -0.2280  -0.2144  -0.1832  -0.0774  -0.0539  -0.0222   0.0117
     0.0249   0.0412   0.0488   0.0864   0.0901   0.1737   0.1845   0.2128
     0.2335   0.2454   0.3689   0.3821   0.4139   0.4481   0.4680   0.4906
     0.5008   0.5379   0.5810   0.5833   0.6204   0.6257   0.6698   0.7069
     0.7182   0.7447   0.8031   0.8212   0.8537   0.8744   0.9241   0.9275
     0.9678   0.9811   1.0195   1.0254   1.0559   1.1111   1.1365   1.1485
     1.1952   1.2015   1.2085   1.2450   1.2512   1.2586   1.2704   1.2795
     1.3279   1.3329   1.4461   1.4584   1.4975   1.5054   1.5115   1.5439
     1.5648   1.5817   1.5913   1.6151   1.6631   1.6997   1.7280   1.7434
     1.8457   1.8912   1.9072   1.9354   2.0289   2.1932   2.4517   2.7121
     3.0575   3.1122   3.1908   3.6958   4.2230   4.4755   4.8396   5.1313
     5.1439   5.2357   5.2627   5.5102   5.6237   5.8594   5.9694   6.1387
     6.1992   6.3446

          k = 0.2000 0.3464 0.0000 ( 98736 PWs)   bands (ev):

   -14.5512 -11.2248  -8.4359  -6.8382  -6.2428  -5.6068  -5.5891  -5.5442
    -5.4813  -4.5645  -4.5279  -4.5240  -4.5157  -4.4829  -4.4702  -4.4441
    -4.4383  -4.3403  -4.3287  -4.0712  -3.9584  -3.9483  -3.9359  -3.8897
    -3.8689  -3.7736  -3.7422  -3.7181  -3.7081  -3.6962  -3.6844  -3.6064
    -3.5820  -3.5527  -3.5402  -3.5358  -3.5211  -3.4485  -3.4319  -3.4037
    -3.3770  -3.3262  -3.2720  -3.1772  -3.0314  -2.9562  -2.9477  -2.9181
    -2.8923  -2.8869  -2.8671  -2.8201  -2.7880  -2.7280  -2.6591  -2.6548
    -2.5714  -2.5459  -2.5120  -2.4724  -2.4535  -2.4364  -2.3767  -2.3384
    -2.2208  -2.1845  -2.1534  -2.1164  -2.0920  -2.0683  -2.0548  -2.0265
    -2.0099  -1.9834  -1.8572  -1.8352  -1.8084  -1.7900  -1.7763  -1.7510
    -1.7219  -1.6923  -1.6682  -1.6470  -1.5612  -1.5470  -1.5366  -1.5063
    -1.4916  -1.4791  -1.4700  -1.4221  -1.4081  -1.4018  -1.3592  -1.3482
    -1.3096  -1.2835  -1.2526  -1.2419  -1.1953  -1.1798  -1.1631  -1.1394
    -1.1336  -1.1041  -1.0857  -1.0818  -1.0572  -1.0487  -1.0453  -0.9929
    -0.9731  -0.9552  -0.8861  -0.8704  -0.8398  -0.7922  -0.7576  -0.7418
    -0.6713  -0.5574  -0.5419  -0.4937  -0.4417  -0.4131  -0.3959  -0.3604
    -0.3287  -0.3227  -0.2930  -0.2748  -0.2625  -0.2184  -0.1819  -0.1646
    -0.0556   0.0016   0.0118   0.0319   0.0618   0.0951   0.1214   0.1623
     0.2140   0.2479   0.2698   0.3216   0.3474   0.3869   0.4098   0.4528
     0.4813   0.5072   0.5393   0.5556   0.5766   0.5846   0.5946   0.6132
     0.6216   0.6496   0.6969   0.7780   0.8157   0.8554   0.9447   0.9632
     1.0463   1.1207   1.1342   1.1474   1.1786   1.2454   1.2664   1.2729
     1.3049   1.3119   1.3353   1.3498   1.3612   1.3792   1.3981   1.4220
     1.4315   1.4960   1.5301   1.5431   1.5638   1.5810   1.6293   1.6749
     1.7568   1.7691   1.8089   1.8233   1.8786   1.9008   1.9436   2.0396
     2.1418   2.2589   2.5633   2.5891   2.8198   3.0841   3.1175   3.1593
     3.3627   3.7582   3.7842   4.0134   4.0422   4.0722   4.5339   4.7542
     5.1712   5.2220   5.2746   5.3475   5.4884   5.6079   5.8335   5.8817
     5.9854   6.0463

          k = 0.2000-0.5774 0.0000 ( 98762 PWs)   bands (ev):

   -14.5512 -11.2248  -8.4356  -6.3844  -6.2971  -6.1414  -5.6736  -5.5056
    -5.0663  -5.0385  -4.5569  -4.5180  -4.3854  -4.3601  -4.2770  -4.2405
    -4.1424  -4.1243  -4.0998  -4.0387  -4.0322  -3.9933  -3.9746  -3.9653
    -3.9620  -3.9056  -3.8086  -3.7964  -3.7846  -3.7634  -3.7108  -3.6473
    -3.6230  -3.6019  -3.5373  -3.5145  -3.4360  -3.4009  -3.3866  -3.3706
    -3.3377  -3.3011  -3.2717  -3.1596  -3.1544  -3.0999  -2.9640  -2.9489
    -2.8514  -2.8221  -2.7757  -2.7663  -2.7251  -2.6391  -2.5871  -2.5780
    -2.5475  -2.5230  -2.4905  -2.4600  -2.4507  -2.3779  -2.3567  -2.3414
    -2.3209  -2.2990  -2.2854  -2.2729  -2.2354  -2.2121  -2.1177  -2.0927
    -2.0494  -2.0265  -1.9679  -1.9055  -1.8883  -1.8712  -1.8326  -1.8005
    -1.7967  -1.7646  -1.7426  -1.7104  -1.6643  -1.6595  -1.6281  -1.5765
    -1.5656  -1.5241  -1.4849  -1.4721  -1.4619  -1.4054  -1.3414  -1.3101
    -1.2902  -1.2680  -1.2519  -1.2256  -1.2032  -1.1962  -1.1682  -1.1590
    -1.1340  -1.1115  -1.1035  -1.0810  -1.0711  -1.0435  -1.0324  -1.0232
    -1.0051  -0.9825  -0.9689  -0.9364  -0.8821  -0.7649  -0.7387  -0.6496
    -0.6334  -0.6014  -0.5281  -0.5224  -0.4890  -0.4648  -0.4476  -0.4095
    -0.3916  -0.3648  -0.3269  -0.3047  -0.2647  -0.2429  -0.2298  -0.1542
    -0.1356  -0.0946  -0.0429   0.0200   0.0772   0.1001   0.1328   0.1631
     0.1907   0.2215   0.2598   0.2824   0.2921   0.3143   0.3354   0.3585
     0.4135   0.4286   0.4820   0.5111   0.5246   0.5365   0.5607   0.5751
     0.6521   0.7010   0.7703   0.8167   0.8816   0.9321   0.9733   0.9871
     1.0184   1.1015   1.1085   1.1407   1.2016   1.2517   1.2835   1.3088
     1.3305   1.3362   1.3529   1.3783   1.4041   1.4777   1.4853   1.4936
     1.5249   1.5432   1.5473   1.5607   1.6204   1.7068   1.7310   1.7544
     1.7660   1.7757   1.8274   1.8428   1.9320   1.9752   2.1036   2.5559
     2.9153   2.9208   3.0706   3.1561   3.2791   3.2899   3.3616   3.4969
     3.9190   3.9286   4.0187   4.3737   4.3946   4.5019   4.5208   4.5575
     4.6863   4.8078   4.8286   4.9829   5.2627   5.3007   5.4346   5.5727
     5.7163   5.8481

          k = 0.2000-0.3464 0.0000 ( 98736 PWs)   bands (ev):

   -14.5512 -11.2249  -8.4356  -6.8384  -6.2430  -5.6127  -5.5822  -5.5400
    -5.4859  -4.5564  -4.5333  -4.5250  -4.5177  -4.4846  -4.4702  -4.4449
    -4.4342  -4.3399  -4.3299  -4.0847  -3.9589  -3.9516  -3.9372  -3.8764
    -3.8684  -3.7764  -3.7426  -3.7133  -3.6982  -3.6910  -3.6821  -3.6255
    -3.5849  -3.5549  -3.5363  -3.5291  -3.5165  -3.4540  -3.4296  -3.4074
    -3.3761  -3.3338  -3.2802  -3.1426  -3.0375  -2.9659  -2.9492  -2.9387
    -2.8953  -2.8801  -2.8347  -2.8239  -2.7500  -2.7226  -2.6655  -2.6517
    -2.6374  -2.5458  -2.5102  -2.4732  -2.4547  -2.4244  -2.3683  -2.3302
    -2.2266  -2.1991  -2.1582  -2.1021  -2.0939  -2.0742  -2.0489  -2.0145
    -2.0086  -1.9811  -1.8596  -1.8391  -1.8117  -1.7933  -1.7837  -1.7564
    -1.7218  -1.6999  -1.6864  -1.6522  -1.5570  -1.5475  -1.5286  -1.5222
    -1.4946  -1.4775  -1.4716  -1.4219  -1.4145  -1.3878  -1.3789  -1.3435
    -1.2973  -1.2726  -1.2460  -1.2333  -1.1830  -1.1720  -1.1659  -1.1419
    -1.1321  -1.1162  -1.0810  -1.0740  -1.0590  -1.0482  -1.0313  -1.0000
    -0.9774  -0.9363  -0.8808  -0.8581  -0.8373  -0.8129  -0.7657  -0.7487
    -0.6907  -0.5629  -0.5370  -0.4994  -0.4316  -0.4039  -0.3936  -0.3576
    -0.3307  -0.3207  -0.2937  -0.2759  -0.2673  -0.2206  -0.1810  -0.1518
    -0.0779   0.0088   0.0130   0.0325   0.0580   0.0996   0.1137   0.1594
     0.2140   0.2484   0.2757   0.3205   0.3475   0.3759   0.4231   0.4590
     0.4799   0.5104   0.5276   0.5517   0.5776   0.5891   0.6041   0.6161
     0.6222   0.6542   0.7039   0.7589   0.8124   0.8657   0.9354   0.9574
     1.0457   1.1253   1.1413   1.1498   1.1679   1.2371   1.2689   1.2745
     1.3010   1.3092   1.3306   1.3523   1.3591   1.3762   1.3962   1.4235
     1.4375   1.4955   1.5264   1.5471   1.5614   1.5795   1.6263   1.6963
     1.7722   1.7747   1.8147   1.8684   1.8754   1.9034   1.9218   2.0185
     2.0757   2.2694   2.5601   2.6099   2.8280   3.1077   3.1193   3.1285
     3.3810   3.7516   3.7903   4.0148   4.0521   4.0684   4.5234   4.7470
     5.1597   5.2268   5.2947   5.4249   5.4598   5.5376   5.8023   5.9197
     6.0256   6.0370

          k = 0.4000-0.2309 0.0000 ( 98712 PWs)   bands (ev):

   -14.5512 -11.2248  -8.4357  -6.7054  -6.2570  -6.0214  -5.5122  -5.4021
    -4.9898  -4.9800  -4.8675  -4.6278  -4.4638  -4.3915  -4.3323  -4.2851
    -4.2551  -4.1783  -4.1102  -4.0639  -4.0492  -4.0330  -3.9492  -3.9201
    -3.8780  -3.8584  -3.8332  -3.8126  -3.7828  -3.7381  -3.7054  -3.6851
    -3.6497  -3.5919  -3.4385  -3.4235  -3.4154  -3.4072  -3.3871  -3.3799
    -3.2378  -3.1789  -3.1668  -3.1503  -3.1330  -3.0970  -3.0616  -2.8835
    -2.8613  -2.8407  -2.8162  -2.7874  -2.7645  -2.7177  -2.6898  -2.6780
    -2.6542  -2.6262  -2.5737  -2.4736  -2.4587  -2.4445  -2.4161  -2.3126
    -2.2686  -2.2478  -2.2339  -2.1962  -2.0961  -2.0478  -2.0464  -2.0267
    -2.0182  -1.9600  -1.9172  -1.8932  -1.8371  -1.8052  -1.7836  -1.7700
    -1.6953  -1.6607  -1.6537  -1.6460  -1.6171  -1.5748  -1.5602  -1.5498
    -1.5334  -1.5250  -1.5197  -1.5062  -1.4856  -1.4562  -1.4106  -1.3698
    -1.3590  -1.3449  -1.3373  -1.3288  -1.2530  -1.1988  -1.1848  -1.1633
    -1.1208  -1.1059  -1.0845  -1.0630  -1.0597  -0.9820  -0.9316  -0.9020
    -0.8853  -0.8552  -0.8061  -0.8019  -0.7452  -0.6882  -0.6577  -0.5860
    -0.5548  -0.5247  -0.5017  -0.4861  -0.4387  -0.4258  -0.4201  -0.3724
    -0.3563  -0.3504  -0.3308  -0.3231  -0.2965  -0.2799  -0.2650  -0.2371
    -0.1507  -0.1157  -0.1007  -0.0830  -0.0280   0.0276   0.0891   0.1040
     0.1865   0.2037   0.2887   0.3375   0.3529   0.4004   0.4202   0.4398
     0.4757   0.5022   0.5372   0.5526   0.5941   0.6169   0.6307   0.7091
     0.7162   0.7432   0.7582   0.7755   0.7867   0.8541   0.9382   0.9544
     0.9932   1.0242   1.0538   1.0630   1.1394   1.1580   1.1756   1.2156
     1.2505   1.2599   1.2948   1.3254   1.3485   1.3709   1.4274   1.4687
     1.4912   1.5024   1.5164   1.5353   1.5594   1.5626   1.7223   1.7306
     1.7462   1.7754   1.7851   1.8954   1.9160   1.9868   2.1085   2.3754
     2.4661   2.5398   2.8048   2.8165   3.0262   3.1886   3.2300   3.5533
     3.5965   4.0183   4.0279   4.0477   4.1446   4.2750   4.3272   4.3739
     4.6462   4.6614   4.8977   5.2436   5.3239   5.5090   5.5638   5.8325
     5.9858   6.0133

          k = 0.4000-0.0000 0.0000 ( 98736 PWs)   bands (ev):

   -14.5512 -11.2248  -8.4359  -6.8387  -6.2429  -5.6076  -5.5908  -5.5453
    -5.4810  -4.5654  -4.5326  -4.5263  -4.5173  -4.4843  -4.4618  -4.4428
    -4.4303  -4.3398  -4.3269  -4.0768  -3.9680  -3.9526  -3.9340  -3.9008
    -3.8661  -3.7729  -3.7416  -3.7177  -3.7084  -3.6917  -3.6847  -3.6059
    -3.5733  -3.5509  -3.5371  -3.5319  -3.5192  -3.4460  -3.4321  -3.4118
    -3.3750  -3.3291  -3.2761  -3.1864  -3.0304  -2.9525  -2.9424  -2.9121
    -2.8885  -2.8835  -2.8686  -2.8198  -2.7901  -2.7223  -2.6582  -2.6505
    -2.5682  -2.5432  -2.5121  -2.4700  -2.4543  -2.4358  -2.3775  -2.3405
    -2.2136  -2.1751  -2.1463  -2.1047  -2.0776  -2.0664  -2.0469  -2.0255
    -2.0137  -1.9828  -1.8580  -1.8397  -1.8165  -1.8006  -1.7738  -1.7611
    -1.7227  -1.6904  -1.6720  -1.6558  -1.5507  -1.5429  -1.5367  -1.5052
    -1.4876  -1.4782  -1.4695  -1.4257  -1.4190  -1.4061  -1.3713  -1.3550
    -1.3223  -1.2788  -1.2557  -1.2400  -1.1965  -1.1851  -1.1686  -1.1416
    -1.1333  -1.0991  -1.0893  -1.0760  -1.0569  -1.0539  -1.0405  -0.9924
    -0.9753  -0.9550  -0.8859  -0.8694  -0.8404  -0.7946  -0.7626  -0.7477
    -0.6733  -0.5565  -0.5393  -0.4949  -0.4467  -0.4174  -0.4024  -0.3619
    -0.3281  -0.3217  -0.2929  -0.2731  -0.2621  -0.2199  -0.1847  -0.1404
    -0.0687  -0.0000   0.0068   0.0299   0.0593   0.0931   0.1193   0.1589
     0.2121   0.2474   0.2705   0.3202   0.3466   0.3812   0.4085   0.4569
     0.4804   0.5064   0.5402   0.5596   0.5852   0.5881   0.5976   0.6180
     0.6237   0.6563   0.6919   0.7790   0.8151   0.8552   0.9411   0.9599
     1.0461   1.1195   1.1343   1.1480   1.1817   1.2462   1.2676   1.2741
     1.3062   1.3119   1.3329   1.3461   1.3563   1.3716   1.3993   1.4174
     1.4358   1.4937   1.5274   1.5381   1.5619   1.5816   1.6249   1.6772
     1.7583   1.7873   1.8256   1.8339   1.8833   1.9009   1.9418   2.0363
     2.1479   2.2493   2.5590   2.5842   2.8198   3.0908   3.1279   3.1701
     3.3655   3.7542   3.7774   4.0127   4.0434   4.0717   4.5412   4.7553
     5.1716   5.2282   5.2810   5.3454   5.4863   5.5944   5.8413   5.8717
     5.9813   6.0509

          k = 0.4000 0.2309 0.0000 ( 98712 PWs)   bands (ev):

   -14.5512 -11.2248  -8.4361  -6.7050  -6.2566  -6.0211  -5.5178  -5.3990
    -4.9905  -4.9795  -4.8710  -4.6252  -4.4649  -4.3882  -4.3285  -4.2732
    -4.2594  -4.1686  -4.1128  -4.0674  -4.0431  -4.0326  -3.9440  -3.9225
    -3.8826  -3.8601  -3.8328  -3.8243  -3.7792  -3.7525  -3.7031  -3.6872
    -3.6581  -3.5766  -3.4447  -3.4273  -3.4223  -3.3977  -3.3920  -3.3774
    -3.2538  -3.1748  -3.1611  -3.1497  -3.1412  -3.0894  -3.0373  -2.9422
    -2.8485  -2.8329  -2.8179  -2.8057  -2.7375  -2.7229  -2.6947  -2.6721
    -2.6690  -2.5863  -2.5793  -2.4762  -2.4587  -2.4253  -2.4163  -2.3210
    -2.2704  -2.2558  -2.2304  -2.2262  -2.0998  -2.0633  -2.0433  -2.0186
    -2.0036  -1.9505  -1.9270  -1.8879  -1.8238  -1.7958  -1.7768  -1.7580
    -1.6883  -1.6597  -1.6510  -1.6423  -1.6158  -1.5775  -1.5647  -1.5513
    -1.5389  -1.5284  -1.5148  -1.5105  -1.4895  -1.4426  -1.4164  -1.3739
    -1.3659  -1.3468  -1.3365  -1.3272  -1.2461  -1.2120  -1.1815  -1.1755
    -1.1171  -1.0974  -1.0747  -1.0707  -1.0609  -0.9824  -0.9311  -0.8883
    -0.8644  -0.8589  -0.8106  -0.7965  -0.7140  -0.6944  -0.6635  -0.6023
    -0.5647  -0.5362  -0.4882  -0.4812  -0.4615  -0.4314  -0.4210  -0.3911
    -0.3606  -0.3531  -0.3428  -0.3116  -0.2997  -0.2749  -0.2535  -0.2357
    -0.1427  -0.1181  -0.1013  -0.0852  -0.0279   0.0399   0.1027   0.1060
     0.1899   0.1928   0.2810   0.3333   0.3379   0.4031   0.4104   0.4464
     0.4694   0.4975   0.5230   0.5468   0.5936   0.6136   0.6252   0.7101
     0.7149   0.7468   0.7505   0.7838   0.7938   0.8720   0.9077   0.9589
     0.9923   1.0272   1.0490   1.0661   1.1430   1.1608   1.1758   1.2438
     1.2554   1.2600   1.3073   1.3333   1.3423   1.3747   1.4415   1.4585
     1.4895   1.5111   1.5207   1.5338   1.5543   1.5583   1.7220   1.7271
     1.7414   1.7669   1.7836   1.8973   1.9381   1.9878   2.1075   2.4263
     2.4498   2.4999   2.7925   2.8284   3.0140   3.2065   3.2112   3.5232
     3.6019   4.0107   4.0325   4.0512   4.1459   4.2646   4.3386   4.3895
     4.6460   4.6546   4.8828   5.2942   5.3856   5.4023   5.4658   5.8957
     5.9070   6.0020

          k = 0.4000-0.6928 0.0000 ( 98762 PWs)   bands (ev):

   -14.5512 -11.2248  -8.4360  -6.3811  -6.3041  -6.1397  -5.6709  -5.5085
    -5.0624  -5.0448  -4.5525  -4.5273  -4.3845  -4.3548  -4.2623  -4.2397
    -4.1483  -4.1345  -4.0925  -4.0441  -4.0280  -3.9848  -3.9704  -3.9644
    -3.9531  -3.9317  -3.8195  -3.8034  -3.7823  -3.7646  -3.7315  -3.6504
    -3.6345  -3.5830  -3.5273  -3.4757  -3.4269  -3.4161  -3.3914  -3.3769
    -3.3372  -3.3184  -3.2589  -3.1623  -3.1272  -3.0966  -2.9642  -2.9491
    -2.9217  -2.8067  -2.7767  -2.7439  -2.7222  -2.6361  -2.5905  -2.5730
    -2.5260  -2.5208  -2.4750  -2.4547  -2.4378  -2.3601  -2.3583  -2.3557
    -2.3193  -2.2936  -2.2905  -2.2778  -2.2586  -2.2080  -2.1192  -2.0843
    -2.0581  -2.0163  -1.9691  -1.8933  -1.8876  -1.8722  -1.8368  -1.8164
    -1.7952  -1.7566  -1.7458  -1.7079  -1.6639  -1.6516  -1.6279  -1.5774
    -1.5582  -1.5228  -1.4856  -1.4676  -1.4605  -1.3887  -1.3535  -1.3161
    -1.3027  -1.2656  -1.2484  -1.2414  -1.2069  -1.1982  -1.1766  -1.1634
    -1.1450  -1.1174  -1.1118  -1.0878  -1.0608  -1.0397  -1.0339  -1.0215
    -1.0010  -0.9921  -0.9839  -0.9413  -0.8951  -0.7763  -0.6856  -0.6524
    -0.6405  -0.5773  -0.5358  -0.5154  -0.4982  -0.4640  -0.4383  -0.4112
    -0.3918  -0.3627  -0.3247  -0.3126  -0.2719  -0.2418  -0.2201  -0.1510
    -0.1370  -0.1013  -0.0434   0.0214   0.0641   0.0799   0.1390   0.1622
     0.1869   0.2166   0.2555   0.2756   0.2836   0.3167   0.3194   0.3621
     0.4108   0.4350   0.4870   0.5111   0.5234   0.5330   0.5495   0.5730
     0.6632   0.7007   0.7765   0.8098   0.8839   0.9292   0.9780   0.9949
     1.0567   1.0875   1.1108   1.1418   1.2123   1.2544   1.2758   1.3059
     1.3286   1.3358   1.3451   1.3827   1.4072   1.4808   1.4888   1.4925
     1.5218   1.5411   1.5479   1.5639   1.6267   1.6996   1.7254   1.7608
     1.7672   1.7800   1.7995   1.8347   1.9261   1.9707   2.1769   2.5526
     2.9162   2.9219   3.0428   3.1693   3.2838   3.2929   3.3314   3.5223
     3.8995   3.9361   4.0284   4.3610   4.3821   4.5032   4.5154   4.5491
     4.7433   4.7582   4.8403   5.0318   5.2132   5.3354   5.4028   5.6467
     5.7198   5.7687

          k = 0.4000-0.4619 0.0000 ( 98762 PWs)   bands (ev):

   -14.5512 -11.2248  -8.4357  -6.3849  -6.2990  -6.1416  -5.6713  -5.5060
    -5.0664  -5.0393  -4.5569  -4.5286  -4.3833  -4.3574  -4.2720  -4.2359
    -4.1477  -4.1274  -4.0996  -4.0413  -4.0347  -3.9900  -3.9766  -3.9630
    -3.9599  -3.9136  -3.8154  -3.7958  -3.7890  -3.7599  -3.7120  -3.6466
    -3.6244  -3.5984  -3.5326  -3.5085  -3.4364  -3.4004  -3.3854  -3.3704
    -3.3294  -3.3027  -3.2683  -3.1554  -3.1522  -3.0937  -2.9632  -2.9534
    -2.8567  -2.8209  -2.7764  -2.7646  -2.7230  -2.6495  -2.5897  -2.5830
    -2.5444  -2.5197  -2.4709  -2.4569  -2.4366  -2.3728  -2.3524  -2.3395
    -2.3157  -2.2988  -2.2806  -2.2738  -2.2398  -2.2105  -2.1158  -2.0928
    -2.0517  -2.0210  -1.9709  -1.9004  -1.8857  -1.8793  -1.8374  -1.8171
    -1.8074  -1.7712  -1.7439  -1.7079  -1.6624  -1.6568  -1.6284  -1.5726
    -1.5621  -1.5254  -1.4791  -1.4684  -1.4536  -1.4072  -1.3512  -1.3188
    -1.2897  -1.2635  -1.2427  -1.2244  -1.2067  -1.1995  -1.1800  -1.1648
    -1.1507  -1.1225  -1.1105  -1.0849  -1.0591  -1.0362  -1.0312  -1.0238
    -0.9951  -0.9849  -0.9742  -0.9441  -0.8857  -0.7745  -0.7343  -0.6549
    -0.6340  -0.5992  -0.5292  -0.5238  -0.4940  -0.4623  -0.4352  -0.4060
    -0.3900  -0.3632  -0.3261  -0.3082  -0.2681  -0.2471  -0.2220  -0.1522
    -0.1376  -0.1070  -0.0511   0.0183   0.0768   0.0991   0.1335   0.1671
     0.1950   0.2201   0.2612   0.2844   0.2887   0.3178   0.3344   0.3568
     0.4166   0.4322   0.4840   0.5129   0.5260   0.5368   0.5598   0.5690
     0.6473   0.7047   0.7598   0.8116   0.8811   0.9329   0.9777   0.9910
     1.0227   1.1009   1.1101   1.1415   1.2022   1.2504   1.2810   1.3006
     1.3289   1.3339   1.3467   1.3783   1.4103   1.4837   1.4872   1.4929
     1.5154   1.5398   1.5451   1.5603   1.6199   1.7053   1.7359   1.7614
     1.7753   1.7881   1.8318   1.8474   1.9325   1.9736   2.1100   2.5545
     2.9155   2.9205   3.0598   3.1624   3.2764   3.2886   3.3536   3.5060
     3.9199   3.9277   4.0237   4.3772   4.3942   4.5021   4.5176   4.5552
     4.7406   4.7979   4.8254   4.9801   5.2557   5.3067   5.4308   5.5695
     5.7247   5.8406

     the Fermi energy is     1.5439 ev

!    total energy              =  -27816.07364302 Ry

     total all-electron energy =  -1326876.131338 Ry
     estimated scf accuracy    <       0.00000098 Ry
     smearing contrib. (-TS)   =       0.00148403 Ry
     internal energy E=F+TS    =  -27816.07512705 Ry

     The total energy is F=E-TS. E is the sum of the following terms:
     one-electron contribution =  -32972.01741780 Ry
     hartree contribution      =   16785.00338786 Ry
     xc contribution           =    -907.30485017 Ry
     ewald contribution        =   14771.86501882 Ry
     one-center paw contrib.   =  -25493.62126576 Ry

     convergence has been achieved in  20 iterations

     negative rho (up, down):  1.353E-02 0.000E+00

     Forces acting on atoms (cartesian axes, Ry/au):

     atom    1 type  1   force =     0.00118139    0.00069630   -0.00909621
     atom    2 type  1   force =    -0.00082107   -0.00033672   -0.00370595
     atom    3 type  1   force =     0.00086772   -0.00038256   -0.00290643
     atom    4 type  1   force =    -0.00036271   -0.00118850   -0.00379535
     atom    5 type  1   force =     0.00020020   -0.00024178   -0.00345824
     atom    6 type  1   force =     0.00052534   -0.00101302   -0.00336567
     atom    7 type  1   force =     0.00049406    0.00037695   -0.00283163
     atom    8 type  1   force =    -0.00025668    0.00028834   -0.00319645
     atom    9 type  1   force =     0.00007086   -0.00030822   -0.00331413
     atom   10 type  1   force =    -0.00148815   -0.00015612   -0.00342475
     atom   11 type  1   force =     0.00081459    0.00309266    0.00834290
     atom   12 type  1   force =    -0.00148680    0.00022461    0.00143151
     atom   13 type  1   force =     0.00234448    0.00083228    0.00888065
     atom   14 type  1   force =    -0.00327586   -0.00064684    0.01140771
     atom   15 type  1   force =    -0.00064865    0.00106900    0.00181147
     atom   16 type  1   force =    -0.00120044   -0.00027319    0.00152134
     atom   17 type  1   force =    -0.00010448    0.00026670    0.00178007
     atom   18 type  1   force =    -0.00018931    0.00082043    0.00208260
     atom   19 type  1   force =    -0.00029448    0.00042055   -0.00008328
     atom   20 type  1   force =     0.00003347    0.00020109    0.00064136
     atom   21 type  1   force =     0.00017642   -0.00000466    0.00040821
     atom   22 type  1   force =    -0.00008867   -0.00047467   -0.00020016
     atom   23 type  1   force =     0.00016759   -0.00048098   -0.00006840
     atom   24 type  1   force =     0.00019420   -0.00019963   -0.00067997
     atom   25 type  1   force =     0.00034981   -0.00002415   -0.00059056
     atom   26 type  1   force =     0.00002825   -0.00021946    0.00014342
     atom   27 type  1   force =    -0.00033471   -0.00051940   -0.00010347
     atom   28 type  1   force =     0.00045762   -0.00035247    0.00005709
     atom   29 type  1   force =     0.00016890   -0.00032950   -0.00024181
     atom   30 type  1   force =    -0.00008952   -0.00061305   -0.00028354
     atom   31 type  1   force =    -0.00007312   -0.00042054   -0.00014025
     atom   32 type  1   force =    -0.00019914   -0.00031819    0.00058129
     atom   33 type  1   force =     0.00056374   -0.00044090    0.00021131
     atom   34 type  1   force =     0.00014417   -0.00023952   -0.00013147
     atom   35 type  1   force =     0.00031269    0.00001104    0.00048961
     atom   36 type  1   force =    -0.00004918   -0.00041972    0.00025166
     atom   37 type  2   force =    -0.00211547   -0.00098867    0.00040772
     atom   38 type  2   force =     0.00037364    0.00051350    0.00049268
     atom   39 type  2   force =     0.00075733    0.00023473    0.00326516
     atom   40 type  3   force =     0.00012354    0.00020026   -0.00004128
     atom   41 type  3   force =    -0.00063885   -0.00057334    0.00063461
     atom   42 type  3   force =     0.00022794    0.00012066   -0.00074951
     atom   43 type  3   force =     0.00313935    0.00179669   -0.00243387

     Total force =     0.006650     Total SCF correction =     0.002034
     SCF correction compared to forces is large: reduce conv_thr to get better values

     negative rho (up, down):  1.353E-02 0.000E+00

     negative rho (up, down):  1.353E-02 0.000E+00

     negative rho (up, down):  1.353E-02 0.000E+00

     negative rho (up, down):  1.353E-02 0.000E+00

     negative rho (up, down):  1.353E-02 0.000E+00

     negative rho (up, down):  1.353E-02 0.000E+00

     negative rho (up, down):  1.353E-02 0.000E+00

     negative rho (up, down):  1.353E-02 0.000E+00

     negative rho (up, down):  1.353E-02 0.000E+00

     negative rho (up, down):  1.353E-02 0.000E+00

     negative rho (up, down):  1.353E-02 0.000E+00

     negative rho (up, down):  1.353E-02 0.000E+00

     negative rho (up, down):  1.353E-02 0.000E+00

     negative rho (up, down):  1.353E-02 0.000E+00

     negative rho (up, down):  1.353E-02 0.000E+00

     negative rho (up, down):  1.353E-02 0.000E+00

     negative rho (up, down):  1.353E-02 0.000E+00

     negative rho (up, down):  1.353E-02 0.000E+00

     negative rho (up, down):  1.353E-02 0.000E+00

     negative rho (up, down):  1.353E-02 0.000E+00

     negative rho (up, down):  1.353E-02 0.000E+00

     negative rho (up, down):  1.353E-02 0.000E+00

     negative rho (up, down):  1.353E-02 0.000E+00

     negative rho (up, down):  1.353E-02 0.000E+00

     negative rho (up, down):  1.353E-02 0.000E+00

     negative rho (up, down):  1.353E-02 0.000E+00

     negative rho (up, down):  1.353E-02 0.000E+00

     negative rho (up, down):  1.353E-02 0.000E+00

     negative rho (up, down):  1.353E-02 0.000E+00

     negative rho (up, down):  1.353E-02 0.000E+00

     negative rho (up, down):  1.353E-02 0.000E+00

     negative rho (up, down):  1.353E-02 0.000E+00

     negative rho (up, down):  1.353E-02 0.000E+00

     negative rho (up, down):  1.353E-02 0.000E+00
 BEEFens 2000 ensemble energies
             -0.607595692216913E+02
             -0.361117874906486E+01
             -0.158390010396765E+02
              0.429893338992364E+02
             -0.221427339877291E+02
             -0.205372767552939E+02
             -0.352983744266570E+02
             -0.866085756063885E+02
             -0.465131624763330E+02
             -0.472776802280339E+02
             -0.369727546644838E+02
              0.230609004873756E+01
              0.407598304544493E+01
              0.759566732319738E+01
              0.265795441024716E+01
              0.475427975532530E+02
             -0.208868312573964E+02
             -0.229906440760828E+02
              0.193356099774437E+02
             -0.112502889112081E+03
              0.536973763282732E+02
             -0.289864388878437E+02
             -0.334628730774267E+01
             -0.114141708801055E+02
             -0.880574930980060E+01
             -0.461343478544617E+01
              0.883633862618106E+02
             -0.187698730031180E+02
             -0.899400473151968E+01
             -0.519087580941909E+02
              0.815795985260995E+02
             -0.186933162655702E+02
             -0.375352783436625E+02
              0.249178009669002E+02
             -0.284566637797803E+01
              0.164698275812329E+02
             -0.483832649671933E+01
              0.107866912905009E+02
              0.289195323050541E+02
             -0.103345797286608E+03
              0.559036614972612E+02
              0.142546635703815E+02
             -0.176135213701411E+01
             -0.361616226912377E+02
              0.123338056500486E+02
             -0.147204206097420E+02
              0.399048431415279E+02
              0.365120611053381E+02
             -0.308018757628990E+02
             -0.275413766442158E+02
             -0.328817062183683E+02
             -0.352657018996110E+02
              0.137016330967804E+02
             -0.491314662269392E+02
              0.115857267152007E+02
              0.623833584385771E+02
              0.636431517867894E+02
              0.356200997632089E+02
              0.154103514660272E+02
              0.271105165987433E+02
              0.892562009888126E+02
              0.212471201085791E+02
             -0.549069543523935E+02
             -0.157076092147591E+02
             -0.236364330847905E+02
              0.630352892503819E+02
             -0.773892730158187E+02
             -0.672445312808044E+02
             -0.260208119579423E+02
             -0.654895738662799E+01
             -0.470810154442953E+02
              0.271018898312253E+02
              0.803080096304473E+01
              0.869645271195992E+01
             -0.397806568898735E+02
             -0.347202712839540E+02
             -0.542646586072982E+02
              0.390375651261683E+02
             -0.296501859687960E+02
              0.265934414842468E+02
             -0.718741289488404E+01
             -0.318178229622325E+02
             -0.576359721582833E+02
             -0.176666941016946E+02
             -0.907046950545600E+01
             -0.124606596550109E+02
              0.412717634860214E+02
              0.684053638624597E+02
             -0.386172958439845E+02
             -0.795321141608888E+02
             -0.219785702803972E+02
              0.111600928729920E+03
             -0.593228112961748E+02
              0.356400427448592E+02
             -0.958836255441179E+01
             -0.663575460816173E+02
              0.254641619799156E+02
              0.398050030027756E+02
             -0.199052969623544E+02
              0.400491599430314E+02
             -0.296109593072201E+02
             -0.479155948442834E+02
              0.867195133306283E+02
              0.454313590421158E+02
              0.336461084829737E+02
              0.146479670755723E+02
              0.206096215850091E+02
              0.857262062328916E+02
             -0.257039479204470E+02
              0.788436696976285E+01
             -0.142526610629322E+03
              0.181076487054049E+02
             -0.716788372819246E+02
              0.151150381214393E+02
              0.204867615029974E+02
             -0.333408874589583E+02
             -0.557612148039279E+02
              0.652243828354244E+01
             -0.304641675879537E+02
              0.308496798989540E+02
             -0.530335079421490E+02
              0.168749051603413E+01
             -0.357338534505456E+02
             -0.423522357865431E+01
             -0.100624807575983E+01
              0.181824562858707E+02
              0.142416895388931E+01
             -0.651328010302984E+01
              0.591385964361821E+02
              0.909294323360413E+02
              0.484753167074583E+02
              0.830563871467813E+02
             -0.115240675653355E+02
              0.142925378509511E+02
              0.541530782132454E+02
             -0.110391779971192E+02
             -0.736704591792605E+02
             -0.384903790129056E+02
             -0.522372216500005E+02
             -0.277030540511674E+02
              0.327588886651711E+02
             -0.116909392026062E+03
             -0.187301739511765E+02
              0.414588046780298E+02
             -0.386641435520256E+02
             -0.365543678719142E+02
              0.545088807611231E+02
              0.401171199562223E+02
             -0.354310389077797E+02
              0.138554840122288E+02
             -0.273648805618607E+02
              0.343548032494309E+02
              0.444390428400146E+01
              0.210972388885635E+02
             -0.885509594362626E+02
             -0.480590748605513E+02
             -0.997486480679333E+01
              0.319154944309201E+01
             -0.367251257553897E+02
              0.106153758633683E+03
             -0.230842631821248E+02
             -0.398974710752732E+02
              0.388998852613936E+02
             -0.494465373976819E+02
             -0.363892309086247E+02
              0.325301785628681E+02
              0.124735112475774E+02
              0.164878618912327E+02
              0.116970851038553E+02
             -0.132960665342020E+02
              0.225072386797124E+02
              0.590584628914099E+02
             -0.311700957739496E+02
              0.162691042552981E+02
              0.935397124951934E+02
              0.341156210110915E+02
             -0.728165061985499E+01
             -0.188954922136894E+02
              0.153509626383376E+03
             -0.164557696844457E+02
              0.363851103367249E+02
              0.194952676989664E+02
              0.361537510149746E+02
              0.892832931715534E+02
              0.543283995501370E+02
             -0.239215868193709E+01
              0.228155099107307E+02
              0.485522076193178E+02
              0.363779442519901E+02
             -0.526270364080889E+02
              0.937057717867343E+02
             -0.826608338067715E+02
             -0.197910896414978E+02
              0.583238802061597E+02
              0.682518996674083E+01
              0.789945779997186E+01
              0.340833580383726E+02
              0.299246527532366E+02
              0.353850201461715E+02
             -0.638130935126305E+02
              0.286251528169112E+01
             -0.297807293069686E+02
             -0.868310560372383E+01
             -0.146957216816236E+01
             -0.726284858433966E+01
             -0.416226092546174E+01
              0.860209512633550E+02
             -0.101071124460024E+02
             -0.276585459100738E+02
             -0.496057496900717E+01
              0.140159442201866E+02
             -0.564661403110251E+02
             -0.408334910789757E+02
             -0.382331901087330E+02
             -0.630924042939209E+02
             -0.169862744993923E+02
             -0.447838727334886E+02
              0.163397523543599E+02
             -0.237557680992407E+01
             -0.104626582626315E+02
             -0.934261854541955E+01
              0.807671412927482E+01
             -0.242464374229668E+02
              0.690145307264951E+02
             -0.808308512737509E+02
             -0.141230595451064E+02
             -0.174026202223188E+02
              0.182084192100610E+02
              0.215051754779687E+02
             -0.464328031763116E+02
             -0.201766462745521E+02
              0.441427002940840E+02
             -0.276268887373609E+02
              0.187255748815900E+02
              0.383051386802554E+02
             -0.322226729843010E+01
              0.114239584713247E+03
             -0.229717901423231E+02
             -0.341183548385271E+02
              0.576572873258027E+01
             -0.228676099182081E+02
              0.528145252843383E+02
             -0.338128495933181E+02
              0.106806934701835E+02
              0.640599842646200E+02
             -0.126352193846202E+02
              0.120358607777460E+03
              0.125997779248558E+03
             -0.650619041073476E+02
              0.591215955348013E+02
              0.167007619415605E+02
             -0.518447854497439E+02
              0.216115924509677E+02
              0.354715862410040E+02
              0.363416240708364E+02
              0.134273138330784E+01
              0.160239960215040E+02
              0.696846105241672E+02
             -0.247235396084728E+02
              0.181456354278624E+02
              0.739368000781881E+02
             -0.372809900142353E+02
             -0.130313671732538E+02
              0.509455657019259E+02
              0.297792486287922E+02
              0.780813890232031E+02
              0.223377955236069E+02
              0.629293740698091E+01
              0.280575820668491E+02
              0.383863614884955E+02
             -0.472842288100709E+02
              0.335022643084551E+01
              0.130634431609078E+02
              0.113897044096377E+02
              0.220967334588959E+02
             -0.575731005332305E+02
              0.366224224455992E+02
             -0.444231554948276E+02
             -0.347855388096718E+02
              0.178549176747444E+02
             -0.181321913148628E+02
              0.555897777386089E+02
             -0.255683429410183E+02
              0.267119093211463E+02
              0.368431247853787E+02
              0.829878868677634E+02
              0.575170278345641E+02
              0.462425501936668E+02
             -0.105031534398926E+02
             -0.394209538152586E+01
             -0.332472638216327E+02
              0.751732304134717E+02
              0.797992676878382E+02
              0.362368586035042E+02
             -0.192466019765983E+02
              0.512249128138437E+02
             -0.162449802919140E+02
              0.214657953778011E+02
              0.615393809144300E+02
              0.212947959579571E+01
             -0.104509184113227E+02
             -0.282888969849273E+02
             -0.512768676226317E+02
              0.946412108848988E+02
              0.440753987208700E+02
             -0.559968000906019E+02
             -0.966708842569759E+01
              0.249946685384941E+02
             -0.996289001760766E+01
              0.592873982642219E+02
              0.152189229416750E+02
              0.800024672697426E+02
              0.280164305044507E+02
             -0.263788733974011E+02
              0.248761147344759E+02
             -0.502489423024770E+01
             -0.323572653938944E+02
              0.133254769867320E+02
              0.205552282830554E+02
              0.934094859612775E+02
              0.798126514192425E+02
              0.551821196620475E+02
              0.731157667301250E+02
              0.802642514238087E+01
             -0.273955775620152E+02
              0.163304386599345E+02
             -0.368185787742739E+02
             -0.477175512825276E+02
             -0.563974539820990E+02
             -0.266966059416611E+02
             -0.109812581951400E+03
             -0.292071245355254E+02
             -0.838361253592888E+02
              0.210466000184327E+02
             -0.477486296845353E+02
              0.397666173410150E+02
             -0.942780375356337E+02
             -0.330404812143833E+02
              0.548418184850777E+02
              0.207815199502423E+02
             -0.831826056424478E+02
              0.631209739496825E+02
             -0.257201971040387E+02
              0.513058826211173E+02
             -0.242520423952157E+02
             -0.752175124441545E+02
              0.112057681154459E+02
             -0.612035590069081E+02
             -0.167822507119979E+02
             -0.151222289084500E+01
              0.418466376170691E+02
              0.127151120058645E+03
             -0.462030931532981E+02
             -0.362878326079606E+02
             -0.100006326114107E+01
             -0.130266696566941E+02
             -0.823379680269441E+02
             -0.597302512247549E+02
              0.517545540599150E+02
             -0.288965321323851E+02
              0.169780605683756E+02
             -0.489868175755778E+02
             -0.132200045146444E+02
             -0.437616795991382E+02
              0.566024369926949E+02
              0.150780231075821E+02
             -0.231985273032013E+02
             -0.127428677497046E+02
              0.670194288105608E+01
             -0.619377325636356E+01
              0.441859184455578E+02
             -0.252258139069489E+02
              0.283186719697255E+01
              0.339911685920802E+02
              0.171135634025446E+02
             -0.160394183290556E+02
              0.156426169814973E+03
              0.539027119720588E+02
              0.118589407216318E+01
              0.161499933413839E+02
             -0.615572496313211E+02
              0.315413524666558E+02
             -0.722716769296968E+02
             -0.252576184207753E+02
             -0.523438640861468E+02
             -0.220360144301923E+02
              0.570012984185494E+02
             -0.537712078313182E+02
              0.161489474517884E+02
             -0.410948720542444E+01
              0.386200976343304E+01
             -0.434065419885824E+02
             -0.478666140433526E+02
             -0.405536615797132E+01
             -0.424803361810505E+02
             -0.217175134595998E+02
             -0.438999230096856E+02
             -0.119205910076586E+02
             -0.359315495441425E+02
             -0.516957983138334E+02
              0.212804228291311E+02
             -0.209099474403332E+02
              0.188250905077070E+02
              0.974958703541481E+01
             -0.738969279168891E+02
             -0.548449041014284E+02
             -0.399156737647018E+02
              0.354300204289857E+02
              0.268181112285879E+01
             -0.627132460061131E+02
              0.586499193907072E+02
             -0.401632907006364E+02
              0.545764629374843E+02
             -0.290119470355552E+02
             -0.446432155767756E+02
              0.298438806459548E+02
             -0.658468665368794E+02
             -0.380169678365460E+02
              0.673194130763936E+02
              0.204355761724111E+02
             -0.361050963709758E+02
              0.490287643086177E+02
             -0.174239875919468E+02
             -0.323417193692983E+02
             -0.302068910314125E+02
             -0.501307229468081E+02
              0.249940210631994E+02
             -0.934061870302719E+02
             -0.840884211798550E+02
             -0.735651311582330E+01
             -0.307106035829881E+02
             -0.576503000433759E+02
              0.722756581098478E+02
              0.131697347422178E+03
             -0.360869923672325E+02
             -0.257014922773294E+01
             -0.637669678916209E+02
              0.651318265726233E+02
              0.171066400137644E+02
             -0.182215042619916E+02
             -0.410346347872411E+02
              0.148734254169971E+02
             -0.586627287381677E+02
             -0.197913109115432E+02
             -0.905405985048395E+02
              0.337423817492914E+02
              0.168893231476991E+02
              0.183037138900931E+01
             -0.710613583660108E+01
             -0.330540177335790E+02
             -0.762353929618973E+01
              0.125713299758095E+03
             -0.199074140286456E+02
             -0.438286668925863E+02
             -0.684830519478416E+02
              0.109506537806460E+02
             -0.342826167424264E+02
              0.593821667095992E+01
              0.261952721767251E+02
              0.102280727989798E+02
              0.278485951086793E+02
              0.120302065966898E+02
              0.630264434779911E+02
              0.316752862048352E+02
             -0.327149014146946E+02
              0.356692437625987E+02
              0.379835839725331E+02
              0.120968933660577E+02
              0.487442470604082E+02
             -0.225486257504462E+02
              0.766518100578153E+02
              0.172887998992878E+02
             -0.272628405603795E+02
             -0.724544455390777E+01
             -0.186627599224459E+02
              0.261830892450602E+02
             -0.234407809186025E+02
             -0.173409727685765E+00
             -0.851428825166897E+01
              0.810531924657431E+02
              0.500814026439750E+02
             -0.687403597915242E+02
             -0.479627728705069E+01
             -0.555771821053002E+02
             -0.159419050618595E+02
             -0.268580947378457E+02
              0.378196288781317E+01
              0.602746284751161E+00
             -0.258108906181711E+02
              0.818329294340910E+01
             -0.603971351926855E+01
             -0.128454552249907E+02
              0.859934514906956E+02
              0.181822485894083E+02
             -0.808207394014680E+02
             -0.458712351831821E+02
              0.946323488658225E+02
              0.278131001522469E+02
             -0.106933300264740E+02
              0.104694364174947E+03
             -0.194665137744020E+02
             -0.123057323824037E+02
             -0.542649340650189E+01
              0.107679670859712E+02
              0.273108635080884E+02
              0.780824704539961E+01
              0.305669755165862E+02
             -0.187875729799823E+02
             -0.304639562936364E+02
             -0.418452391215915E+02
             -0.477380382263876E+02
              0.464391686684084E+02
              0.126945555729944E+02
              0.388104277147566E+02
              0.133742120309643E+02
              0.856788202476567E+02
              0.156752817017800E+02
             -0.847008145264373E+02
             -0.334855581397174E+02
              0.133521748827397E+02
             -0.303118517698854E+02
              0.627437875910032E+02
             -0.887869820951755E+01
              0.148839276287785E+02
              0.498014230799969E+02
             -0.708369071094685E+02
              0.149905289339104E+03
              0.208997323529393E+02
              0.271627575723953E+02
              0.348191434606695E+02
              0.103689003044705E+02
             -0.155215832837473E+01
              0.358657078432518E+02
             -0.357741426807648E+02
              0.774548122440691E+02
              0.685968502295908E+02
             -0.406575075123101E+02
              0.149760504161001E+02
              0.671054863203315E+02
             -0.224065635461362E+02
              0.154792358650017E+02
              0.435199502603677E+02
              0.422521473843365E+02
             -0.785683731174045E+02
             -0.152618312034116E+02
             -0.356154449871850E+02
             -0.149400923483370E+01
             -0.768586667806218E+01
             -0.539496391331852E+01
             -0.180528216629241E+02
             -0.294448307782973E+02
              0.639329830184262E+01
              0.111635408128936E+02
              0.536313610158814E+02
             -0.391043788427660E+02
              0.375389126112213E+02
              0.439274037532864E+02
             -0.186308157143109E+02
              0.872865142172694E+02
             -0.698699473878873E+02
             -0.103308084076904E+03
             -0.662082261998409E+01
             -0.269900041210406E+01
              0.384332014311792E+01
              0.790633562979026E+02
             -0.106873712130226E+02
              0.417295537132051E+02
              0.444718811651312E+02
              0.385736780633083E+02
             -0.997274371336709E+01
              0.627964290485435E+02
             -0.133809680650040E+02
             -0.308074434767968E+02
             -0.479523693736140E+02
              0.591010542998556E+01
              0.369671372245363E+02
             -0.601900513143511E+01
              0.393164856903597E+02
             -0.174812176207729E+01
              0.655661853233526E+02
              0.187245154377057E+02
              0.999588857743413E+01
             -0.121620560397138E+02
              0.332402343661480E+02
              0.363039546297406E+02
              0.232662069030344E+02
             -0.515670667428537E+00
             -0.551342731188049E+02
              0.261127723341411E+02
              0.175476227174787E+02
              0.402821125296805E+02
              0.272494204900358E+02
              0.372945756196029E+02
             -0.604965771049751E+01
              0.251830150229957E+02
             -0.299081764524524E+02
             -0.198089007487329E+01
             -0.569785815458316E+02
             -0.308245746273766E+02
              0.379320445494487E+02
             -0.936669300644817E+02
              0.294504365253124E+02
              0.184241326498465E+02
              0.841460051011766E+02
             -0.300128484522187E+02
              0.330037416617238E+02
             -0.137795871589735E+02
             -0.464614149285117E+02
             -0.762072230878904E+02
             -0.530743844469794E+01
             -0.861209818418654E+02
              0.199546491808978E+02
             -0.247736593904702E+02
              0.306301564940837E+02
              0.237543374756572E+02
             -0.241725202750560E+02
             -0.266085277136862E+02
              0.391414065816643E+02
             -0.589258200996600E+02
             -0.117031789431006E+02
             -0.196257857740180E+02
              0.213311579690748E+02
             -0.886043963983838E+01
              0.362032513781850E+01
             -0.200658433497906E+02
              0.559396381879780E+02
             -0.440873756600627E+02
              0.787780309141590E+01
              0.586338088210400E+02
             -0.324000811509071E+02
              0.362226141490177E+01
             -0.878755324801966E+01
             -0.669986270070150E+02
             -0.482587305573198E+02
             -0.858875998054640E+01
              0.241314921195683E+02
              0.302954089541846E+02
              0.860971817819848E+01
             -0.417229030928445E+01
              0.151914620321564E+02
             -0.440163751322522E+02
              0.329753167117229E+01
             -0.531888260362958E+02
             -0.325217484508627E+02
              0.475425310946096E+02
             -0.295547865800356E+02
              0.623577703378898E+02
             -0.215266026789733E+02
              0.353881273042171E+02
              0.242093019000899E+02
             -0.644815293253274E+02
             -0.280516580349997E+02
              0.934928147856027E+01
             -0.372584412269805E+02
             -0.340131150303185E+02
             -0.831239561366654E+02
             -0.539937061883726E+02
             -0.511007915219789E+02
             -0.416165078317056E+02
             -0.994001265691622E+00
              0.100088916186815E+02
              0.109202326240069E+01
              0.153858758336728E+02
             -0.550092226299928E+02
              0.142154554209540E+02
              0.257623870275299E+02
             -0.667655850466202E+02
             -0.702578905794759E+02
             -0.431961677779764E+02
             -0.172793690263521E+02
              0.178463604331620E+02
              0.454084119324875E+01
             -0.426195099296378E+02
              0.366293411499815E+02
             -0.216642015885619E+02
              0.518101332637598E+02
             -0.888403006132770E+02
              0.598813327564500E+02
             -0.217818440407719E+01
             -0.369205425101120E+02
             -0.216532282266903E+02
              0.470713717458581E+01
              0.375378680902593E+02
             -0.757173717708253E+02
             -0.120839888374435E+02
             -0.216914224634186E+02
              0.511424515334101E+02
              0.865903518032099E+02
             -0.966768296516905E+02
              0.945094709261529E+02
              0.467862650273305E+02
             -0.726426049684023E+02
             -0.366843534821795E+02
              0.753119167819073E+02
              0.632620878402423E+02
             -0.181669012162071E+02
             -0.464642845881207E+01
              0.736908290945601E+01
              0.650344324555920E+02
             -0.509360015486169E+02
              0.158395645511960E+02
             -0.473879115341997E+01
              0.347818714084033E+02
             -0.747870858475311E+02
             -0.647362131425984E+01
             -0.351170245358286E+02
              0.461372780017881E+02
              0.469092417096295E+02
             -0.863183277567015E+02
             -0.487598442573215E+02
             -0.256398772328057E+02
             -0.340307765887029E+02
             -0.109357137998805E+02
             -0.242697717277015E+02
              0.428024158071113E+02
              0.401489420416379E+02
             -0.562117641138241E+01
             -0.417011278246003E+02
             -0.851838663229892E+02
              0.444032474479200E+02
             -0.523646798334534E+02
             -0.313853910747539E+02
              0.547490519110784E+01
             -0.323293623164544E+02
[...]
              0.283726116394670E+02
              0.141927024460496E+03
              0.242941841125624E+02
              0.122806468833846E+02
             -0.464662831552813E+02
             -0.638048912257768E+02
             -0.189151605030192E+02
              0.330160164998628E+02
             -0.428267382031470E+01
              0.190645822258318E+02
              0.336631965270050E+02
             -0.586805233950388E+02
              0.222792401460036E+02
              0.581722975588154E+02
              0.553209559511598E+02
             -0.420689197129792E+01
             -0.134185444065224E+01
             -0.994170731353032E+01
             -0.482634435171586E+02
             -0.675754757581136E+02
              0.786004067416234E+02
             -0.524528011847983E+01
             -0.588227709125380E+02
              0.174460404813445E+01
             -0.205750707606156E+02
              0.939285524041017E+02
             -0.216890629607042E+02
             -0.354077637599156E+02
              0.335930433993051E+02
             -0.146061248333542E+02
              0.390130102663362E+02
             -0.232468548120198E+01
              0.101148247585243E+03
              0.490422746085485E+02
             -0.505086640518510E+01
             -0.322460157345057E+02
              0.232728839999630E+02
             -0.529038237986697E+02
             -0.127772190552523E+02
              0.586405719959780E+02
             -0.287962465774099E+02
             -0.438634781352740E+02
             -0.223533677391837E+02
              0.519081365523319E+02
              0.124703346455722E+02
             -0.849527146817043E+02
              0.304323350233704E+02
              0.151891539445292E+02
              0.580249554974759E+01
             -0.513987291972951E+02
             -0.374988450663460E+01
              0.323329170430301E+02
              0.512971083889809E+02
              0.633540083100627E+02
              0.229568154299102E+02
              0.757789076373882E+00
             -0.498836202202504E+02
             -0.510464414537196E+02
             -0.748104668419396E+02
             -0.619967219833802E+01
              0.309458362101054E+02
             -0.378304793374261E+01
              0.547308082061270E+02
             -0.318344504415694E+02
              0.166482034352071E+02
             -0.103287811561377E+02
             -0.289935213745546E+02
              0.586358310556511E+02
              0.792072234708866E+01
              0.605101679485932E+02
              0.510367336566901E+01
              0.265002995822089E+02
             -0.192859507376833E+02
              0.586647908502192E+02
             -0.111992967424933E+02
             -0.104596184881693E+00
             -0.790941579841495E+02
             -0.128290885649847E+02
              0.719639664641552E+02
              0.673540332472224E+02
              0.252278557695788E+02
             -0.130589215464986E+02
              0.347295466701317E+01
             -0.173998891680580E+02
             -0.212858006199079E+01
              0.908860602075153E+02
              0.127455715652661E+01
             -0.190876386099179E+02
             -0.110831268669859E+03
             -0.552537636619429E+02
             -0.375502476791709E+02
             -0.658915909265752E+02
             -0.556254912594862E+02
             -0.683210551361556E+02
             -0.447611766424234E+02
             -0.410862561373457E+02
             -0.452456979319215E+02
              0.483952744034770E+02
             -0.293980606021737E+02
             -0.995409381742371E+02
              0.419332074730815E+02
             -0.260493518479101E+02
             -0.791508818419093E+02
              0.944834920334770E+02
             -0.220045369787432E+02
              0.227983789041337E+02
              0.455289014716066E+02
             -0.128128462191012E+01
              0.254830863746973E+02
              0.470653130068769E+01
              0.417241723637840E+00
             -0.150929475964299E+02
             -0.716687693574363E+02
              0.133343608103142E+02
             -0.129469257587028E+03
              0.625302208856691E+02
             -0.441029539393018E+02
             -0.163287723488293E+02
             -0.158409138355512E+02
              0.720065283384590E+01
             -0.227707243739549E+02
              0.297170809002724E+02
             -0.521216735197925E+02
              0.367401997344420E+02
              0.371637212360152E+02
              0.168061233250915E+02
              0.100808404142808E+02
              0.198069997018262E+02
              0.625011765707700E+01
              0.310408027733031E+02
             -0.798432865363765E+01
             -0.593630672056231E+02
              0.757896709153925E+01
             -0.153174319408645E+02
             -0.194705851562725E+01
              0.507206293102187E+02
             -0.827510279611979E+02
             -0.146888463970970E+01
              0.590027570939640E+00
              0.997170378842736E+01
              0.318619602602610E+02
             -0.123649952508932E+02
              0.836401954155403E+02
              0.487535215372975E+02
             -0.183218216002262E+02
             -0.953974636292867E+01
              0.108401743842575E+01
              0.770153428454844E+02
             -0.586448895091222E+02
             -0.105852086677295E+03
              0.309555596359858E+02
             -0.163365597354849E+02
             -0.139894554899846E+02
              0.130713649115481E+02
              0.769038234944460E+02
              0.464465339997168E+02
             -0.153519572240414E+02
             -0.503653680536833E+02
             -0.552471254954729E+01
              0.306601397673114E+02
             -0.111912762891288E+02
             -0.756580890892947E+02
             -0.275173481478288E+01
             -0.891069430134841E+02
             -0.476205456497344E+02
              0.769650811526348E+02
             -0.484169523828863E+02
             -0.637387453594621E+02
             -0.514829506706227E+02
             -0.350306153104128E+02
              0.341493794370112E+02
              0.822519593092355E+02
             -0.361595060359275E+01
              0.276763660709346E+02
             -0.184186026064798E+02
             -0.694642456920131E+02
              0.465596391509893E+02
             -0.445627807217845E+02
              0.321684456873635E+02
              0.376243715311501E+02
             -0.659259995112495E+01
              0.390413974752080E+02
              0.438504757833207E+02
              0.100829382673147E+03
             -0.155802614123065E+02
             -0.457109139569538E+02
             -0.613369699536707E+02
             -0.124216257332580E+02
             -0.233868182502979E+02
              0.103072716210548E+03
             -0.449565867666500E+02
              0.105277126716331E+02
              0.969223852536959E+01
             -0.264632005383572E+02
             -0.800004334794580E+02
             -0.700255600791428E+01
              0.980906529597563E+02
              0.943660616487506E+01
              0.808558566454877E+01
             -0.527906338514527E+02
             -0.605863031402628E+02
             -0.567477921935226E+01
              0.500717566517272E+02
             -0.222237593790305E+02
              0.108047699741611E+03
             -0.436488411308911E+02
              0.146577764986562E+02
             -0.223854459145450E+02
             -0.719025602411953E+02
              0.169050227202075E+01
             -0.502300130615561E+02
             -0.761299148242142E+02
              0.619370536825966E+01
              0.235661363310695E+01
              0.514608653676403E+02
              0.187654745968009E+02
             -0.324028741356758E+02
              0.230077597596324E+02
             -0.812225673818704E+02
             -0.521924380981195E+02
              0.902593682754088E+02
              0.141992588523625E+02
             -0.187707119792072E+02
             -0.352413510797180E+02
             -0.270324595518264E+01
             -0.589767131789847E+01
              0.831578483704851E+02
              0.418254939687801E+02
             -0.165809208178696E+02
             -0.121483964474403E+02
             -0.427830864031808E+02
             -0.200459825315065E+02
             -0.670331956701218E+02
              0.460317276087947E+02
              0.547585118158196E+01
              0.144771464369863E+02
              0.156531699341145E+02
             -0.598308301322142E+00
             -0.168799173319007E+02
             -0.301751175836566E+01
             -0.100558619137267E+03
             -0.229867995224560E+02
             -0.768092876729145E+01
             -0.948188703127173E+01
              0.546390356794808E+02
              0.624644845651924E+02
              0.165046364799604E+02
             -0.971390101784017E+02
              0.647969186659489E+02
             -0.215149397512633E+02
             -0.377321076450758E+02
             -0.864997600835329E+02
             -0.386839001436234E+02
              0.565496718054815E+02
              0.244891433058855E+02
              0.516740865911845E+01
              0.292738122411318E+02
             -0.565423429023205E+02
             -0.422964292064221E+02
              0.516049015614343E+02
              0.387544197481391E+02
              0.519110067368088E+02
             -0.115312201281321E+01
              0.688078121097493E+01
              0.569901181698089E+02
              0.963573893820556E+02
             -0.300039419584641E+02
              0.323442039570405E+02
             -0.119601208130888E+02
             -0.412585280337413E+02
             -0.314799140834040E+02
             -0.300776742824156E+02
             -0.131514469097742E+02
             -0.523689701137145E+02
             -0.217130522103458E+02
             -0.141266796861308E+03
              0.369247571652519E+02
              0.207124735579851E+02
             -0.395350028326180E+01
             -0.380243416132138E+02
             -0.204167648878356E+02
             -0.527508429575209E+02
              0.151163890067680E+02
              0.820674384286177E+02
             -0.252334799387475E+02
             -0.163248177105110E+02
              0.238309592499533E+02
             -0.490065993787942E+02
              0.881109333651907E+02
              0.154414191096959E+02
              0.226029547533850E+02
              0.490514217159562E+02
              0.316229996231425E+01
              0.542559489680070E+02
              0.143339453599231E+02
             -0.106267687693941E+02
              0.732388784119473E+01
              0.733827664399996E+00
              0.727441391768534E+02
              0.101285654249816E+02
              0.120962681169714E+02
             -0.130249043166494E+02
              0.132493112908292E+02
             -0.912006233834542E+02
             -0.326003849069759E+02
             -0.457925059632644E+02
              0.485401330481405E+02
             -0.291506863484423E+02
             -0.658657954183426E+02
              0.539060900595307E+02
             -0.122040005287386E+02
              0.440291430799930E+02
             -0.899356829626104E+02
              0.231879090764325E+02
              0.855797397761867E+01
              0.584953628880976E+01
             -0.835090415807201E+01
             -0.905070255665805E+01
              0.479946357271896E+02
              0.199857958784349E+01
             -0.475811444887513E+02
             -0.176503950680241E+02
              0.276498248745029E+02
             -0.118029563216286E+03
             -0.930278783065043E+02
              0.395372490706512E+01
              0.117990318411565E+02
             -0.414003880255975E+02
             -0.387716174831928E+01
              0.112171388837361E+03
              0.306391161731754E+02
             -0.571976553794068E+02
              0.925401724469492E+01
             -0.965461285967883E+01
              0.105964383403271E+02
             -0.338213783639290E+02
              0.195858160653666E+02
              0.284764370720102E+02
             -0.299268427014675E+01
              0.108281988310779E+03
             -0.140115535632348E+02
             -0.316153382794107E+02
              0.143527253416120E+02
              0.466946805029079E+02
             -0.355959996940203E+02
             -0.317198283093584E+01
              0.965769072807199E+02
             -0.463809042375669E+01
              0.622094943677430E+02
              0.135643127275822E+02
             -0.899879549120234E+01
             -0.305254617791383E+02
              0.566656350846621E+02
             -0.514796427984827E+02
             -0.220255026397700E+01
             -0.170312203908894E+02
             -0.405470513535022E+02
              0.185109208026554E+02
              0.239728805709791E+02
              0.115861281847290E+02
              0.723415964831247E+00
             -0.385011721066325E+02
              0.215231928617498E+02
             -0.673850640126088E+01
             -0.246466830312398E+02
             -0.210675837234191E+02
              0.203063172049721E+02
             -0.597166030876065E+01
             -0.349569067171952E+02
             -0.106747046287464E+03
              0.103109260114117E+02
              0.248539886736363E+02
             -0.387923109497422E+02
             -0.211277246754203E+02
              0.807878846846377E+02
              0.655368848715045E+01
              0.311457962829221E+02
              0.393867032333571E+01
              0.322316109586199E+02
              0.646887282312292E+01
             -0.373242916703716E+02
             -0.238470623611369E+01
              0.875967258948060E+01
              0.274315572454182E+02
              0.782200456568000E+02
              0.507839345256594E+02
              0.195820263675785E+00
              0.169442845613131E+02
              0.613772435932626E+02
              0.236245046752275E+02
             -0.753190648982579E+02
             -0.274016948104181E+02
              0.150978782907589E+02
              0.563203001358266E+01
              0.255173122065192E+02
             -0.548109350939074E+02
              0.897228185556810E+01
              0.386584886216573E+02
              0.498384374290805E+02
             -0.435178788647160E+02
             -0.687002417563872E+01
             -0.208542951450778E+01
             -0.134032384395488E+02
             -0.365444335100255E+02
             -0.215169951175139E+02
             -0.208451116223617E+01
              0.795501364139625E+01
              0.421794571870699E+02
             -0.308570485668784E+02
              0.826900685294830E+02
              0.327715354609296E+02
              0.220194120297450E+02
              0.333592927591001E+02
              0.323082552268219E+02
              0.346821510666051E+02
              0.537617800962245E+02
             -0.434333404528986E+02
              0.620197103542701E+02
             -0.112390560840853E+03
              0.307571692911063E+02
             -0.106612805449039E+03
              0.855294266717680E+02
              0.691454121674169E+02
             -0.109894700013893E+02
             -0.493510248764947E+02
             -0.430034393291859E+02
             -0.623818973764170E+02
             -0.629420351904848E+02
              0.552424901457062E+02
              0.405799607403242E+02
              0.236974160267221E+02
              0.373718640269251E+02
              0.403858414904012E+02
             -0.382539857782047E+02
             -0.197896668413975E+02
              0.586992169182228E+02
             -0.116253277518227E+02
              0.552316557974055E+02
              0.700261251899782E+02
             -0.556037681293995E+01
             -0.707082574406091E+02
             -0.855401524419676E+00
             -0.247680607437494E+01
             -0.883486154707907E+01
             -0.180566960053665E+01
             -0.653420965804904E+02
             -0.210339872344827E+02
              0.542594766533684E+01
              0.903998553397560E+01
              0.469458645356482E+02
             -0.398235419688200E+02
              0.657394535365775E+02
             -0.425580452924706E+02
              0.210879911378689E+02
              0.350793117011420E+02
 
 BEEF-vdW xc energy contributions
           1 :   -783.332358324893     
           2 :    719.415894135184     
           3 :   -608.838364439367     
           4 :    478.771818292466     
           5 :   -356.754241530048     
           6 :    262.591533474529     
           7 :   -203.899819366750     
           8 :    176.107216004840     
           9 :   -166.489917842203     
          10 :    160.345465462565     
          11 :   -146.796789992973     
          12 :    122.034893605877     
          13 :   -89.1630263488574     
          14 :    55.2675498130378     
          15 :   -27.4088397390960     
          16 :    9.34442132945742     
          17 :  -0.252274738531696     
          18 :   -4.29831490836273     
          19 :    9.84294194657730     
          20 :   -20.3013040230865     
          21 :    36.2844335064825     
          22 :   -55.1010163410198     
          23 :    72.2922895863952     
          24 :   -83.8559910393553     
          25 :    88.0676866782469     
          26 :   -86.1035104220953     
          27 :    81.2704237744618     
          28 :   -77.3077019126215     
          29 :    76.6122514763789     
          30 :   -79.2273126586119     
          31 :   -85.9732934135194     
          32 :   -65.8479537679488     

     Writing output data file ./pwscf.save/
 
     init_run     :    358.51s CPU    363.28s WALL (       1 calls)
     electrons    :  14258.61s CPU  14399.40s WALL (       1 calls)
     forces       :    109.12s CPU    110.53s WALL (       1 calls)

     Called by init_run:
     wfcinit      :    309.60s CPU    313.37s WALL (       1 calls)
     potinit      :     45.77s CPU     46.10s WALL (       1 calls)
     hinit0       :      1.21s CPU      1.24s WALL (       1 calls)

     Called by electrons:
     c_bands      :  11832.33s CPU  11942.06s WALL (      20 calls)
     sum_band     :   1679.18s CPU   1692.44s WALL (      20 calls)
     v_of_rho     :    136.17s CPU    140.78s WALL (      21 calls)
     newd         :     33.63s CPU     46.90s WALL (      21 calls)
     PAW_pot      :    146.35s CPU    146.36s WALL (      21 calls)
     mix_rho      :    477.42s CPU    478.20s WALL (      20 calls)
     vdW_kernel   :     33.57s CPU     33.58s WALL (       1 calls)

     Called by c_bands:
     init_us_2    :     85.31s CPU     85.61s WALL (     546 calls)
     cegterg      :  10973.68s CPU  11083.09s WALL (     260 calls)

     Called by *egterg:
     cdiaghg      :    112.74s CPU    112.78s WALL (    1761 calls)
     h_psi        :   7050.94s CPU   7088.95s WALL (    1774 calls)
     s_psi        :   1197.50s CPU   1197.56s WALL (    1774 calls)
     g_psi        :     18.01s CPU     18.01s WALL (    1501 calls)

     Called by h_psi:
     h_psi:calbec :   1103.31s CPU   1103.46s WALL (    1774 calls)
     vloc_psi     :   4720.57s CPU   4721.91s WALL (    1774 calls)
     add_vuspsi   :   1198.33s CPU   1198.46s WALL (    1774 calls)

     General routines
     calbec       :   1612.93s CPU   1613.14s WALL (    2086 calls)
     fft          :     54.50s CPU     54.52s WALL (    3280 calls)
     ffts         :    155.27s CPU    155.29s WALL (    9995 calls)
     fftw         :   4852.72s CPU   4853.58s WALL (  332772 calls)
 
     Parallel routines
 
     PWSCF        :      4h 7m CPU      4h10m WALL

 
   This run was terminated on:  14:34:14   4Jan2023            

=------------------------------------------------------------------------------=
   JOB DONE.
=------------------------------------------------------------------------------=
