
     Program PWSCF v.6.7MaX starts on 21Dec2022 at 15:56:55 

     This program is part of the open-source Quantum ESPRESSO suite
     for quantum simulation of materials; please cite
         "P. Giannozzi et al., J. Phys.:Condens. Matter 21 395502 (2009);
         "P. Giannozzi et al., J. Phys.:Condens. Matter 29 465901 (2017);
          URL http://www.quantum-espresso.org", 
     in publications or presentations arising from this work. More details at
     http://www.quantum-espresso.org/quote

     Parallel version (MPI), running on     1 processors

     MPI processes distributed on     1 nodes
     Reading input from chch-vdw-ensemble.in
Warning: card &CELL ignored
Warning: card / ignored

     Current dimensions of program PWSCF are:
     Max number of different atomic species (ntypx) = 10
     Max number of k-points (npk) =  40000
     Max angular momentum in pseudopotentials (lmaxx) =  3
     file Pt.pbe-n-kjpaw_psl.1.0.0.UPF: wavefunction(s)  6S 5D renormalized
     file C.pbe-n-kjpaw_psl.1.0.0.UPF: wavefunction(s)  2S 2P renormalized
     file H.pbe-kjpaw_psl.1.0.0.UPF: wavefunction(s)  1S renormalized

     **************************************************************************
     Initializing libbeef V0.1.2 with the BEEF-vdW functional.
     Citation: Wellendorff et al., PRB 85, 235149 (2012).
     **************************************************************************


     IMPORTANT: XC functional enforced from input :
     Exchange-correlation= BEEF-VDW
                           (   1   4  43  14   2   0   0)
     Any further DFT definition will be discarded
     Please, verify this is what you really want


     Subspace diagonalization in iterative solution of the eigenvalue problem:
     a serial algorithm will be used

 
     G-vector sticks info
     --------------------
     sticks:   dense  smooth     PW     G-vecs:    dense   smooth      PW
     Sum        4267    4267   1159               723645   723645  102127
 


     bravais-lattice index     =            0
     lattice parameter (alat)  =      16.0349  a.u.
     unit-cell volume          =   11521.2084 (a.u.)^3
     number of atoms/cell      =           40
     number of atomic types    =            3
     number of electrons       =       370.00
     number of Kohn-Sham states=          222
     kinetic-energy cutoff     =      60.0000  Ry
     charge density cutoff     =     240.0000  Ry
     scf convergence threshold =      1.0E-06
     mixing beta               =       0.7000
     number of iterations used =            8  local-TF  mixing
     Exchange-correlation= BEEF-VDW
                           (   1   4  43  14   2   0   0)

     celldm(1)=  16.034858  celldm(2)=   0.000000  celldm(3)=   0.000000
     celldm(4)=   0.000000  celldm(5)=   0.000000  celldm(6)=   0.000000

     crystal axes: (cart. coord. in units of alat)
               a(1) = (   1.000000   0.000000   0.000000 )  
               a(2) = (   0.500000   0.866025   0.000000 )  
               a(3) = (   0.000000   0.000000   3.226800 )  

     reciprocal axes: (cart. coord. in units 2 pi/alat)
               b(1) = (  1.000000 -0.577350  0.000000 )  
               b(2) = (  0.000000  1.154701  0.000000 )  
               b(3) = (  0.000000  0.000000  0.309905 )  


     PseudoPot. # 1 for Pt read from file:
     /users/bkreitz1/quantum-espresso/potentials/Pt.pbe-n-kjpaw_psl.1.0.0.UPF
     MD5 check sum: 04dc8a03c51ece93fc7b5889c2958091
     Pseudo is Projector augmented-wave + core cor, Zval = 10.0
     Generated using 'atomic' code by A. Dal Corso  v.6.7MaX
     Shape of augmentation charge: PSQ
     Using radial grid of 1277 points,  6 beta functions with: 
                l(1) =   0
                l(2) =   0
                l(3) =   1
                l(4) =   1
                l(5) =   2
                l(6) =   2
     Q(r) pseudized with 0 coefficients 


     PseudoPot. # 2 for C  read from file:
     /users/bkreitz1/quantum-espresso/potentials/C.pbe-n-kjpaw_psl.1.0.0.UPF
     MD5 check sum: a169b0ebad56f5ec0d79c4633f80bf22
     Pseudo is Projector augmented-wave + core cor, Zval =  4.0
     Generated using 'atomic' code by A. Dal Corso  v.6.7MaX
     Shape of augmentation charge: PSQ
     Using radial grid of 1073 points,  4 beta functions with: 
                l(1) =   0
                l(2) =   0
                l(3) =   1
                l(4) =   1
     Q(r) pseudized with 0 coefficients 


     PseudoPot. # 3 for H  read from file:
     /users/bkreitz1/quantum-espresso/potentials/H.pbe-kjpaw_psl.1.0.0.UPF
     MD5 check sum: ae98473e6dc62675f0d0baffdab24f65
     Pseudo is Projector augmented-wave, Zval =  1.0
     Generated using 'atomic' code by A. Dal Corso  v.6.7MaX
     Shape of augmentation charge: PSQ
     Using radial grid of  929 points,  2 beta functions with: 
                l(1) =   0
                l(2) =   0
     Q(r) pseudized with 0 coefficients 


     atomic species   valence    mass     pseudopotential
        Pt            10.00   195.08400     Pt( 1.00)
        C              4.00    12.01100     C ( 1.00)
        H              1.00     1.00800     H ( 1.00)

     No symmetry found



   Cartesian axes

     site n.     atom                  positions (alat units)
         1           Pt  tau(   1) = (   0.0000000   0.0000000   1.0017346  )
         2           Pt  tau(   2) = (   0.3333333   0.0000000   1.0017346  )
         3           Pt  tau(   3) = (   0.6666667   0.0000000   1.0017346  )
         4           Pt  tau(   4) = (   0.1666667   0.2886751   1.0017346  )
         5           Pt  tau(   5) = (   0.5000000   0.2886751   1.0017346  )
         6           Pt  tau(   6) = (   0.8333333   0.2886751   1.0017346  )
         7           Pt  tau(   7) = (   0.3333333   0.5773503   1.0017346  )
         8           Pt  tau(   8) = (   0.6666667   0.5773503   1.0017346  )
         9           Pt  tau(   9) = (   1.0000000   0.5773503   1.0017346  )
        10           Pt  tau(  10) = (   0.1666667   0.0962250   1.2739001  )
        11           Pt  tau(  11) = (   0.5000000   0.0962250   1.2739001  )
        12           Pt  tau(  12) = (   0.8333333   0.0962250   1.2739001  )
        13           Pt  tau(  13) = (   0.3333333   0.3849002   1.2739001  )
        14           Pt  tau(  14) = (   0.6666667   0.3849002   1.2739001  )
        15           Pt  tau(  15) = (   1.0000000   0.3849002   1.2739001  )
        16           Pt  tau(  16) = (   0.5000000   0.6735753   1.2739001  )
        17           Pt  tau(  17) = (   0.8333333   0.6735753   1.2739001  )
        18           Pt  tau(  18) = (   1.1666667   0.6735753   1.2739001  )
        19           Pt  tau(  19) = (   0.0000010   0.1924441   1.5425153  )
        20           Pt  tau(  20) = (   0.3333283   0.1924715   1.5422971  )
        21           Pt  tau(  21) = (   0.6666581   0.1924461   1.5425220  )
        22           Pt  tau(  22) = (   0.1666742   0.4811301   1.5424657  )
        23           Pt  tau(  23) = (   0.4999842   0.4811332   1.5424682  )
        24           Pt  tau(  24) = (   0.8333303   0.4811009   1.5425483  )
        25           Pt  tau(  25) = (   0.3333309   0.7698031   1.5424755  )
        26           Pt  tau(  26) = (   0.6666374   0.7698079   1.5425445  )
        27           Pt  tau(  27) = (   1.0000194   0.7698099   1.5425454  )
        28           Pt  tau(  28) = (   0.0000022  -0.0000282   1.8164853  )
        29           Pt  tau(  29) = (   0.3333232  -0.0001494   1.8162754  )
        30           Pt  tau(  30) = (   0.6666642  -0.0000300   1.8164819  )
        31           Pt  tau(  31) = (   0.1666544   0.2886735   1.8162912  )
        32           Pt  tau(  32) = (   0.5000018   0.2886769   1.8163007  )
        33           Pt  tau(  33) = (   0.8333322   0.2887050   1.8165778  )
        34           Pt  tau(  34) = (   0.3333315   0.5774168   1.8163035  )
        35           Pt  tau(  35) = (   0.6667101   0.5773435   1.8164569  )
        36           Pt  tau(  36) = (   0.9999500   0.5773391   1.8164473  )
        37           C   tau(  37) = (   0.2629755   0.2879334   2.2241546  )
        38           C   tau(  38) = (   0.4050214   0.2877792   2.2241578  )
        39           H   tau(  39) = (   1.1377557   0.2879475   2.2249489  )
        40           H   tau(  40) = (   0.5302000   0.2875806   2.2250942  )

     number of k points=    13  Marzari-Vanderbilt smearing, width (Ry)=  0.0200
                       cart. coord. in units 2pi/alat
        k(    1) = (   0.0000000   0.0000000   0.0000000), wk =   0.0800000
        k(    2) = (   0.0000000   0.2309401   0.0000000), wk =   0.1600000
        k(    3) = (   0.0000000   0.4618802   0.0000000), wk =   0.1600000
        k(    4) = (   0.2000000  -0.1154701   0.0000000), wk =   0.1600000
        k(    5) = (   0.2000000   0.1154701   0.0000000), wk =   0.1600000
        k(    6) = (   0.2000000   0.3464102   0.0000000), wk =   0.1600000
        k(    7) = (   0.2000000  -0.5773503   0.0000000), wk =   0.1600000
        k(    8) = (   0.2000000  -0.3464102   0.0000000), wk =   0.1600000
        k(    9) = (   0.4000000  -0.2309401   0.0000000), wk =   0.1600000
        k(   10) = (   0.4000000  -0.0000000   0.0000000), wk =   0.1600000
        k(   11) = (   0.4000000   0.2309401   0.0000000), wk =   0.1600000
        k(   12) = (   0.4000000  -0.6928203   0.0000000), wk =   0.1600000
        k(   13) = (   0.4000000  -0.4618802   0.0000000), wk =   0.1600000

     Dense  grid:   723645 G-vectors     FFT dimensions: (  80,  80, 256)

     Estimated max dynamical RAM per process >       8.69 GB

     Check: negative core charge=   -0.000002

     Initial potential from superposition of free atoms

     starting charge  369.99379, renormalised to  370.00000

     negative rho (up, down):  1.091E-02 0.000E+00


     %%%%%%%%%%%%%%%%%%%%%%%%%%%%%%%%%%%%%%%%%%%%%%%%%%%%%%%%%%%%%%%%%%%%%%%%
     %                                                                      %
     % You are using vdW-DF, which was implemented by the Thonhauser group. %
     % Please cite the following two papers that made this development      %
     % possible and the two reviews that describe the various versions:     %
     %                                                                      %
     %   T. Thonhauser et al., PRL 115, 136402 (2015).                      %
     %   T. Thonhauser et al., PRB 76, 125112 (2007).                       %
     %   K. Berland et al., Rep. Prog. Phys. 78, 066501 (2015).             %
     %   D.C. Langreth et al., J. Phys.: Condens. Matter 21, 084203 (2009). %
     %                                                                      %
     %                                                                      %
     % If you are calculating the stress with vdW-DF, please also cite:     %
     %                                                                      %
     %   R. Sabatini et al., J. Phys.: Condens. Matter 24, 424209 (2012).   %
     %                                                                      %
     %%%%%%%%%%%%%%%%%%%%%%%%%%%%%%%%%%%%%%%%%%%%%%%%%%%%%%%%%%%%%%%%%%%%%%%%


     Starting wfcs are  334 randomized atomic wfcs
     Checking if some PAW data can be deallocated... 

     total cpu time spent up to now is      336.1 secs

     Self-consistent Calculation

     iteration #  1     ecut=    60.00 Ry     beta= 0.70
     Davidson diagonalization with overlap
     ethr =  1.00E-02,  avg # of iterations =  2.0

     Threshold (ethr) on eigenvalues was too large:
     Diagonalizing with lowered threshold

     Davidson diagonalization with overlap
     ethr =  5.33E-04,  avg # of iterations =  4.2

     negative rho (up, down):  1.076E-02 0.000E+00

     total cpu time spent up to now is     1699.1 secs

     total energy              =  -27794.38719887 Ry
     estimated scf accuracy    <       2.19096414 Ry

     iteration #  2     ecut=    60.00 Ry     beta= 0.70
     Davidson diagonalization with overlap
     ethr =  5.92E-04,  avg # of iterations =  2.0

     negative rho (up, down):  9.371E-03 0.000E+00

     total cpu time spent up to now is     2301.3 secs

     total energy              =  -27794.46034768 Ry
     estimated scf accuracy    <       1.00729847 Ry

     iteration #  3     ecut=    60.00 Ry     beta= 0.70
     Davidson diagonalization with overlap
     ethr =  2.72E-04,  avg # of iterations =  4.5

     negative rho (up, down):  5.754E-03 0.000E+00

     total cpu time spent up to now is     2912.1 secs

     total energy              =  -27794.48353264 Ry
     estimated scf accuracy    <       0.23681487 Ry

     iteration #  4     ecut=    60.00 Ry     beta= 0.70
     Davidson diagonalization with overlap
     c_bands:  1 eigenvalues not converged
     ethr =  6.40E-05,  avg # of iterations = 11.6

     negative rho (up, down):  3.653E-03 0.000E+00

     total cpu time spent up to now is     3799.3 secs

     total energy              =  -27794.53988798 Ry
     estimated scf accuracy    <       0.06187313 Ry

     iteration #  5     ecut=    60.00 Ry     beta= 0.70
     Davidson diagonalization with overlap
     ethr =  1.67E-05,  avg # of iterations =  7.9

     negative rho (up, down):  3.185E-03 0.000E+00

     total cpu time spent up to now is     4508.7 secs

     total energy              =  -27794.54627758 Ry
     estimated scf accuracy    <       0.02376664 Ry

     iteration #  6     ecut=    60.00 Ry     beta= 0.70
     Davidson diagonalization with overlap
     c_bands:  1 eigenvalues not converged
     ethr =  6.42E-06,  avg # of iterations = 11.0

     negative rho (up, down):  3.621E-03 0.000E+00

     total cpu time spent up to now is     5248.2 secs

     total energy              =  -27794.54685614 Ry
     estimated scf accuracy    <       0.01844813 Ry

     iteration #  7     ecut=    60.00 Ry     beta= 0.70
     Davidson diagonalization with overlap
     c_bands:  1 eigenvalues not converged
     c_bands:  2 eigenvalues not converged
     c_bands:  1 eigenvalues not converged
     c_bands:  1 eigenvalues not converged
     ethr =  4.99E-06,  avg # of iterations = 15.5

     negative rho (up, down):  7.570E-03 0.000E+00

     total cpu time spent up to now is     5998.3 secs

     total energy              =  -27794.54755803 Ry
     estimated scf accuracy    <       0.00490421 Ry

     iteration #  8     ecut=    60.00 Ry     beta= 0.70
     Davidson diagonalization with overlap
     c_bands:  1 eigenvalues not converged
     c_bands:  1 eigenvalues not converged
     c_bands:  1 eigenvalues not converged
     c_bands:  2 eigenvalues not converged
     c_bands:  2 eigenvalues not converged
     c_bands:  2 eigenvalues not converged
     c_bands:  1 eigenvalues not converged
     c_bands:  1 eigenvalues not converged
     ethr =  1.33E-06,  avg # of iterations = 18.2

     negative rho (up, down):  2.012E-02 0.000E+00

     total cpu time spent up to now is     6863.7 secs

     total energy              =  -27794.54796688 Ry
     estimated scf accuracy    <       0.00325821 Ry

     iteration #  9     ecut=    60.00 Ry     beta= 0.70
     Davidson diagonalization with overlap
     ethr =  8.81E-07,  avg # of iterations = 12.7

     negative rho (up, down):  1.864E-02 0.000E+00

     total cpu time spent up to now is     7577.4 secs

     total energy              =  -27794.54812693 Ry
     estimated scf accuracy    <       0.00078660 Ry

     iteration # 10     ecut=    60.00 Ry     beta= 0.70
     Davidson diagonalization with overlap
     ethr =  2.13E-07,  avg # of iterations =  4.1

     negative rho (up, down):  1.918E-02 0.000E+00

     total cpu time spent up to now is     8258.6 secs

     total energy              =  -27794.54818487 Ry
     estimated scf accuracy    <       0.00146976 Ry

     iteration # 11     ecut=    60.00 Ry     beta= 0.70
     Davidson diagonalization with overlap
     ethr =  2.13E-07,  avg # of iterations =  3.3

     negative rho (up, down):  1.676E-02 0.000E+00

     total cpu time spent up to now is     8860.2 secs

     total energy              =  -27794.54811862 Ry
     estimated scf accuracy    <       0.00038719 Ry

     iteration # 12     ecut=    60.00 Ry     beta= 0.70
     Davidson diagonalization with overlap
     c_bands:  1 eigenvalues not converged
     c_bands:  1 eigenvalues not converged
     c_bands:  1 eigenvalues not converged
     ethr =  1.05E-07,  avg # of iterations = 12.0

     negative rho (up, down):  1.630E-02 0.000E+00

     total cpu time spent up to now is     9525.7 secs

     total energy              =  -27794.54810521 Ry
     estimated scf accuracy    <       0.00022150 Ry

     iteration # 13     ecut=    60.00 Ry     beta= 0.70
     Davidson diagonalization with overlap
     c_bands:  1 eigenvalues not converged
     c_bands:  1 eigenvalues not converged
     ethr =  5.99E-08,  avg # of iterations =  4.8

     negative rho (up, down):  1.582E-02 0.000E+00

     total cpu time spent up to now is    10140.5 secs

     total energy              =  -27794.54810997 Ry
     estimated scf accuracy    <       0.00004063 Ry

     iteration # 14     ecut=    60.00 Ry     beta= 0.70
     Davidson diagonalization with overlap
     c_bands:  1 eigenvalues not converged
     c_bands:  1 eigenvalues not converged
     ethr =  1.10E-08,  avg # of iterations =  6.5

     negative rho (up, down):  1.530E-02 0.000E+00

     total cpu time spent up to now is    10967.2 secs

     total energy              =  -27794.54811843 Ry
     estimated scf accuracy    <       0.00002900 Ry

     iteration # 15     ecut=    60.00 Ry     beta= 0.70
     Davidson diagonalization with overlap
     c_bands:  1 eigenvalues not converged
     c_bands:  1 eigenvalues not converged
     ethr =  7.84E-09,  avg # of iterations =  5.3

     negative rho (up, down):  1.435E-02 0.000E+00

     total cpu time spent up to now is    11566.1 secs

     total energy              =  -27794.54811521 Ry
     estimated scf accuracy    <       0.00001677 Ry

     iteration # 16     ecut=    60.00 Ry     beta= 0.70
     Davidson diagonalization with overlap
     ethr =  4.53E-09,  avg # of iterations =  2.5

     negative rho (up, down):  1.356E-02 0.000E+00

     total cpu time spent up to now is    12147.5 secs

     total energy              =  -27794.54811321 Ry
     estimated scf accuracy    <       0.00001632 Ry

     iteration # 17     ecut=    60.00 Ry     beta= 0.70
     Davidson diagonalization with overlap
     ethr =  4.41E-09,  avg # of iterations =  2.0

     negative rho (up, down):  1.312E-02 0.000E+00

     total cpu time spent up to now is    12726.6 secs

     total energy              =  -27794.54811317 Ry
     estimated scf accuracy    <       0.00001101 Ry

     iteration # 18     ecut=    60.00 Ry     beta= 0.70
     Davidson diagonalization with overlap
     ethr =  2.98E-09,  avg # of iterations =  1.2

     negative rho (up, down):  1.250E-02 0.000E+00

     total cpu time spent up to now is    13266.0 secs

     total energy              =  -27794.54811216 Ry
     estimated scf accuracy    <       0.00000530 Ry

     iteration # 19     ecut=    60.00 Ry     beta= 0.70
     Davidson diagonalization with overlap
     ethr =  1.43E-09,  avg # of iterations =  2.8

     negative rho (up, down):  1.234E-02 0.000E+00

     total cpu time spent up to now is    13850.6 secs

     total energy              =  -27794.54811228 Ry
     estimated scf accuracy    <       0.00000411 Ry

     iteration # 20     ecut=    60.00 Ry     beta= 0.70
     Davidson diagonalization with overlap
     ethr =  1.11E-09,  avg # of iterations =  1.1

     negative rho (up, down):  1.207E-02 0.000E+00

     total cpu time spent up to now is    14387.3 secs

     total energy              =  -27794.54811240 Ry
     estimated scf accuracy    <       0.00000298 Ry

     iteration # 21     ecut=    60.00 Ry     beta= 0.70
     Davidson diagonalization with overlap
     ethr =  8.06E-10,  avg # of iterations =  1.4

     negative rho (up, down):  1.186E-02 0.000E+00

     total cpu time spent up to now is    14917.9 secs

     End of self-consistent calculation

          k = 0.0000 0.0000 0.0000 ( 90475 PWs)   bands (ev):

   -11.9955  -7.3532  -7.1638  -5.8532  -5.4918  -4.7748  -4.7421  -4.7415
    -4.7414  -4.7409  -4.7408  -4.7407  -4.7278  -4.1830  -4.1829  -4.1828
    -4.1823  -4.1823  -4.1821  -3.7088  -3.7083  -3.7081  -3.7078  -3.7077
    -3.7076  -3.4929  -3.4924  -3.4924  -3.4917  -3.4916  -3.4914  -3.2666
    -3.2658  -3.2604  -3.2597  -3.2443  -3.2442  -3.2438  -3.2438  -3.2434
    -3.2434  -3.2296  -3.2296  -2.6477  -2.6473  -2.6157  -2.6156  -2.5590
    -2.5585  -2.5583  -2.5580  -2.5578  -2.5577  -2.4209  -2.4209  -2.3191
    -2.3188  -1.8124  -1.8109  -1.8105  -1.8098  -1.8093  -1.8089  -1.7441
    -1.6566  -1.6566  -1.6243  -1.6239  -1.6117  -1.6116  -1.6015  -1.5927
    -1.5921  -1.5919  -1.5909  -1.5904  -1.5904  -1.5550  -1.5549  -1.4002
    -1.3969  -1.3960  -1.3948  -1.3944  -1.3943  -1.2452  -1.2442  -1.2429
    -1.2425  -1.2422  -1.2422  -1.1434  -1.1433  -1.0450  -1.0449  -0.9817
    -0.9810  -0.9781  -0.9730  -0.9362  -0.9347  -0.9324  -0.9248  -0.8484
    -0.7794  -0.7725  -0.7718  -0.7690  -0.7689  -0.7665  -0.4165  -0.3576
    -0.2766  -0.2751  -0.2745  -0.2740  -0.2735  -0.2733  -0.2019  -0.2001
    -0.1997  -0.1993  -0.1774  -0.1631  -0.1269  -0.1262   0.0425   0.0440
     0.0444   0.0450   0.0613   0.0981   0.1873   0.1905   0.1916   0.1917
     0.1999   0.2003   0.4556   0.4561   0.4566   0.4568   0.4572   0.4574
     0.5363   0.5366   0.7149   0.7175   0.7193   0.7196   0.7223   0.7303
     0.8896   0.8904   0.8906   0.8908   0.8908   0.8916   0.9284   0.9322
     0.9348   0.9353   0.9431   0.9630   1.0630   1.0673   1.0863   1.0866
     1.0876   1.0881   1.0881   1.0885   1.1935   1.1937   1.1943   1.1946
     1.1951   1.1957   1.2001   1.2002   1.2964   1.2975   1.2976   1.2981
     1.2982   1.2986   1.3976   1.4009   1.4071   1.4089   1.4093   1.4105
     1.5344   1.6264   1.6264   1.7338   1.7348   1.7353   1.7355   1.7359
     1.7362   2.5760   2.6091   2.6174   2.6212   2.6214   2.6375   2.7069
     4.9068   4.9348   4.9403   4.9487   4.9755   5.0049   6.1862   6.3812
     6.4214   6.4909   6.5465   6.5482   6.5509   6.6045

          k = 0.0000 0.2309 0.0000 ( 90430 PWs)   bands (ev):

   -11.9955  -7.3532  -7.0168  -5.7091  -5.4909  -5.2569  -4.8575  -4.8573
    -4.6273  -4.5919  -4.5508  -4.5070  -4.5068  -4.2975  -4.2784  -4.1217
    -4.1216  -4.1011  -4.1009  -3.8249  -3.6899  -3.6898  -3.6604  -3.6507
    -3.5915  -3.5915  -3.5220  -3.5220  -3.5202  -3.5201  -3.4324  -3.4144
    -3.4143  -3.2925  -3.2914  -3.2910  -3.2293  -3.2292  -3.0738  -3.0737
    -3.0375  -3.0374  -3.0098  -2.7722  -2.7722  -2.7292  -2.6845  -2.6845
    -2.6397  -2.6397  -2.4629  -2.4628  -2.3946  -2.3943  -2.3503  -2.3161
    -2.3159  -2.1127  -2.0160  -2.0159  -1.9304  -1.9298  -1.8903  -1.8517
    -1.8135  -1.8124  -1.7940  -1.7703  -1.7702  -1.7253  -1.6510  -1.6359
    -1.6198  -1.6195  -1.5515  -1.5278  -1.5276  -1.4752  -1.4620  -1.4603
    -1.3925  -1.3605  -1.3386  -1.3374  -1.3372  -1.2465  -1.2448  -1.2350
    -1.2347  -1.2204  -1.1460  -1.1452  -1.1326  -1.1201  -1.0600  -1.0513
    -1.0486  -1.0004  -0.9984  -0.9586  -0.9584  -0.9443  -0.8892  -0.8088
    -0.7779  -0.7702  -0.7674  -0.7648  -0.7463  -0.7303  -0.7302  -0.6872
    -0.6750  -0.6486  -0.6464  -0.4727  -0.3669  -0.3632  -0.3161  -0.3040
    -0.2555  -0.2465  -0.2429  -0.2407  -0.2182  -0.2127  -0.0572  -0.0451
    -0.0356   0.0698   0.1003   0.1088   0.1155   0.1227   0.2235   0.2247
     0.2348   0.2447   0.3205   0.3308   0.3321   0.3610   0.3623   0.5512
     0.5748   0.5854   0.5875   0.5893   0.6210   0.6266   0.7031   0.7177
     0.7365   0.7642   0.7961   0.8296   0.8309   0.8312   0.8348   0.9435
     0.9515   0.9738   0.9782   1.0730   1.1229   1.1257   1.1322   1.1341
     1.1553   1.1962   1.2158   1.2631   1.2642   1.3215   1.3252   1.3299
     1.3762   1.3797   1.3803   1.3847   1.3855   1.3920   1.4589   1.4604
     1.6200   1.6220   1.6333   1.6486   1.6584   1.6592   1.6973   1.7364
     1.7377   1.7545   1.8524   1.8533   1.8778   2.0361   2.0403   2.0405
     2.0852   2.1307   2.4863   2.5070   3.2021   3.2089   3.2790   3.3777
     4.2381   4.6571   4.6938   5.3569   5.3590   5.4634   5.5218   5.7930
     6.2728   6.2893   6.3415   6.4727   6.5551   6.5611

          k = 0.0000 0.4619 0.0000 ( 90398 PWs)   bands (ev):

   -11.9955  -7.3532  -6.5937  -5.9586  -5.4950  -5.2980  -4.8914  -4.8912
    -4.7442  -4.5246  -4.3699  -4.2388  -4.1998  -4.1657  -4.1656  -3.9806
    -3.9805  -3.9507  -3.9419  -3.9418  -3.8179  -3.7838  -3.7838  -3.7313
    -3.7313  -3.6663  -3.6403  -3.5936  -3.5935  -3.5563  -3.3200  -3.3200
    -3.3016  -3.3016  -3.3005  -3.3004  -3.0758  -3.0753  -3.0136  -3.0135
    -3.0029  -3.0028  -2.8218  -2.7178  -2.7176  -2.7083  -2.7079  -2.6416
    -2.6415  -2.5938  -2.5781  -2.5778  -2.4970  -2.4969  -2.3694  -2.3693
    -2.3157  -2.3157  -2.2222  -2.1846  -2.1397  -2.1393  -2.1375  -1.9982
    -1.9200  -1.9090  -1.8960  -1.8948  -1.8063  -1.8063  -1.7833  -1.6711
    -1.6709  -1.6498  -1.6488  -1.5284  -1.5266  -1.5260  -1.5257  -1.5209
    -1.4466  -1.4317  -1.4306  -1.4270  -1.4014  -1.3978  -1.3961  -1.3799
    -1.3391  -1.2749  -1.2549  -1.2545  -1.2463  -1.2045  -1.2038  -1.1791
    -1.1015  -1.0342  -1.0007  -0.9983  -0.9625  -0.9570  -0.9264  -0.9188
    -0.9166  -0.7870  -0.7838  -0.7748  -0.7159  -0.7051  -0.6555  -0.5816
    -0.5195  -0.5114  -0.4608  -0.4355  -0.3706  -0.3495  -0.3344  -0.3321
    -0.3173  -0.3108  -0.3041  -0.2962  -0.2189  -0.2057  -0.1831  -0.1807
    -0.1603  -0.1538  -0.1411  -0.1263  -0.0893  -0.0292   0.0232   0.0581
     0.0630   0.1288   0.2147   0.2199   0.2289   0.3585   0.3600   0.4356
     0.4972   0.5230   0.5277   0.5555   0.5765   0.6144   0.6155   0.6690
     0.6812   0.7215   0.7234   0.7860   0.8265   0.8322   0.8822   0.8870
     0.8968   0.8984   0.9814   1.0761   1.0900   1.1662   1.1794   1.1799
     1.1855   1.2815   1.2869   1.2886   1.3801   1.3881   1.3888   1.3941
     1.4638   1.4845   1.4864   1.4966   1.6174   1.6186   1.6426   1.6435
     1.6511   1.6528   1.6735   1.6807   1.8447   1.8865   1.8876   1.8937
     1.8953   2.0849   2.1206   2.4959   2.5109   2.5658   2.8252   2.9339
     2.9348   3.3346   3.3383   3.5437   3.6721   4.1461   4.1469   4.1730
     4.3295   4.4072   4.4361   4.5566   4.5929   4.8138   4.8215   5.4507
     5.4754   5.9282   5.9890   6.2558   6.4522   6.5254

          k = 0.2000-0.1155 0.0000 ( 90430 PWs)   bands (ev):

   -11.9955  -7.3537  -7.0168  -5.7089  -5.4902  -5.2570  -4.8576  -4.8572
    -4.6273  -4.5919  -4.5507  -4.5070  -4.5068  -4.2974  -4.2784  -4.1217
    -4.1216  -4.1012  -4.1009  -3.8250  -3.6899  -3.6897  -3.6602  -3.6505
    -3.5916  -3.5915  -3.5220  -3.5219  -3.5204  -3.5201  -3.4323  -3.4146
    -3.4141  -3.2925  -3.2914  -3.2910  -3.2295  -3.2292  -3.0741  -3.0734
    -3.0376  -3.0374  -3.0098  -2.7722  -2.7722  -2.7292  -2.6846  -2.6843
    -2.6397  -2.6396  -2.4630  -2.4628  -2.3946  -2.3943  -2.3502  -2.3161
    -2.3158  -2.1127  -2.0163  -2.0158  -1.9305  -1.9298  -1.8903  -1.8518
    -1.8132  -1.8128  -1.7940  -1.7706  -1.7701  -1.7252  -1.6509  -1.6360
    -1.6198  -1.6197  -1.5515  -1.5277  -1.5275  -1.4751  -1.4622  -1.4603
    -1.3925  -1.3605  -1.3388  -1.3378  -1.3369  -1.2462  -1.2450  -1.2355
    -1.2343  -1.2203  -1.1467  -1.1452  -1.1322  -1.1200  -1.0579  -1.0514
    -1.0486  -0.9999  -0.9983  -0.9589  -0.9583  -0.9443  -0.8894  -0.8068
    -0.7773  -0.7723  -0.7683  -0.7666  -0.7437  -0.7309  -0.7301  -0.6852
    -0.6811  -0.6484  -0.6473  -0.4602  -0.3723  -0.3629  -0.3273  -0.3036
    -0.2520  -0.2482  -0.2419  -0.2390  -0.2165  -0.2107  -0.0571  -0.0421
    -0.0371   0.0640   0.1035   0.1095   0.1159   0.1227   0.2236   0.2247
     0.2373   0.2434   0.3205   0.3313   0.3318   0.3614   0.3617   0.5514
     0.5734   0.5861   0.5871   0.5893   0.6151   0.6241   0.7086   0.7196
     0.7366   0.7642   0.7961   0.8304   0.8312   0.8316   0.8356   0.9456
     0.9508   0.9744   0.9773   1.0676   1.1241   1.1258   1.1329   1.1338
     1.1553   1.1963   1.2150   1.2635   1.2644   1.3225   1.3252   1.3300
     1.3764   1.3794   1.3803   1.3849   1.3855   1.3906   1.4590   1.4607
     1.6208   1.6220   1.6333   1.6487   1.6582   1.6593   1.6973   1.7369
     1.7378   1.7545   1.8526   1.8534   1.8778   2.0355   2.0403   2.0410
     2.0782   2.1277   2.4938   2.5106   3.2056   3.2146   3.2737   3.3673
     4.2231   4.6745   4.7008   5.3575   5.3580   5.4846   5.5227   5.7464
     6.2170   6.2674   6.3220   6.3643   6.5142   6.6814

          k = 0.2000 0.1155 0.0000 ( 90430 PWs)   bands (ev):

   -11.9955  -7.3537  -7.0168  -5.7089  -5.4902  -5.2570  -4.8576  -4.8572
    -4.6273  -4.5919  -4.5507  -4.5070  -4.5068  -4.2974  -4.2784  -4.1217
    -4.1216  -4.1012  -4.1009  -3.8250  -3.6899  -3.6897  -3.6602  -3.6505
    -3.5916  -3.5915  -3.5220  -3.5219  -3.5204  -3.5201  -3.4323  -3.4146
    -3.4142  -3.2925  -3.2914  -3.2910  -3.2294  -3.2292  -3.0741  -3.0734
    -3.0376  -3.0374  -3.0098  -2.7723  -2.7722  -2.7292  -2.6846  -2.6843
    -2.6397  -2.6396  -2.4630  -2.4628  -2.3946  -2.3943  -2.3502  -2.3161
    -2.3158  -2.1127  -2.0162  -2.0158  -1.9305  -1.9299  -1.8903  -1.8518
    -1.8132  -1.8128  -1.7940  -1.7706  -1.7701  -1.7252  -1.6509  -1.6360
    -1.6198  -1.6197  -1.5515  -1.5276  -1.5275  -1.4751  -1.4622  -1.4603
    -1.3925  -1.3604  -1.3388  -1.3378  -1.3369  -1.2462  -1.2450  -1.2355
    -1.2343  -1.2203  -1.1467  -1.1452  -1.1322  -1.1200  -1.0579  -1.0514
    -1.0486  -0.9999  -0.9983  -0.9589  -0.9583  -0.9443  -0.8894  -0.8068
    -0.7773  -0.7723  -0.7683  -0.7666  -0.7438  -0.7309  -0.7301  -0.6852
    -0.6811  -0.6484  -0.6473  -0.4604  -0.3721  -0.3630  -0.3272  -0.3036
    -0.2521  -0.2482  -0.2419  -0.2390  -0.2165  -0.2106  -0.0571  -0.0420
    -0.0371   0.0640   0.1034   0.1095   0.1159   0.1228   0.2237   0.2247
     0.2373   0.2434   0.3205   0.3313   0.3318   0.3613   0.3617   0.5514
     0.5734   0.5861   0.5871   0.5893   0.6151   0.6240   0.7085   0.7196
     0.7366   0.7642   0.7961   0.8304   0.8312   0.8316   0.8356   0.9456
     0.9509   0.9744   0.9773   1.0676   1.1241   1.1258   1.1330   1.1338
     1.1554   1.1963   1.2150   1.2635   1.2644   1.3224   1.3251   1.3300
     1.3764   1.3794   1.3803   1.3849   1.3855   1.3906   1.4590   1.4607
     1.6208   1.6220   1.6333   1.6487   1.6582   1.6593   1.6973   1.7368
     1.7378   1.7545   1.8526   1.8534   1.8778   2.0355   2.0403   2.0410
     2.0782   2.1277   2.4937   2.5106   3.2056   3.2146   3.2737   3.3674
     4.2231   4.6744   4.7008   5.3575   5.3580   5.4846   5.5228   5.7464
     6.2172   6.2671   6.3221   6.3640   6.5146   6.6813

          k = 0.2000 0.3464 0.0000 ( 90424 PWs)   bands (ev):

   -11.9955  -7.3537  -6.7310  -5.5110  -5.5047  -5.4922  -5.4232  -4.4281
    -4.4280  -4.3942  -4.3940  -4.3543  -4.3535  -4.3492  -4.3324  -4.2380
    -4.2375  -3.8483  -3.8480  -3.8458  -3.8455  -3.7812  -3.7592  -3.6176
    -3.5889  -3.5885  -3.5587  -3.5583  -3.4958  -3.4397  -3.4387  -3.3957
    -3.3954  -3.3578  -3.3092  -3.3083  -3.2657  -3.2651  -3.1906  -2.9170
    -2.8140  -2.8137  -2.8029  -2.7798  -2.7792  -2.7616  -2.7614  -2.7076
    -2.6895  -2.5289  -2.5284  -2.5184  -2.4429  -2.4157  -2.3662  -2.3661
    -2.3411  -2.2607  -2.2598  -2.0879  -2.0868  -2.0702  -1.9852  -1.9847
    -1.9544  -1.9534  -1.9470  -1.8742  -1.8734  -1.7211  -1.6978  -1.6970
    -1.6909  -1.6288  -1.6280  -1.5621  -1.5607  -1.5586  -1.5581  -1.4304
    -1.3926  -1.3919  -1.3828  -1.3810  -1.3744  -1.3589  -1.3313  -1.3122
    -1.2390  -1.2375  -1.2117  -1.2074  -1.1457  -1.1446  -1.0791  -1.0587
    -1.0195  -1.0159  -1.0137  -0.9700  -0.9634  -0.9628  -0.9480  -0.9408
    -0.9167  -0.9108  -0.9039  -0.8430  -0.8402  -0.7380  -0.7159  -0.6959
    -0.6512  -0.6237  -0.6185  -0.6156  -0.4694  -0.4339  -0.4186  -0.3492
    -0.2869  -0.2697  -0.2325  -0.2283  -0.2035  -0.2012  -0.1881  -0.1522
    -0.1464  -0.1215  -0.0960  -0.0578  -0.0315   0.0817   0.1586   0.1627
     0.2102   0.2124   0.2429   0.2680   0.2811   0.4056   0.4118   0.4211
     0.4661   0.4673   0.5529   0.5987   0.6198   0.6269   0.6310   0.7016
     0.7071   0.7097   0.7223   0.7258   0.7499   0.7506   0.7621   0.7670
     0.9007   0.9621   0.9696   1.1020   1.1075   1.1227   1.2685   1.2723
     1.2736   1.2770   1.3794   1.4113   1.4178   1.4229   1.4239   1.4619
     1.4639   1.4873   1.4926   1.4947   1.5538   1.5581   1.5749   1.6419
     1.6687   1.6696   1.7052   1.7055   1.7492   1.8838   1.9360   1.9374
     2.0173   2.0209   2.0214   2.0458   2.1733   2.1744   2.6334   2.7002
     2.7020   3.2392   3.2400   3.2681   3.2800   3.9488   3.9841   4.0646
     4.1577   4.2087   4.2228   4.8679   5.3464   5.3808   5.4126   5.5885
     5.9987   6.0708   6.1287   6.1729   6.1929   6.2308

          k = 0.2000-0.5774 0.0000 ( 90442 PWs)   bands (ev):

   -11.9955  -7.3537  -6.1962  -6.1952  -5.5879  -5.4926  -4.9336  -4.9333
    -4.4243  -4.4185  -4.2892  -4.2556  -4.1458  -4.1456  -4.0381  -4.0376
    -3.9124  -3.9116  -3.9103  -3.8735  -3.8732  -3.8405  -3.8390  -3.7148
    -3.7042  -3.7040  -3.6607  -3.6605  -3.5578  -3.4650  -3.4480  -3.3827
    -3.2882  -3.2880  -3.2698  -3.2693  -3.2543  -3.1399  -3.1394  -3.0463
    -3.0456  -2.8720  -2.8638  -2.8038  -2.7031  -2.7027  -2.6518  -2.6516
    -2.5437  -2.4938  -2.4446  -2.4437  -2.4230  -2.3796  -2.3786  -2.3485
    -2.2428  -2.2421  -2.2126  -2.2122  -2.2042  -2.2026  -2.2024  -2.1288
    -2.1279  -1.9983  -1.9734  -1.9253  -1.9244  -1.8063  -1.7679  -1.7669
    -1.7668  -1.7211  -1.6773  -1.6767  -1.5907  -1.5634  -1.5622  -1.5576
    -1.5275  -1.4966  -1.4436  -1.4435  -1.4034  -1.3470  -1.3444  -1.3264
    -1.3235  -1.2146  -1.1666  -1.1661  -1.1199  -1.1188  -1.0790  -1.0774
    -1.0632  -1.0613  -1.0294  -1.0286  -0.9838  -0.9781  -0.9451  -0.9321
    -0.9304  -0.9275  -0.9268  -0.9088  -0.8793  -0.8231  -0.8105  -0.8091
    -0.6323  -0.5982  -0.5219  -0.4971  -0.4889  -0.3904  -0.3866  -0.3732
    -0.3595  -0.3477  -0.2861  -0.2839  -0.2835  -0.2508  -0.2394  -0.1719
    -0.1417  -0.1416  -0.0730  -0.0434  -0.0265   0.0161   0.0446   0.0803
     0.2072   0.2673   0.2691   0.2896   0.2910   0.3831   0.3882   0.3895
     0.4107   0.4277   0.4504   0.4669   0.4760   0.5873   0.5880   0.5992
     0.6543   0.6552   0.6765   0.6853   0.7016   0.7174   0.8634   0.9135
     0.9413   1.0211   1.0320   1.1038   1.1049   1.1903   1.2303   1.2368
     1.2389   1.3456   1.3465   1.4183   1.4497   1.4577   1.4654   1.4691
     1.5147   1.5207   1.5500   1.6262   1.6270   1.6506   1.6778   1.6797
     1.6851   1.7033   1.7443   1.8853   1.8909   1.8919   1.8922   1.8931
     1.9683   2.0368   2.0819   2.2223   3.0414   3.0416   3.2810   3.2948
     3.3311   3.4447   3.4480   3.4539   3.8932   4.0528   4.0536   4.5131
     4.5363   4.5379   4.6576   4.6587   4.8745   4.9568   5.0501   5.1052
     5.3732   5.4860   5.4882   5.9838   6.1259   6.1323

          k = 0.2000-0.3464 0.0000 ( 90424 PWs)   bands (ev):

   -11.9955  -7.3537  -6.7310  -5.5110  -5.5047  -5.4922  -5.4232  -4.4282
    -4.4279  -4.3942  -4.3939  -4.3542  -4.3535  -4.3492  -4.3324  -4.2380
    -4.2375  -3.8483  -3.8480  -3.8458  -3.8455  -3.7812  -3.7592  -3.6176
    -3.5889  -3.5885  -3.5587  -3.5583  -3.4958  -3.4396  -3.4388  -3.3957
    -3.3954  -3.3578  -3.3092  -3.3083  -3.2657  -3.2651  -3.1907  -2.9170
    -2.8140  -2.8137  -2.8029  -2.7798  -2.7792  -2.7616  -2.7614  -2.7076
    -2.6895  -2.5289  -2.5284  -2.5184  -2.4429  -2.4157  -2.3662  -2.3661
    -2.3411  -2.2607  -2.2598  -2.0879  -2.0868  -2.0702  -1.9852  -1.9847
    -1.9544  -1.9534  -1.9470  -1.8742  -1.8734  -1.7211  -1.6978  -1.6970
    -1.6910  -1.6288  -1.6280  -1.5622  -1.5607  -1.5587  -1.5581  -1.4304
    -1.3926  -1.3919  -1.3828  -1.3810  -1.3744  -1.3589  -1.3313  -1.3122
    -1.2390  -1.2375  -1.2117  -1.2074  -1.1457  -1.1446  -1.0791  -1.0587
    -1.0196  -1.0159  -1.0137  -0.9700  -0.9633  -0.9628  -0.9480  -0.9408
    -0.9167  -0.9109  -0.9039  -0.8430  -0.8402  -0.7380  -0.7159  -0.6959
    -0.6512  -0.6237  -0.6185  -0.6156  -0.4694  -0.4339  -0.4186  -0.3493
    -0.2869  -0.2697  -0.2325  -0.2283  -0.2035  -0.2011  -0.1881  -0.1523
    -0.1464  -0.1215  -0.0960  -0.0578  -0.0315   0.0817   0.1586   0.1627
     0.2102   0.2124   0.2429   0.2680   0.2811   0.4056   0.4118   0.4211
     0.4661   0.4674   0.5529   0.5987   0.6198   0.6269   0.6310   0.7016
     0.7072   0.7097   0.7223   0.7258   0.7499   0.7506   0.7621   0.7670
     0.9007   0.9621   0.9696   1.1020   1.1075   1.1227   1.2685   1.2723
     1.2736   1.2770   1.3794   1.4113   1.4177   1.4229   1.4239   1.4619
     1.4639   1.4873   1.4926   1.4947   1.5538   1.5581   1.5749   1.6419
     1.6687   1.6696   1.7052   1.7055   1.7492   1.8838   1.9360   1.9374
     2.0173   2.0209   2.0214   2.0458   2.1733   2.1743   2.6334   2.7002
     2.7021   3.2392   3.2400   3.2681   3.2800   3.9488   3.9840   4.0646
     4.1577   4.2087   4.2228   4.8679   5.3464   5.3809   5.4126   5.5885
     5.9990   6.0709   6.1288   6.1729   6.1929   6.2309

          k = 0.4000-0.2309 0.0000 ( 90398 PWs)   bands (ev):

   -11.9955  -7.3544  -6.5936  -5.9584  -5.4926  -5.2985  -4.8915  -4.8911
    -4.7443  -4.5245  -4.3699  -4.2387  -4.1998  -4.1658  -4.1656  -3.9808
    -3.9805  -3.9508  -3.9420  -3.9418  -3.8179  -3.7841  -3.7836  -3.7314
    -3.7312  -3.6662  -3.6402  -3.5937  -3.5935  -3.5561  -3.3201  -3.3198
    -3.3018  -3.3016  -3.3006  -3.3004  -3.0759  -3.0754  -3.0138  -3.0135
    -3.0029  -3.0027  -2.8218  -2.7179  -2.7176  -2.7084  -2.7078  -2.6417
    -2.6414  -2.5938  -2.5784  -2.5776  -2.4971  -2.4967  -2.3694  -2.3693
    -2.3158  -2.3156  -2.2221  -2.1847  -2.1398  -2.1393  -2.1374  -1.9981
    -1.9200  -1.9091  -1.8958  -1.8952  -1.8069  -1.8060  -1.7833  -1.6714
    -1.6707  -1.6497  -1.6491  -1.5282  -1.5271  -1.5263  -1.5258  -1.5210
    -1.4465  -1.4313  -1.4308  -1.4270  -1.4006  -1.3989  -1.3962  -1.3798
    -1.3390  -1.2748  -1.2557  -1.2540  -1.2463  -1.2047  -1.2038  -1.1784
    -1.1014  -1.0342  -0.9987  -0.9982  -0.9628  -0.9585  -0.9265  -0.9184
    -0.9163  -0.7870  -0.7838  -0.7701  -0.7162  -0.7072  -0.6556  -0.5837
    -0.5224  -0.5125  -0.4515  -0.4355  -0.3900  -0.3472  -0.3357  -0.3338
    -0.3137  -0.3113  -0.2926  -0.2870  -0.2189  -0.2136  -0.1828  -0.1807
    -0.1592  -0.1547  -0.1271  -0.1211  -0.0910  -0.0400   0.0232   0.0595
     0.0618   0.1288   0.2123   0.2208   0.2258   0.3591   0.3601   0.4252
     0.4944   0.5244   0.5303   0.5557   0.5766   0.6147   0.6150   0.6729
     0.6827   0.7219   0.7232   0.7861   0.8279   0.8307   0.8834   0.8854
     0.8977   0.8986   0.9783   1.0812   1.0923   1.1663   1.1794   1.1800
     1.1855   1.2775   1.2874   1.2889   1.3815   1.3855   1.3907   1.3952
     1.4607   1.4855   1.4864   1.4966   1.6176   1.6191   1.6426   1.6436
     1.6511   1.6528   1.6735   1.6750   1.8447   1.8866   1.8874   1.8941
     1.8951   2.0849   2.1206   2.5028   2.5153   2.5645   2.8195   2.9341
     2.9345   3.3357   3.3376   3.5328   3.6716   4.1464   4.1467   4.1676
     4.3245   4.4159   4.4239   4.5748   4.6021   4.8163   4.8196   5.4399
     5.4443   5.9262   5.9726   6.2070   6.3297   6.5071

          k = 0.4000-0.0000 0.0000 ( 90424 PWs)   bands (ev):

   -11.9955  -7.3544  -6.7310  -5.5101  -5.5045  -5.4910  -5.4243  -4.4281
    -4.4279  -4.3944  -4.3938  -4.3541  -4.3537  -4.3492  -4.3324  -4.2380
    -4.2375  -3.8483  -3.8480  -3.8457  -3.8456  -3.7811  -3.7592  -3.6176
    -3.5889  -3.5885  -3.5586  -3.5583  -3.4959  -3.4396  -3.4389  -3.3956
    -3.3954  -3.3578  -3.3093  -3.3082  -3.2660  -3.2650  -3.1906  -2.9170
    -2.8142  -2.8138  -2.8031  -2.7798  -2.7792  -2.7618  -2.7612  -2.7075
    -2.6894  -2.5287  -2.5286  -2.5183  -2.4429  -2.4157  -2.3665  -2.3658
    -2.3410  -2.2605  -2.2600  -2.0876  -2.0872  -2.0703  -1.9856  -1.9844
    -1.9545  -1.9537  -1.9469  -1.8740  -1.8735  -1.7218  -1.6974  -1.6973
    -1.6908  -1.6287  -1.6279  -1.5623  -1.5609  -1.5591  -1.5581  -1.4304
    -1.3930  -1.3918  -1.3830  -1.3808  -1.3744  -1.3589  -1.3312  -1.3122
    -1.2387  -1.2378  -1.2113  -1.2073  -1.1457  -1.1444  -1.0786  -1.0583
    -1.0178  -1.0166  -1.0138  -0.9688  -0.9633  -0.9610  -0.9491  -0.9408
    -0.9153  -0.9096  -0.9084  -0.8437  -0.8397  -0.7377  -0.7054  -0.7048
    -0.6544  -0.6234  -0.6168  -0.6153  -0.4720  -0.4348  -0.4216  -0.3500
    -0.2855  -0.2700  -0.2299  -0.2144  -0.2085  -0.2008  -0.1885  -0.1523
    -0.1504  -0.1175  -0.1023  -0.0584  -0.0319   0.0817   0.1630   0.1641
     0.2090   0.2120   0.2417   0.2673   0.2811   0.4088   0.4113   0.4179
     0.4673   0.4683   0.5509   0.6028   0.6174   0.6275   0.6286   0.6987
     0.7078   0.7082   0.7249   0.7273   0.7494   0.7504   0.7622   0.7668
     0.8995   0.9626   0.9661   1.1030   1.1055   1.1250   1.2716   1.2724
     1.2744   1.2782   1.3773   1.4107   1.4177   1.4233   1.4247   1.4617
     1.4631   1.4886   1.4921   1.4938   1.5549   1.5571   1.5747   1.6412
     1.6689   1.6704   1.7052   1.7054   1.7494   1.8835   1.9356   1.9368
     2.0205   2.0214   2.0243   2.0381   2.1733   2.1753   2.6294   2.7000
     2.7016   3.2390   3.2397   3.2766   3.2830   3.9568   3.9666   4.0641
     4.1577   4.2078   4.2146   4.8657   5.3465   5.4140   5.4190   5.5891
     5.9624   6.0282   6.0990   6.1207   6.1767   6.1992

          k = 0.4000 0.2309 0.0000 ( 90398 PWs)   bands (ev):

   -11.9955  -7.3544  -6.5936  -5.9584  -5.4926  -5.2985  -4.8916  -4.8911
    -4.7443  -4.5245  -4.3699  -4.2387  -4.1998  -4.1658  -4.1656  -3.9808
    -3.9804  -3.9508  -3.9419  -3.9418  -3.8179  -3.7841  -3.7836  -3.7314
    -3.7312  -3.6662  -3.6402  -3.5937  -3.5935  -3.5561  -3.3201  -3.3198
    -3.3018  -3.3016  -3.3006  -3.3004  -3.0759  -3.0754  -3.0138  -3.0135
    -3.0029  -3.0028  -2.8218  -2.7179  -2.7176  -2.7084  -2.7078  -2.6417
    -2.6414  -2.5938  -2.5784  -2.5776  -2.4971  -2.4967  -2.3694  -2.3693
    -2.3158  -2.3156  -2.2222  -2.1847  -2.1398  -2.1393  -2.1374  -1.9981
    -1.9200  -1.9091  -1.8958  -1.8952  -1.8068  -1.8060  -1.7833  -1.6714
    -1.6706  -1.6497  -1.6490  -1.5282  -1.5271  -1.5263  -1.5257  -1.5210
    -1.4466  -1.4313  -1.4308  -1.4270  -1.4006  -1.3989  -1.3962  -1.3798
    -1.3390  -1.2748  -1.2556  -1.2540  -1.2463  -1.2047  -1.2038  -1.1784
    -1.1013  -1.0341  -0.9987  -0.9981  -0.9628  -0.9585  -0.9266  -0.9183
    -0.9163  -0.7870  -0.7838  -0.7701  -0.7162  -0.7072  -0.6556  -0.5838
    -0.5224  -0.5125  -0.4515  -0.4355  -0.3900  -0.3471  -0.3356  -0.3339
    -0.3137  -0.3113  -0.2927  -0.2870  -0.2189  -0.2136  -0.1828  -0.1807
    -0.1592  -0.1547  -0.1271  -0.1211  -0.0911  -0.0400   0.0232   0.0595
     0.0618   0.1288   0.2123   0.2208   0.2258   0.3591   0.3601   0.4252
     0.4944   0.5243   0.5302   0.5557   0.5766   0.6147   0.6150   0.6729
     0.6827   0.7219   0.7232   0.7861   0.8279   0.8307   0.8834   0.8854
     0.8977   0.8986   0.9783   1.0812   1.0923   1.1663   1.1794   1.1800
     1.1855   1.2776   1.2874   1.2889   1.3815   1.3855   1.3907   1.3952
     1.4607   1.4855   1.4864   1.4966   1.6176   1.6191   1.6426   1.6436
     1.6511   1.6527   1.6735   1.6751   1.8447   1.8866   1.8874   1.8941
     1.8951   2.0849   2.1206   2.5028   2.5153   2.5644   2.8195   2.9341
     2.9345   3.3357   3.3376   3.5328   3.6716   4.1464   4.1467   4.1676
     4.3245   4.4159   4.4240   4.5748   4.6021   4.8163   4.8197   5.4399
     5.4443   5.9263   5.9727   6.2072   6.3293   6.5071

          k = 0.4000-0.6928 0.0000 ( 90442 PWs)   bands (ev):

   -11.9955  -7.3544  -6.1961  -6.1952  -5.5884  -5.4909  -4.9338  -4.9333
    -4.4242  -4.4186  -4.2892  -4.2556  -4.1459  -4.1456  -4.0381  -4.0376
    -3.9125  -3.9116  -3.9103  -3.8737  -3.8730  -3.8400  -3.8394  -3.7148
    -3.7043  -3.7039  -3.6607  -3.6606  -3.5577  -3.4648  -3.4481  -3.3828
    -3.2884  -3.2878  -3.2699  -3.2693  -3.2543  -3.1399  -3.1397  -3.0462
    -3.0457  -2.8721  -2.8639  -2.8038  -2.7029  -2.7028  -2.6518  -2.6516
    -2.5437  -2.4938  -2.4443  -2.4439  -2.4230  -2.3800  -2.3783  -2.3485
    -2.2426  -2.2423  -2.2125  -2.2123  -2.2040  -2.2027  -2.2024  -2.1288
    -2.1279  -1.9984  -1.9735  -1.9251  -1.9245  -1.8064  -1.7684  -1.7668
    -1.7665  -1.7212  -1.6772  -1.6769  -1.5908  -1.5633  -1.5624  -1.5577
    -1.5280  -1.4969  -1.4439  -1.4433  -1.4034  -1.3466  -1.3449  -1.3256
    -1.3238  -1.2145  -1.1666  -1.1660  -1.1203  -1.1190  -1.0784  -1.0778
    -1.0645  -1.0602  -1.0298  -1.0283  -0.9806  -0.9786  -0.9455  -0.9338
    -0.9299  -0.9277  -0.9264  -0.9092  -0.8795  -0.8159  -0.8111  -0.8098
    -0.6328  -0.5998  -0.5305  -0.4970  -0.4915  -0.3904  -0.3804  -0.3746
    -0.3687  -0.3386  -0.2857  -0.2850  -0.2702  -0.2563  -0.2366  -0.1644
    -0.1417  -0.1404  -0.0748  -0.0553  -0.0257   0.0078   0.0443   0.0890
     0.2080   0.2676   0.2701   0.2888   0.2901   0.3834   0.3875   0.3923
     0.4109   0.4217   0.4525   0.4673   0.4740   0.5842   0.5892   0.6001
     0.6545   0.6562   0.6789   0.6849   0.6988   0.7177   0.8638   0.9113
     0.9447   1.0190   1.0307   1.1040   1.1050   1.1899   1.2336   1.2373
     1.2409   1.3416   1.3490   1.4181   1.4502   1.4584   1.4665   1.4702
     1.5125   1.5218   1.5475   1.6264   1.6271   1.6510   1.6784   1.6792
     1.6808   1.7032   1.7433   1.8848   1.8909   1.8916   1.8923   1.8934
     1.9678   2.0417   2.0821   2.2227   3.0414   3.0416   3.2630   3.2998
     3.3378   3.4442   3.4472   3.4527   3.9035   4.0530   4.0539   4.5120
     4.5281   4.5439   4.6575   4.6596   4.8723   4.9545   5.0076   5.1159
     5.3947   5.4824   5.4966   5.9933   6.1106   6.1377

          k = 0.4000-0.4619 0.0000 ( 90442 PWs)   bands (ev):

   -11.9955  -7.3544  -6.1961  -6.1951  -5.5884  -5.4909  -4.9338  -4.9333
    -4.4242  -4.4186  -4.2892  -4.2556  -4.1459  -4.1456  -4.0381  -4.0376
    -3.9125  -3.9116  -3.9103  -3.8737  -3.8731  -3.8400  -3.8394  -3.7148
    -3.7043  -3.7039  -3.6607  -3.6606  -3.5577  -3.4648  -3.4481  -3.3828
    -3.2884  -3.2878  -3.2699  -3.2693  -3.2543  -3.1399  -3.1397  -3.0462
    -3.0457  -2.8721  -2.8638  -2.8038  -2.7029  -2.7028  -2.6518  -2.6516
    -2.5437  -2.4938  -2.4443  -2.4439  -2.4230  -2.3799  -2.3783  -2.3485
    -2.2426  -2.2423  -2.2125  -2.2123  -2.2040  -2.2027  -2.2024  -2.1288
    -2.1279  -1.9984  -1.9735  -1.9251  -1.9245  -1.8064  -1.7684  -1.7668
    -1.7666  -1.7212  -1.6773  -1.6770  -1.5908  -1.5633  -1.5624  -1.5576
    -1.5280  -1.4969  -1.4438  -1.4433  -1.4034  -1.3466  -1.3449  -1.3257
    -1.3238  -1.2145  -1.1666  -1.1659  -1.1203  -1.1190  -1.0784  -1.0778
    -1.0645  -1.0602  -1.0298  -1.0283  -0.9806  -0.9786  -0.9454  -0.9339
    -0.9299  -0.9277  -0.9263  -0.9092  -0.8794  -0.8160  -0.8111  -0.8098
    -0.6327  -0.5998  -0.5305  -0.4970  -0.4915  -0.3904  -0.3805  -0.3746
    -0.3687  -0.3386  -0.2857  -0.2850  -0.2701  -0.2563  -0.2366  -0.1644
    -0.1417  -0.1404  -0.0748  -0.0553  -0.0258   0.0078   0.0443   0.0890
     0.2080   0.2676   0.2701   0.2888   0.2901   0.3834   0.3876   0.3923
     0.4109   0.4217   0.4525   0.4672   0.4740   0.5842   0.5891   0.6001
     0.6545   0.6562   0.6789   0.6849   0.6988   0.7178   0.8639   0.9113
     0.9447   1.0190   1.0307   1.1040   1.1049   1.1899   1.2336   1.2373
     1.2409   1.3416   1.3489   1.4181   1.4502   1.4584   1.4665   1.4701
     1.5125   1.5218   1.5475   1.6264   1.6271   1.6509   1.6784   1.6792
     1.6808   1.7032   1.7433   1.8848   1.8909   1.8916   1.8923   1.8934
     1.9679   2.0417   2.0821   2.2227   3.0414   3.0416   3.2630   3.2998
     3.3379   3.4441   3.4472   3.4527   3.9035   4.0530   4.0539   4.5120
     4.5281   4.5439   4.6575   4.6596   4.8723   4.9545   5.0075   5.1160
     5.3948   5.4824   5.4966   5.9930   6.1100   6.1381

     the Fermi energy is     1.6583 ev

!    total energy              =  -27794.54811228 Ry

     total all-electron energy =  -1326796.841719 Ry
     estimated scf accuracy    <       0.00000095 Ry
     smearing contrib. (-TS)   =       0.00255976 Ry
     internal energy E=F+TS    =  -27794.55067204 Ry

     The total energy is F=E-TS. E is the sum of the following terms:
     one-electron contribution =  -27479.76051262 Ry
     hartree contribution      =   14039.18823161 Ry
     xc contribution           =    -900.87454988 Ry
     ewald contribution        =   12033.95861636 Ry
     one-center paw contrib.   =  -25487.06245750 Ry

     convergence has been achieved in  21 iterations

     negative rho (up, down):  1.186E-02 0.000E+00

     Forces acting on atoms (cartesian axes, Ry/au):

     atom    1 type  1   force =    -0.00027904    0.00001532   -0.00328029
     atom    2 type  1   force =     0.00001131   -0.00000412   -0.00300751
     atom    3 type  1   force =     0.00029400    0.00007903   -0.00328716
     atom    4 type  1   force =     0.00007181    0.00007081   -0.00317117
     atom    5 type  1   force =     0.00000182    0.00009826   -0.00314078
     atom    6 type  1   force =    -0.00004462   -0.00016599   -0.00310717
     atom    7 type  1   force =     0.00005576   -0.00000398   -0.00316684
     atom    8 type  1   force =    -0.00005329   -0.00000725   -0.00304382
     atom    9 type  1   force =     0.00002056    0.00002820   -0.00306997
     atom   10 type  1   force =     0.00000796   -0.00026413    0.00259372
     atom   11 type  1   force =     0.00004790   -0.00018749    0.00258922
     atom   12 type  1   force =    -0.00003237   -0.00004401    0.00375767
     atom   13 type  1   force =     0.00008515    0.00000599    0.00261982
     atom   14 type  1   force =     0.00000990    0.00014632    0.00284546
     atom   15 type  1   force =    -0.00007856    0.00013955    0.00281777
     atom   16 type  1   force =     0.00017347    0.00002055    0.00302106
     atom   17 type  1   force =    -0.00004010   -0.00000798    0.00271166
     atom   18 type  1   force =    -0.00010239    0.00008345    0.00299258
     atom   19 type  1   force =    -0.00006491   -0.00007128    0.00033850
     atom   20 type  1   force =     0.00006533    0.00001974    0.00001726
     atom   21 type  1   force =     0.00002577    0.00000071    0.00031106
     atom   22 type  1   force =     0.00008659    0.00005145    0.00015891
     atom   23 type  1   force =     0.00001573    0.00002781    0.00012955
     atom   24 type  1   force =    -0.00007820   -0.00006300    0.00024420
     atom   25 type  1   force =     0.00004924    0.00018734    0.00011634
     atom   26 type  1   force =    -0.00012277    0.00001683    0.00007656
     atom   27 type  1   force =     0.00010395    0.00008363    0.00006640
     atom   28 type  1   force =    -0.00011203   -0.00001683    0.00040587
     atom   29 type  1   force =     0.00000365   -0.00016815   -0.00006267
     atom   30 type  1   force =     0.00012594    0.00002846    0.00039702
     atom   31 type  1   force =     0.00011029   -0.00011115   -0.00024754
     atom   32 type  1   force =    -0.00006591   -0.00008205   -0.00027214
     atom   33 type  1   force =    -0.00003228    0.00000603    0.00058866
     atom   34 type  1   force =     0.00005339    0.00015563    0.00001760
     atom   35 type  1   force =     0.00011007   -0.00001974    0.00034300
     atom   36 type  1   force =    -0.00014034    0.00000951    0.00039322
     atom   37 type  2   force =    -0.00076554   -0.00052633   -0.00037575
     atom   38 type  2   force =    -0.00006373    0.00037075   -0.00039785
     atom   39 type  3   force =    -0.00016458    0.00006581    0.00005537
     atom   40 type  3   force =     0.00071109    0.00003229    0.00002222

     Total force =     0.001877     Total SCF correction =     0.001632
     SCF correction compared to forces is large: reduce conv_thr to get better values

     negative rho (up, down):  1.186E-02 0.000E+00

     negative rho (up, down):  1.186E-02 0.000E+00

     negative rho (up, down):  1.186E-02 0.000E+00

     negative rho (up, down):  1.186E-02 0.000E+00

     negative rho (up, down):  1.186E-02 0.000E+00

     negative rho (up, down):  1.186E-02 0.000E+00

     negative rho (up, down):  1.186E-02 0.000E+00

     negative rho (up, down):  1.186E-02 0.000E+00

     negative rho (up, down):  1.186E-02 0.000E+00

     negative rho (up, down):  1.186E-02 0.000E+00

     negative rho (up, down):  1.186E-02 0.000E+00

     negative rho (up, down):  1.186E-02 0.000E+00

     negative rho (up, down):  1.186E-02 0.000E+00

     negative rho (up, down):  1.186E-02 0.000E+00

     negative rho (up, down):  1.186E-02 0.000E+00

     negative rho (up, down):  1.186E-02 0.000E+00

     negative rho (up, down):  1.186E-02 0.000E+00

     negative rho (up, down):  1.186E-02 0.000E+00

     negative rho (up, down):  1.186E-02 0.000E+00

     negative rho (up, down):  1.186E-02 0.000E+00

     negative rho (up, down):  1.186E-02 0.000E+00

     negative rho (up, down):  1.186E-02 0.000E+00

     negative rho (up, down):  1.186E-02 0.000E+00

     negative rho (up, down):  1.186E-02 0.000E+00

     negative rho (up, down):  1.186E-02 0.000E+00

     negative rho (up, down):  1.186E-02 0.000E+00

     negative rho (up, down):  1.186E-02 0.000E+00

     negative rho (up, down):  1.186E-02 0.000E+00

     negative rho (up, down):  1.186E-02 0.000E+00

     negative rho (up, down):  1.186E-02 0.000E+00

     negative rho (up, down):  1.186E-02 0.000E+00

     negative rho (up, down):  1.186E-02 0.000E+00

     negative rho (up, down):  1.186E-02 0.000E+00

     negative rho (up, down):  1.186E-02 0.000E+00
 BEEFens 2000 ensemble energies
             -0.602681048896658E+02
             -0.358449749484996E+01
             -0.157325265301063E+02
              0.426614480944979E+02
             -0.220005433833954E+02
             -0.204221343155198E+02
             -0.349515577849897E+02
             -0.858761398673095E+02
             -0.462764526846859E+02
             -0.470344734902574E+02
             -0.366935434107672E+02
              0.226180326159383E+01
              0.402860655598141E+01
              0.764543871109811E+01
              0.262324145547939E+01
              0.471971944629113E+02
             -0.207500088390208E+02
             -0.229284514581415E+02
              0.191414049081519E+02
             -0.111698177443391E+03
              0.532761880562824E+02
             -0.288591031593859E+02
             -0.329808572377771E+01
             -0.113661593318143E+02
             -0.883085185336154E+01
             -0.458452655340923E+01
              0.877293698009232E+02
             -0.185914005147858E+02
             -0.893267166670830E+01
             -0.514777716326880E+02
              0.810973733081025E+02
             -0.186713224469757E+02
             -0.372206787692509E+02
              0.247914942990237E+02
             -0.283289020575211E+01
              0.162290838211567E+02
             -0.487431302261518E+01
              0.108121564303011E+02
              0.286124281677075E+02
             -0.102623491810331E+03
              0.555079807294002E+02
              0.141645421324696E+02
             -0.167147572701037E+01
             -0.359349277867587E+02
              0.122492863518943E+02
             -0.145893093369385E+02
              0.395151321460841E+02
              0.362666157030358E+02
             -0.306848678144064E+02
             -0.272927996433747E+02
             -0.326390071891824E+02
             -0.349957690109867E+02
              0.135254134553969E+02
             -0.487377725854917E+02
              0.114639300331950E+02
              0.619315604355635E+02
              0.630703075751001E+02
              0.354040442809611E+02
              0.152982039152403E+02
              0.268618242629011E+02
              0.886063001250088E+02
              0.211358854238373E+02
             -0.545098018569362E+02
             -0.156513801009908E+02
             -0.234131040510399E+02
              0.625614906274686E+02
             -0.768767280039412E+02
             -0.668154625465962E+02
             -0.257656245853023E+02
             -0.640233760781007E+01
             -0.467970174096781E+02
              0.269088646454866E+02
              0.793779135918999E+01
              0.857544274458610E+01
             -0.395096155640846E+02
             -0.344489939719143E+02
             -0.538248197291941E+02
              0.388137021405187E+02
             -0.293943391306281E+02
              0.263628116411621E+02
             -0.713241757235794E+01
             -0.316132677516583E+02
             -0.572758479081971E+02
             -0.175496477411643E+02
             -0.892857221949362E+01
             -0.123559203318040E+02
              0.410014725479828E+02
              0.678194867493402E+02
             -0.382763326167982E+02
             -0.789395273760606E+02
             -0.218480306058179E+02
              0.110810510447270E+03
             -0.589212776989779E+02
              0.354156083740317E+02
             -0.948388411805524E+01
             -0.659329710832584E+02
              0.252666679790842E+02
              0.396092849123049E+02
             -0.197843079204423E+02
              0.398475049224935E+02
             -0.294324988206656E+02
             -0.474384320698072E+02
              0.859601049040697E+02
              0.450841164574655E+02
              0.335118292389374E+02
              0.145424145199877E+02
              0.204252982812996E+02
              0.851260801580507E+02
             -0.255281654412581E+02
              0.787100775493451E+01
             -0.141514861428401E+03
              0.179941033028498E+02
             -0.711930312938137E+02
              0.150269850860077E+02
              0.203268225072212E+02
             -0.330556428134673E+02
             -0.554009658540997E+02
              0.650104798558698E+01
             -0.302321741055871E+02
              0.305058781289902E+02
             -0.527033345655130E+02
              0.175341419511778E+01
             -0.354497858011719E+02
             -0.419301130800278E+01
             -0.107033367528658E+01
              0.179867576516432E+02
              0.143132362949359E+01
             -0.647655599560869E+01
              0.586375253687151E+02
              0.902518651639383E+02
              0.481053269017687E+02
              0.826048300986056E+02
             -0.114370396014069E+02
              0.142170874362328E+02
              0.537859368339841E+02
             -0.111057016808645E+02
             -0.731240257734038E+02
             -0.381522693467137E+02
             -0.518858750536509E+02
             -0.274934167232307E+02
              0.325703116086893E+02
             -0.116003260317915E+03
             -0.186564057864931E+02
              0.410958110190206E+02
             -0.383668902497441E+02
             -0.363603648772864E+02
              0.540645178883449E+02
              0.397705740790906E+02
             -0.352433720692939E+02
              0.135983024240197E+02
             -0.271821821566599E+02
              0.340741123645458E+02
              0.438779655890386E+01
              0.210280650031939E+02
             -0.879739427110542E+02
             -0.477170177694144E+02
             -0.991895605189313E+01
              0.319358277359346E+01
             -0.364079184931988E+02
              0.105335160024719E+03
             -0.230179109077271E+02
             -0.397136657879920E+02
              0.386104033248434E+02
             -0.491216709179994E+02
             -0.360885206759218E+02
              0.322770026841800E+02
              0.123697877125983E+02
              0.164060957637259E+02
              0.115631409031776E+02
             -0.132115671574884E+02
              0.224594250350378E+02
              0.586432222213723E+02
             -0.309788156817843E+02
              0.160981624196435E+02
              0.929037159376398E+02
              0.338821943929205E+02
             -0.726323549005701E+01
             -0.187253174145105E+02
              0.152364607482335E+03
             -0.162549853507620E+02
              0.360912543722212E+02
              0.192577277294661E+02
              0.359693063499693E+02
              0.885982738585096E+02
              0.539790590952069E+02
             -0.233712149485559E+01
              0.226118413052188E+02
              0.481508725221139E+02
              0.360815372803172E+02
             -0.521805344045152E+02
              0.930187625258432E+02
             -0.820549842004489E+02
             -0.197212981593726E+02
              0.579133974716282E+02
              0.667051790946064E+01
              0.783921356166513E+01
              0.338955538800997E+02
              0.298234521223774E+02
              0.351544618160551E+02
             -0.633498579262382E+02
              0.284832549467092E+01
             -0.296143186287559E+02
             -0.863861807145115E+01
             -0.143935674962165E+01
             -0.715670308522492E+01
             -0.411394688996677E+01
              0.854239162798670E+02
             -0.100755059978523E+02
             -0.274457964419120E+02
             -0.495776632040499E+01
              0.138927984361117E+02
             -0.559777584131805E+02
             -0.404047719799611E+02
             -0.379829005020069E+02
             -0.626186865729000E+02
             -0.168231268583706E+02
             -0.444826655973358E+02
              0.162137513415681E+02
             -0.240382966005924E+01
             -0.103665531534080E+02
             -0.928526076035283E+01
              0.804832166716614E+01
             -0.241766284225661E+02
              0.685427253917604E+02
             -0.801865723519690E+02
             -0.140228338742912E+02
             -0.173086895494168E+02
              0.181080465526460E+02
              0.213172506585720E+02
             -0.460371607149093E+02
             -0.200892615826752E+02
              0.438124953442452E+02
             -0.274914729451264E+02
              0.186158628892732E+02
              0.380755236835035E+02
             -0.321475404456476E+01
              0.113377836049993E+03
             -0.228993423939824E+02
             -0.338726967635323E+02
              0.576793493456842E+01
             -0.226567165987223E+02
              0.523848895359627E+02
             -0.334480629442600E+02
              0.105718072810787E+02
              0.637051957800963E+02
             -0.125564624219926E+02
              0.119492669300564E+03
              0.125062985044726E+03
             -0.645531346617945E+02
              0.587012156823193E+02
              0.165071173688640E+02
             -0.514309465966797E+02
              0.214878023284280E+02
              0.351474224390046E+02
              0.359811082264325E+02
              0.130906230437333E+01
              0.158860118965231E+02
              0.691376913166655E+02
             -0.245484682786261E+02
              0.180916149086677E+02
              0.734656098732199E+02
             -0.370190149198762E+02
             -0.128339897723584E+02
              0.505025555330254E+02
              0.295402263058145E+02
              0.775080950004045E+02
              0.220888427419998E+02
              0.618197580176553E+01
              0.278680851667544E+02
              0.380742080151390E+02
             -0.468877244016597E+02
              0.327624390408766E+01
              0.128527305519838E+02
              0.112858499324215E+02
              0.219141135304718E+02
             -0.571241350155994E+02
              0.363837115418887E+02
             -0.441012661289765E+02
             -0.345559143539231E+02
              0.177075387227252E+02
             -0.180867137160000E+02
              0.551241396127382E+02
             -0.254933965331687E+02
              0.264949879982180E+02
              0.366135436393857E+02
              0.824202487531834E+02
              0.571471331428181E+02
              0.458765853059234E+02
             -0.105148311937772E+02
             -0.384267481440617E+01
             -0.330466087273919E+02
              0.745648920750529E+02
              0.791796507675459E+02
              0.359357516055195E+02
             -0.190303685650190E+02
              0.508588972545829E+02
             -0.162632341734757E+02
              0.213676230953837E+02
              0.610201259969602E+02
              0.213564805430451E+01
             -0.103738000211075E+02
             -0.281495719516436E+02
             -0.508141405630204E+02
              0.939342886047618E+02
              0.436840497568945E+02
             -0.554998732151810E+02
             -0.949382184130258E+01
              0.248237038023901E+02
             -0.991001496865366E+01
              0.587900181838206E+02
              0.150947815819117E+02
              0.793878911314613E+02
              0.277929700447727E+02
             -0.262082480974443E+02
              0.247434923829459E+02
             -0.496814584488607E+01
             -0.321722818906803E+02
              0.132131461115526E+02
              0.204452141874683E+02
              0.927456492714031E+02
              0.792556115234318E+02
              0.547537756438805E+02
              0.726309945977446E+02
              0.799551607286665E+01
             -0.272197724256290E+02
              0.162225121232900E+02
             -0.365757507165040E+02
             -0.472942558167241E+02
             -0.559858321107934E+02
             -0.264600685035163E+02
             -0.109029713895139E+03
             -0.289232149701513E+02
             -0.831932969442141E+02
              0.208869904186269E+02
             -0.474274178591847E+02
              0.393779699171233E+02
             -0.935382081817429E+02
             -0.328200878286224E+02
              0.545704034111042E+02
              0.206144585795370E+02
             -0.825027098616505E+02
              0.627371350277800E+02
             -0.255012536601479E+02
              0.508995159883274E+02
             -0.240570764150659E+02
             -0.746329671643243E+02
              0.110745915076330E+02
             -0.607071510389165E+02
             -0.167807323833879E+02
             -0.149781727827398E+01
              0.415486127867537E+02
              0.126214755570909E+03
             -0.458921274436186E+02
             -0.359923383022323E+02
             -0.957483862034110E+00
             -0.129934994879256E+02
             -0.817348328208156E+02
             -0.593211976789287E+02
              0.513934856833491E+02
             -0.287678094825931E+02
              0.167829063091461E+02
             -0.486174402063959E+02
             -0.130959209176035E+02
             -0.434522433114873E+02
              0.562397667288640E+02
              0.149831132464012E+02
             -0.230127812342704E+02
             -0.125938874245386E+02
              0.660931287848268E+01
             -0.615004944159341E+01
              0.438844375966681E+02
             -0.250371327545081E+02
              0.274506440856806E+01
              0.337485572529765E+02
              0.170286431973306E+02
             -0.158610514590040E+02
              0.155281113310513E+03
              0.534610399591780E+02
              0.109198293908361E+01
              0.160915705989278E+02
             -0.611250780769291E+02
              0.312914029367633E+02
             -0.716785659859964E+02
             -0.249884483535517E+02
             -0.519053436791569E+02
             -0.218955494817972E+02
              0.565570973305631E+02
             -0.533555746013927E+02
              0.159368264707102E+02
             -0.407552607268690E+01
              0.384999297428163E+01
             -0.431751200248822E+02
             -0.475636504252903E+02
             -0.400365532534067E+01
             -0.422633319741218E+02
             -0.215420892592607E+02
             -0.435867735069779E+02
             -0.118869273357494E+02
             -0.356974838183295E+02
             -0.513390757662311E+02
              0.211443186140432E+02
             -0.208247589494866E+02
              0.186537305522880E+02
              0.970501790705276E+01
             -0.733372596029800E+02
             -0.544852066083540E+02
             -0.395292229395456E+02
              0.352094513772024E+02
              0.274349929023023E+01
             -0.622694600573644E+02
              0.582377978879628E+02
             -0.398467534473193E+02
              0.541146678805372E+02
             -0.287857754162183E+02
             -0.442988916216377E+02
              0.296495960645755E+02
             -0.652950110071012E+02
             -0.378041902241729E+02
              0.669197142097955E+02
              0.202867485317242E+02
             -0.357835686613867E+02
              0.486445925014992E+02
             -0.173114403302886E+02
             -0.320814510687798E+02
             -0.299948124132769E+02
             -0.497421717786902E+02
              0.248055230632507E+02
             -0.927790508912682E+02
             -0.835455076874360E+02
             -0.730268594053280E+01
             -0.304967876372581E+02
             -0.572053206869903E+02
              0.716932203856250E+02
              0.130673945368345E+03
             -0.359484480532649E+02
             -0.252963945268385E+01
             -0.633462584073822E+02
              0.646337561259975E+02
              0.169457786209688E+02
             -0.180746071780511E+02
             -0.407708963294913E+02
              0.147632221750823E+02
             -0.582260559721937E+02
             -0.197244760305809E+02
             -0.899111992325668E+02
              0.334890944348456E+02
              0.168199502492481E+02
              0.188918852701931E+01
             -0.700684989330898E+01
             -0.327357979689755E+02
             -0.752847790732983E+01
              0.124705408722329E+03
             -0.197879870424582E+02
             -0.434796580673442E+02
             -0.679654884184649E+02
              0.108567777373187E+02
             -0.339920084017094E+02
              0.586341495170757E+01
              0.259460218404828E+02
              0.101949025975993E+02
              0.275787300580885E+02
              0.118890107328348E+02
              0.625859078714788E+02
              0.315042753388083E+02
             -0.324394564733071E+02
              0.352439413364332E+02
              0.377325772039900E+02
              0.120034678720149E+02
              0.484978897045397E+02
             -0.222936481192300E+02
              0.761196969827686E+02
              0.170811746934150E+02
             -0.270029388833247E+02
             -0.722131499464527E+01
             -0.185483955555334E+02
              0.260800200600419E+02
             -0.232560555984164E+02
             -0.709837159739095E-01
             -0.842807850539941E+01
              0.804433279396832E+02
              0.496605821801669E+02
             -0.682819922108219E+02
             -0.473164471255819E+01
             -0.552259213068095E+02
             -0.158500752969228E+02
             -0.267141328971264E+02
              0.369742408140144E+01
              0.628964596390555E+00
             -0.256062215409739E+02
              0.805433804386831E+01
             -0.597001641062366E+01
             -0.128108501047005E+02
              0.853360071049347E+02
              0.180725841463808E+02
             -0.801981355569161E+02
             -0.456093475845573E+02
              0.939104477701480E+02
              0.276395567511929E+02
             -0.106268381243289E+02
              0.103886059879557E+03
             -0.193419541889303E+02
             -0.122547387854264E+02
             -0.533911933925049E+01
              0.106636962584199E+02
              0.270535203472461E+02
              0.778992466929577E+01
              0.303529878485435E+02
             -0.187039736387132E+02
             -0.301518286086424E+02
             -0.415572450635598E+02
             -0.473920239996415E+02
              0.461551500526913E+02
              0.125864806845589E+02
              0.385361657280984E+02
              0.132630887000229E+02
              0.850157128867108E+02
              0.155084602816489E+02
             -0.841246875210445E+02
             -0.332578250675277E+02
              0.133340032622943E+02
             -0.301058731551567E+02
              0.622643993758810E+02
             -0.876008988282979E+01
              0.147505480901264E+02
              0.493787794805180E+02
             -0.702221824515475E+02
              0.148817538394169E+03
              0.207651331497794E+02
              0.269716829773145E+02
              0.345370398923838E+02
              0.103564501899249E+02
             -0.153260655333287E+01
              0.356346787248537E+02
             -0.355283726347679E+02
              0.768058801650361E+02
              0.680405139406354E+02
             -0.403784740963776E+02
              0.148689896442621E+02
              0.665623411055803E+02
             -0.222425834700382E+02
              0.153145229176455E+02
              0.432951847003378E+02
              0.419525419669502E+02
             -0.780287511417994E+02
             -0.152333365317749E+02
             -0.354271375663924E+02
             -0.145681235359842E+01
             -0.764751002090053E+01
             -0.545384721625044E+01
             -0.179719294384287E+02
             -0.292228747367733E+02
              0.626763051243569E+01
              0.111248211037082E+02
              0.532441353011084E+02
             -0.387583559225515E+02
              0.371825544594694E+02
              0.435640707580079E+02
             -0.185671358427708E+02
              0.867394906802148E+02
             -0.693609515417025E+02
             -0.102543252983775E+03
             -0.654351156534169E+01
             -0.266430249139978E+01
              0.385278352018577E+01
              0.784845322112010E+02
             -0.106837902386534E+02
              0.414135836265012E+02
              0.440214601210340E+02
              0.382809200801843E+02
             -0.992485795683478E+01
              0.623677066794473E+02
             -0.132674951400338E+02
             -0.305069546513680E+02
             -0.477275129879644E+02
              0.581835804291904E+01
              0.367301009464770E+02
             -0.599623780659036E+01
              0.390697694409239E+02
             -0.173552587462197E+01
              0.651574519062426E+02
              0.186063111810356E+02
              0.993445939585359E+01
             -0.121899835648471E+02
              0.330319898747446E+02
              0.359871567995438E+02
              0.231546381159910E+02
             -0.484124653676247E+00
             -0.547221221492906E+02
              0.258847908737844E+02
              0.173866344948257E+02
              0.400411980288699E+02
              0.270278064251625E+02
              0.370083336491594E+02
             -0.596528331690504E+01
              0.249246896990813E+02
             -0.296809232200126E+02
             -0.197123123447238E+01
             -0.565934519005282E+02
             -0.305459013289348E+02
              0.376063985348052E+02
             -0.930206245338536E+02
              0.292852609790460E+02
              0.183259428361125E+02
              0.835031086710073E+02
             -0.299380140750784E+02
              0.327612986814912E+02
             -0.136952913475113E+02
             -0.460940169285153E+02
             -0.757146588214721E+02
             -0.519211671208913E+01
             -0.854585215559603E+02
              0.199049293167353E+02
             -0.246106989631120E+02
              0.303759979848082E+02
              0.235684025153458E+02
             -0.239597859009370E+02
             -0.263884301774350E+02
              0.388260338507902E+02
             -0.585046107181003E+02
             -0.116039822098156E+02
             -0.195095793119071E+02
              0.211301943639968E+02
             -0.891435550367351E+01
              0.359002194969321E+01
             -0.199711325264972E+02
              0.555399068254957E+02
             -0.436473360844268E+02
              0.784524711694701E+01
              0.581889451211422E+02
             -0.321178535815667E+02
              0.358538337571022E+01
             -0.881177678257177E+01
             -0.665344436552039E+02
             -0.479900112655357E+02
             -0.858522260740451E+01
              0.238993587309450E+02
              0.300288561841190E+02
              0.858557305747968E+01
             -0.406797256459049E+01
              0.150849332258579E+02
             -0.437341848621176E+02
              0.333491197145361E+01
             -0.527968345209883E+02
             -0.323126873720105E+02
              0.471604294019078E+02
             -0.293205621885803E+02
              0.618356799655918E+02
             -0.213642521881030E+02
              0.351427012208168E+02
              0.240317424085614E+02
             -0.640412737865213E+02
             -0.278699106112178E+02
              0.926087570212610E+01
             -0.369407585827936E+02
             -0.337143500027632E+02
             -0.824563494540048E+02
             -0.535927317591371E+02
             -0.507405756545730E+02
             -0.412644942312601E+02
             -0.989554156642271E+00
              0.981632939626621E+01
              0.100207999430128E+01
              0.151741494828187E+02
             -0.545807970170889E+02
              0.141242489809605E+02
              0.255425462399718E+02
             -0.662540836135993E+02
             -0.698327114528716E+02
             -0.429073574821971E+02
             -0.170245837253984E+02
              0.177544480395226E+02
              0.456778041852681E+01
             -0.422946657410041E+02
              0.364252876451758E+02
             -0.214800244979796E+02
              0.514243936965015E+02
             -0.881718224383476E+02
              0.593953408701660E+02
             -0.207912290671944E+01
             -0.366081165602187E+02
             -0.214408647270851E+02
              0.469954562996483E+01
              0.371511985328134E+02
             -0.752083687991967E+02
             -0.119807181704039E+02
             -0.215782385152390E+02
              0.508475467609425E+02
              0.859911516270091E+02
             -0.959347406490936E+02
              0.938293875823045E+02
              0.464950431044268E+02
             -0.720771678776417E+02
             -0.364484337566012E+02
              0.747271024051591E+02
              0.628480686346937E+02
             -0.180304389876610E+02
             -0.458829145942656E+01
              0.722706242423148E+01
              0.644576262453698E+02
             -0.504861392014214E+02
              0.157523239447866E+02
             -0.467685090327639E+01
              0.345851588509588E+02
             -0.742679735746674E+02
             -0.645733475058240E+01
             -0.349337968531954E+02
              0.457674747346920E+02
              0.466133129331662E+02
             -0.856550370380804E+02
             -0.484086214743445E+02
             -0.254862432536235E+02
             -0.336978381984366E+02
             -0.108510187783735E+02
             -0.241408830812402E+02
              0.424739244824804E+02
              0.398192520285789E+02
             -0.562524754656459E+01
             -0.413703086434526E+02
             -0.845427625660690E+02
              0.440102635158412E+02
             -0.520352156310051E+02
             -0.310899680967910E+02
              0.541774134547104E+01
             -0.320520325453380E+02
[...]
              0.282085490838944E+02
              0.140925239514657E+03
              0.240726738339941E+02
              0.121496297299368E+02
             -0.461150733112229E+02
             -0.633832848406098E+02
             -0.188285930814664E+02
              0.328164329251393E+02
             -0.424490051216435E+01
              0.188840415857580E+02
              0.334052314275417E+02
             -0.582099011464510E+02
              0.220855215479125E+02
              0.579348933443827E+02
              0.549027750185485E+02
             -0.412223215102222E+01
             -0.138515197384754E+01
             -0.990111101582906E+01
             -0.479599439076391E+02
             -0.670227249133081E+02
              0.780528921237347E+02
             -0.515494377037354E+01
             -0.584332942453152E+02
              0.166371096023457E+01
             -0.203477552962453E+02
              0.933099048138075E+02
             -0.215185421679437E+02
             -0.351146971748379E+02
              0.333158327377848E+02
             -0.144836603024891E+02
              0.386689092737216E+02
             -0.234757410186569E+01
              0.100466693138946E+03
              0.486285632623330E+02
             -0.516769059119267E+01
             -0.319478358070281E+02
              0.230548361932915E+02
             -0.525039428245595E+02
             -0.127484681760914E+02
              0.581688951896267E+02
             -0.286106280558584E+02
             -0.435486478766819E+02
             -0.221761682065786E+02
              0.515231106791820E+02
              0.123845442712837E+02
             -0.843539116350890E+02
              0.301900627051425E+02
              0.151610513623469E+02
              0.572009696634589E+01
             -0.510473789587768E+02
             -0.382287412035095E+01
              0.320827397268892E+02
              0.509753914939306E+02
              0.628647310088384E+02
              0.226950223039069E+02
              0.684785499435776E+00
             -0.494705123576072E+02
             -0.507396264063814E+02
             -0.743475622248527E+02
             -0.609246985431218E+01
              0.306999309079340E+02
             -0.380762076312294E+01
              0.543466518701114E+02
             -0.315973548518168E+02
              0.165094422399550E+02
             -0.101560936979052E+02
             -0.288015118795365E+02
              0.582065648300330E+02
              0.788927289993222E+01
              0.600415383665038E+02
              0.505894022683833E+01
              0.263645366672078E+02
             -0.191616764578779E+02
              0.582187606055671E+02
             -0.110828202384086E+02
             -0.969614734148720E-01
             -0.785126304721200E+02
             -0.127845227790845E+02
              0.714596574099864E+02
              0.668838650800948E+02
              0.250301547267520E+02
             -0.129211485303599E+02
              0.343004875656194E+01
             -0.172131175022625E+02
             -0.196083679577276E+01
              0.902119747038855E+02
              0.121053447863051E+01
             -0.188611480261739E+02
             -0.110046031961423E+03
             -0.549529736727373E+02
             -0.372688963665273E+02
             -0.654346895272063E+02
             -0.551902134914841E+02
             -0.678031581144194E+02
             -0.444348410951444E+02
             -0.408918990816330E+02
             -0.448805923744762E+02
              0.480755852153071E+02
             -0.292782669097747E+02
             -0.989354173347969E+02
              0.416320414673163E+02
             -0.258066370931085E+02
             -0.785630365045187E+02
              0.937378675692724E+02
             -0.218222985432767E+02
              0.226901544867520E+02
              0.452596078959843E+02
             -0.138446409530928E+01
              0.252835548893624E+02
              0.469331499287827E+01
              0.400125232258134E+00
             -0.150114148722152E+02
             -0.711322542269495E+02
              0.132575325535569E+02
             -0.128606988766663E+03
              0.619925106372463E+02
             -0.438094856694601E+02
             -0.161622375383306E+02
             -0.156663931655279E+02
              0.702948678416021E+01
             -0.226596803332591E+02
              0.295006920004948E+02
             -0.516669803949609E+02
              0.364911076535025E+02
              0.368566484325021E+02
              0.167479138008630E+02
              0.100305790686732E+02
              0.196431740790258E+02
              0.615976938621566E+01
              0.308207454213578E+02
             -0.797421156612160E+01
             -0.587918356579241E+02
              0.752016810873283E+01
             -0.150607302932472E+02
             -0.192835230878791E+01
              0.502996568879198E+02
             -0.821751712041457E+02
             -0.147040525131604E+01
              0.553509786863685E+00
              0.989836290923074E+01
              0.316361009117390E+02
             -0.122851745140538E+02
              0.830119777073596E+02
              0.485049351382850E+02
             -0.182088829985236E+02
             -0.947594976870619E+01
              0.102963168267019E+01
              0.764342528263968E+02
             -0.582786293461331E+02
             -0.105108795268873E+03
              0.307570316316930E+02
             -0.162703809902107E+02
             -0.138871388936945E+02
              0.129231029381253E+02
              0.763478499029351E+02
              0.461454257718643E+02
             -0.152341594811378E+02
             -0.499580377732603E+02
             -0.541785766373323E+01
              0.304571042680482E+02
             -0.110529520768799E+02
             -0.750839720440888E+02
             -0.267132358399019E+01
             -0.883743031568269E+02
             -0.472174082479798E+02
              0.763084433727797E+02
             -0.480380868132784E+02
             -0.632008880894734E+02
             -0.511070374955948E+02
             -0.347243127199239E+02
              0.339150955647489E+02
              0.816154885457466E+02
             -0.354084402158207E+01
              0.274762957499408E+02
             -0.182592842189971E+02
             -0.689503121060915E+02
              0.461893061270243E+02
             -0.442000880140795E+02
              0.319944793757887E+02
              0.374127174420513E+02
             -0.645806269438242E+01
              0.387802032923464E+02
              0.435731868227581E+02
              0.999242934280645E+02
             -0.155222944931396E+02
             -0.452653578393804E+02
             -0.608396354593225E+02
             -0.122627085543533E+02
             -0.230599393544738E+02
              0.102405225872083E+03
             -0.446397791652836E+02
              0.104383066780789E+02
              0.968074848977324E+01
             -0.263284569719576E+02
             -0.793551988725434E+02
             -0.695979897591201E+01
              0.973431802614006E+02
              0.925494489676279E+01
              0.803266168100487E+01
             -0.523380724983503E+02
             -0.601680703239917E+02
             -0.552851280092970E+01
              0.497326897286742E+02
             -0.220301896332959E+02
              0.107307343349307E+03
             -0.433054851199370E+02
              0.145056263363354E+02
             -0.222878301782947E+02
             -0.714453804875191E+02
              0.163322672665953E+01
             -0.498011258485074E+02
             -0.755713345559143E+02
              0.610337250884413E+01
              0.233565280946107E+01
              0.511003103031463E+02
              0.185505534827434E+02
             -0.321519741579602E+02
              0.228503711968383E+02
             -0.805557763522478E+02
             -0.518440720596348E+02
              0.895706019359511E+02
              0.141687915331136E+02
             -0.187538587393087E+02
             -0.350595635140494E+02
             -0.270730857183969E+01
             -0.579771144073732E+01
              0.824830850568574E+02
              0.415313002185398E+02
             -0.165251818531711E+02
             -0.121630105686040E+02
             -0.425024388360251E+02
             -0.199563793765494E+02
             -0.665716332938453E+02
              0.456620641398631E+02
              0.544030146651571E+01
              0.144309119962508E+02
              0.154999037913207E+02
             -0.492462556191157E+00
             -0.167070437524578E+02
             -0.310466836467021E+01
             -0.997195632020293E+02
             -0.229227011546905E+02
             -0.761385967468101E+01
             -0.943982280057014E+01
              0.542739941721416E+02
              0.619865288097588E+02
              0.163651346854783E+02
             -0.964502619234815E+02
              0.643156662708421E+02
             -0.213302759578262E+02
             -0.374517679791475E+02
             -0.858423907263538E+02
             -0.384978647969511E+02
              0.560741144736750E+02
              0.242530759091951E+02
              0.505370514189963E+01
              0.290043552130349E+02
             -0.561357974077811E+02
             -0.419142443403446E+02
              0.511419245803941E+02
              0.384331676732339E+02
              0.515622161074364E+02
             -0.122909238518750E+01
              0.680148868212893E+01
              0.565968363615005E+02
              0.956208071585171E+02
             -0.298784718757602E+02
              0.320471915563196E+02
             -0.117251262202287E+02
             -0.409365214197944E+02
             -0.312292377520555E+02
             -0.298267786335953E+02
             -0.130447208069480E+02
             -0.519974769099088E+02
             -0.215816611462841E+02
             -0.140319344543800E+03
              0.367138054900661E+02
              0.204786899892060E+02
             -0.392376774886566E+01
             -0.377520873205327E+02
             -0.202786156397602E+02
             -0.523200990934021E+02
              0.150955430934504E+02
              0.814842927451373E+02
             -0.250930316298242E+02
             -0.161816545977177E+02
              0.236707489940877E+02
             -0.486421494850656E+02
              0.874783891425912E+02
              0.153333189010328E+02
              0.225678692571068E+02
              0.486596044911559E+02
              0.321026758272234E+01
              0.538108036273246E+02
              0.141796511894693E+02
             -0.106275383287693E+02
              0.720891777831196E+01
              0.802088583870670E+00
              0.722546880554652E+02
              0.100865258275033E+02
              0.119339678112818E+02
             -0.129641333866517E+02
              0.131807526491007E+02
             -0.905001669622325E+02
             -0.323492902038967E+02
             -0.454143177105066E+02
              0.481680956547938E+02
             -0.288814511162373E+02
             -0.654673307585085E+02
              0.534532661786047E+02
             -0.121035635661669E+02
              0.437284276878183E+02
             -0.892729497116940E+02
              0.230796594037424E+02
              0.852105981387115E+01
              0.578957190869050E+01
             -0.824055185125604E+01
             -0.899229018147844E+01
              0.476322339516341E+02
              0.197178311450341E+01
             -0.471641512663883E+02
             -0.174901735515832E+02
              0.275121761689322E+02
             -0.117187590384161E+03
             -0.923900849661166E+02
              0.395134452697897E+01
              0.116631218026297E+02
             -0.410218316996886E+02
             -0.389924972901440E+01
              0.111418407539363E+03
              0.304178141638753E+02
             -0.568047937294901E+02
              0.919049695049529E+01
             -0.955720229174527E+01
              0.105101453838015E+02
             -0.335519841196938E+02
              0.194080333603748E+02
              0.283024679205147E+02
             -0.291299096829931E+01
              0.107436840925920E+03
             -0.140029445830593E+02
             -0.313874323751825E+02
              0.140928020195242E+02
              0.463751682167444E+02
             -0.353775926208684E+02
             -0.316038463306270E+01
              0.958562518221011E+02
             -0.462895907234247E+01
              0.618190071223977E+02
              0.134414730456348E+02
             -0.895028572835501E+01
             -0.304165438255046E+02
              0.563147548483362E+02
             -0.510213675602009E+02
             -0.219726510458679E+01
             -0.168706362890993E+02
             -0.402588945049692E+02
              0.184309283360825E+02
              0.237930291912876E+02
              0.116106398951416E+02
              0.730670976145234E+00
             -0.381691099164516E+02
              0.213958142517523E+02
             -0.673334550962485E+01
             -0.244830116707687E+02
             -0.209187759208348E+02
              0.201892668101619E+02
             -0.599178104529392E+01
             -0.346679941099989E+02
             -0.105946302523010E+03
              0.102551650388386E+02
              0.247741325100969E+02
             -0.384309123313749E+02
             -0.209437153315921E+02
              0.801788283269453E+02
              0.644671561698482E+01
              0.307957566118442E+02
              0.383977467169817E+01
              0.319243135070687E+02
              0.646618167991221E+01
             -0.370265539369121E+02
             -0.228757484351075E+01
              0.872128734420261E+01
              0.271859291877513E+02
              0.776689046255911E+02
              0.504106746044969E+02
              0.169872071137945E+00
              0.168786055665653E+02
              0.609310942782957E+02
              0.234026041661842E+02
             -0.748095048149904E+02
             -0.271919126485274E+02
              0.150348654879289E+02
              0.555148849992639E+01
              0.253203893731372E+02
             -0.544308867699472E+02
              0.893793396379239E+01
              0.383509947633913E+02
              0.494658254615317E+02
             -0.431977102679818E+02
             -0.690990114422596E+01
             -0.205778149162074E+01
             -0.132298101073878E+02
             -0.363482054062493E+02
             -0.214375048183355E+02
             -0.197422930237623E+01
              0.786434071256633E+01
              0.418638636422524E+02
             -0.305869396371734E+02
              0.820881989166051E+02
              0.325089806247943E+02
              0.218271227193619E+02
              0.330895656463543E+02
              0.321344681802045E+02
              0.344200436307808E+02
              0.533463944774373E+02
             -0.430800746521185E+02
              0.615564793529226E+02
             -0.111541195302464E+03
              0.305248807089606E+02
             -0.105834990495423E+03
              0.849232352451202E+02
              0.685570716262983E+02
             -0.109271932925819E+02
             -0.490097476756965E+02
             -0.426901319979850E+02
             -0.619816312371131E+02
             -0.624460992864410E+02
              0.548388469585738E+02
              0.402636824722961E+02
              0.235073494477917E+02
              0.371884121757740E+02
              0.400290568716350E+02
             -0.379450759191900E+02
             -0.196867212304645E+02
              0.583217644939900E+02
             -0.115488340986687E+02
              0.548738477799355E+02
              0.694387072258272E+02
             -0.553821958492386E+01
             -0.701427204323732E+02
             -0.885982107182031E+00
             -0.249107365143108E+01
             -0.875190975786938E+01
             -0.184240318437395E+01
             -0.648763594731490E+02
             -0.209837089433122E+02
              0.531888957952077E+01
              0.892939661876835E+01
              0.465653337193659E+02
             -0.394946484487184E+02
              0.653809698894521E+02
             -0.422731011839484E+02
              0.208800160426623E+02
              0.347507289095431E+02
 
 BEEF-vdW xc energy contributions
           1 :   -777.982441695191     
           2 :    714.807955925904     
           3 :   -605.457180935364     
           4 :    476.758209040426     
           5 :   -355.944236524950     
           6 :    262.626313079461     
           7 :   -204.361381223448     
           8 :    176.652158263219     
           9 :   -166.937974060411     
          10 :    160.689640003387     
          11 :   -147.134120873870     
          12 :    122.463655360797     
          13 :   -89.7030703420177     
          14 :    55.8468433239196     
          15 :   -27.9073483024602     
          16 :    9.65846488964735     
          17 :  -0.344871075434185     
          18 :   -4.38329714145107     
          19 :    10.0070944405270     
          20 :   -20.4407850658893     
          21 :    36.3392870143725     
          22 :   -55.0799738465577     
          23 :    72.2589263833346     
          24 :   -83.8886967635769     
          25 :    88.2135285136143     
          26 :   -86.3466308939559     
          27 :    81.5426497099569     
          28 :   -77.5341442910379     
          29 :    76.7514439258421     
          30 :   -79.2838410915946     
          31 :   -85.2353199309056     
          32 :   -65.3384164612434     

     Writing output data file ./pwscf.save/
 
     init_run     :    331.54s CPU    335.91s WALL (       1 calls)
     electrons    :  14447.13s CPU  14581.83s WALL (       1 calls)
     forces       :     99.42s CPU    100.63s WALL (       1 calls)

     Called by init_run:
     wfcinit      :    283.33s CPU    286.73s WALL (       1 calls)
     potinit      :     45.23s CPU     45.58s WALL (       1 calls)
     hinit0       :      1.12s CPU      1.16s WALL (       1 calls)

     Called by electrons:
     c_bands      :  12053.47s CPU  12158.76s WALL (      22 calls)
     sum_band     :   1668.12s CPU   1681.13s WALL (      22 calls)
     v_of_rho     :    141.31s CPU    145.79s WALL (      22 calls)
     newd         :     32.71s CPU     44.76s WALL (      22 calls)
     PAW_pot      :    145.63s CPU    145.64s WALL (      22 calls)
     mix_rho      :    451.85s CPU    452.53s WALL (      22 calls)
     vdW_kernel   :     33.46s CPU     33.47s WALL (       1 calls)

     Called by c_bands:
     init_us_2    :     84.20s CPU     84.45s WALL (     598 calls)
     cegterg      :  11171.86s CPU  11276.85s WALL (     286 calls)

     Called by *egterg:
     cdiaghg      :    109.81s CPU    109.86s WALL (    2046 calls)
     h_psi        :   7111.96s CPU   7148.91s WALL (    2072 calls)
     s_psi        :   1212.97s CPU   1213.02s WALL (    2072 calls)
     g_psi        :     17.82s CPU     17.82s WALL (    1773 calls)

     Called by h_psi:
     h_psi:calbec :   1121.41s CPU   1121.60s WALL (    2072 calls)
     vloc_psi     :   4749.73s CPU   4751.48s WALL (    2072 calls)
     add_vuspsi   :   1212.72s CPU   1212.86s WALL (    2072 calls)

     General routines
     calbec       :   1624.33s CPU   1624.56s WALL (    2410 calls)
     fft          :     50.72s CPU     50.74s WALL (    3342 calls)
     ffts         :    142.76s CPU    142.80s WALL (   10044 calls)
     fftw         :   4854.35s CPU   4855.45s WALL (  359860 calls)
 
     Parallel routines
 
     PWSCF        :      4h10m CPU      4h12m WALL

 
   This run was terminated on:  20: 9:49  21Dec2022            

=------------------------------------------------------------------------------=
   JOB DONE.
=------------------------------------------------------------------------------=
