
     Program PWSCF v.6.7MaX starts on  4Jan2023 at 10: 8: 1 

     This program is part of the open-source Quantum ESPRESSO suite
     for quantum simulation of materials; please cite
         "P. Giannozzi et al., J. Phys.:Condens. Matter 21 395502 (2009);
         "P. Giannozzi et al., J. Phys.:Condens. Matter 29 465901 (2017);
          URL http://www.quantum-espresso.org", 
     in publications or presentations arising from this work. More details at
     http://www.quantum-espresso.org/quote

     Parallel version (MPI), running on     1 processors

     MPI processes distributed on     1 nodes
     Reading input from chcho-mono-ensemble.in
Warning: card &CELL ignored
Warning: card / ignored

     Current dimensions of program PWSCF are:
     Max number of different atomic species (ntypx) = 10
     Max number of k-points (npk) =  40000
     Max angular momentum in pseudopotentials (lmaxx) =  3
     file Pt.pbe-n-kjpaw_psl.1.0.0.UPF: wavefunction(s)  6S 5D renormalized
     file C.pbe-n-kjpaw_psl.1.0.0.UPF: wavefunction(s)  2S 2P renormalized
     file O.pbe-nl-kjpaw_psl.1.0.0.UPF: wavefunction(s)  2S 2P renormalized
     file H.pbe-kjpaw_psl.1.0.0.UPF: wavefunction(s)  1S renormalized

     **************************************************************************
     Initializing libbeef V0.1.2 with the BEEF-vdW functional.
     Citation: Wellendorff et al., PRB 85, 235149 (2012).
     **************************************************************************


     IMPORTANT: XC functional enforced from input :
     Exchange-correlation= BEEF-VDW
                           (   1   4  43  14   2   0   0)
     Any further DFT definition will be discarded
     Please, verify this is what you really want


     Subspace diagonalization in iterative solution of the eigenvalue problem:
     a serial algorithm will be used

 
     G-vector sticks info
     --------------------
     sticks:   dense  smooth     PW     G-vecs:    dense   smooth      PW
     Sum        4267    4267   1159               687717   687717   97081
 


     bravais-lattice index     =            0
     lattice parameter (alat)  =      16.0349  a.u.
     unit-cell volume          =   10950.2135 (a.u.)^3
     number of atoms/cell      =           41
     number of atomic types    =            4
     number of electrons       =       376.00
     number of Kohn-Sham states=          226
     kinetic-energy cutoff     =      60.0000  Ry
     charge density cutoff     =     240.0000  Ry
     scf convergence threshold =      1.0E-06
     mixing beta               =       0.7000
     number of iterations used =            8  local-TF  mixing
     Exchange-correlation= BEEF-VDW
                           (   1   4  43  14   2   0   0)

     celldm(1)=  16.034858  celldm(2)=   0.000000  celldm(3)=   0.000000
     celldm(4)=   0.000000  celldm(5)=   0.000000  celldm(6)=   0.000000

     crystal axes: (cart. coord. in units of alat)
               a(1) = (   1.000000   0.000000   0.000000 )  
               a(2) = (   0.500000   0.866025   0.000000 )  
               a(3) = (   0.000000   0.000000   3.066879 )  

     reciprocal axes: (cart. coord. in units 2 pi/alat)
               b(1) = (  1.000000 -0.577350  0.000000 )  
               b(2) = (  0.000000  1.154701  0.000000 )  
               b(3) = (  0.000000  0.000000  0.326064 )  


     PseudoPot. # 1 for Pt read from file:
     /users/bkreitz1/quantum-espresso/potentials/Pt.pbe-n-kjpaw_psl.1.0.0.UPF
     MD5 check sum: 04dc8a03c51ece93fc7b5889c2958091
     Pseudo is Projector augmented-wave + core cor, Zval = 10.0
     Generated using 'atomic' code by A. Dal Corso  v.6.7MaX
     Shape of augmentation charge: PSQ
     Using radial grid of 1277 points,  6 beta functions with: 
                l(1) =   0
                l(2) =   0
                l(3) =   1
                l(4) =   1
                l(5) =   2
                l(6) =   2
     Q(r) pseudized with 0 coefficients 


     PseudoPot. # 2 for C  read from file:
     /users/bkreitz1/quantum-espresso/potentials/C.pbe-n-kjpaw_psl.1.0.0.UPF
     MD5 check sum: a169b0ebad56f5ec0d79c4633f80bf22
     Pseudo is Projector augmented-wave + core cor, Zval =  4.0
     Generated using 'atomic' code by A. Dal Corso  v.6.7MaX
     Shape of augmentation charge: PSQ
     Using radial grid of 1073 points,  4 beta functions with: 
                l(1) =   0
                l(2) =   0
                l(3) =   1
                l(4) =   1
     Q(r) pseudized with 0 coefficients 


     PseudoPot. # 3 for O  read from file:
     /users/bkreitz1/quantum-espresso/potentials/O.pbe-nl-kjpaw_psl.1.0.0.UPF
     MD5 check sum: eef08af8b58d9ec80f8fdb78829eb7cf
     Pseudo is Projector augmented-wave + core cor, Zval =  6.0
     Generated using 'atomic' code by A. Dal Corso  v.6.7MaX
     Shape of augmentation charge: PSQ
     Using radial grid of 1095 points,  4 beta functions with: 
                l(1) =   0
                l(2) =   0
                l(3) =   1
                l(4) =   1
     Q(r) pseudized with 0 coefficients 


     PseudoPot. # 4 for H  read from file:
     /users/bkreitz1/quantum-espresso/potentials/H.pbe-kjpaw_psl.1.0.0.UPF
     MD5 check sum: ae98473e6dc62675f0d0baffdab24f65
     Pseudo is Projector augmented-wave, Zval =  1.0
     Generated using 'atomic' code by A. Dal Corso  v.6.7MaX
     Shape of augmentation charge: PSQ
     Using radial grid of  929 points,  2 beta functions with: 
                l(1) =   0
                l(2) =   0
     Q(r) pseudized with 0 coefficients 


     atomic species   valence    mass     pseudopotential
        Pt            10.00   195.08400     Pt( 1.00)
        C              4.00    12.01100     C ( 1.00)
        O              6.00    15.99900     O ( 1.00)
        H              1.00     1.00800     H ( 1.00)

     No symmetry found



   Cartesian axes

     site n.     atom                  positions (alat units)
         1           Pt  tau(   1) = (   0.0000000   0.0000000   1.0017346  )
         2           Pt  tau(   2) = (   0.3333333   0.0000000   1.0017346  )
         3           Pt  tau(   3) = (   0.6666667   0.0000000   1.0017346  )
         4           Pt  tau(   4) = (   0.1666667   0.2886751   1.0017346  )
         5           Pt  tau(   5) = (   0.5000000   0.2886751   1.0017346  )
         6           Pt  tau(   6) = (   0.8333333   0.2886751   1.0017346  )
         7           Pt  tau(   7) = (   0.3333333   0.5773503   1.0017346  )
         8           Pt  tau(   8) = (   0.6666667   0.5773503   1.0017346  )
         9           Pt  tau(   9) = (   1.0000000   0.5773503   1.0017346  )
        10           Pt  tau(  10) = (   0.1666667   0.0962250   1.2739001  )
        11           Pt  tau(  11) = (   0.5000000   0.0962250   1.2739001  )
        12           Pt  tau(  12) = (   0.8333333   0.0962250   1.2739001  )
        13           Pt  tau(  13) = (   0.3333333   0.3849002   1.2739001  )
        14           Pt  tau(  14) = (   0.6666667   0.3849002   1.2739001  )
        15           Pt  tau(  15) = (   1.0000000   0.3849002   1.2739001  )
        16           Pt  tau(  16) = (   0.5000000   0.6735753   1.2739001  )
        17           Pt  tau(  17) = (   0.8333333   0.6735753   1.2739001  )
        18           Pt  tau(  18) = (   1.1666667   0.6735753   1.2739001  )
        19           Pt  tau(  19) = (   0.0003683   0.1923881   1.5397341  )
        20           Pt  tau(  20) = (   0.3353337   0.1942125   1.5480913  )
        21           Pt  tau(  21) = (   0.6640131   0.1941491   1.5450728  )
        22           Pt  tau(  22) = (   0.1648200   0.4815407   1.5413398  )
        23           Pt  tau(  23) = (   0.4996546   0.4818291   1.5460343  )
        24           Pt  tau(  24) = (   0.8308424   0.4830860   1.5450759  )
        25           Pt  tau(  25) = (   0.3322786   0.7716484   1.5415304  )
        26           Pt  tau(  26) = (   0.6664132   0.7678126   1.5482317  )
        27           Pt  tau(  27) = (   0.9988511   0.7707996   1.5431402  )
        28           Pt  tau(  28) = (  -0.0026761   0.0022636   1.8172288  )
        29           Pt  tau(  29) = (   0.3297429   0.0023807   1.8194455  )
        30           Pt  tau(  30) = (   0.6624177   0.0034443   1.8173637  )
        31           Pt  tau(  31) = (   0.1640133   0.2906840   1.8164486  )
        32           Pt  tau(  32) = (   0.4966277   0.2943493   1.8380757  )
        33           Pt  tau(  33) = (   0.8363154   0.2876025   1.8115266  )
        34           Pt  tau(  34) = (   0.3235651   0.5838310   1.8125122  )
        35           Pt  tau(  35) = (   0.6604528   0.5780149   1.8388046  )
        36           Pt  tau(  36) = (   0.9952001   0.5800796   1.8172486  )
        37           C   tau(  37) = (   0.5741120   0.4384049   2.0183506  )
        38           C   tau(  38) = (   0.4531257   0.5065897   2.1301597  )
        39           O   tau(  39) = (   0.3499667   0.4272777   2.1914146  )
        40           H   tau(  40) = (   0.6687357   0.3815429   2.0858243  )
        41           H   tau(  41) = (   0.4694210   0.6327238   2.1617043  )

     number of k points=    13  Marzari-Vanderbilt smearing, width (Ry)=  0.0200
                       cart. coord. in units 2pi/alat
        k(    1) = (   0.0000000   0.0000000   0.0000000), wk =   0.0800000
        k(    2) = (   0.0000000   0.2309401   0.0000000), wk =   0.1600000
        k(    3) = (   0.0000000   0.4618802   0.0000000), wk =   0.1600000
        k(    4) = (   0.2000000  -0.1154701   0.0000000), wk =   0.1600000
        k(    5) = (   0.2000000   0.1154701   0.0000000), wk =   0.1600000
        k(    6) = (   0.2000000   0.3464102   0.0000000), wk =   0.1600000
        k(    7) = (   0.2000000  -0.5773503   0.0000000), wk =   0.1600000
        k(    8) = (   0.2000000  -0.3464102   0.0000000), wk =   0.1600000
        k(    9) = (   0.4000000  -0.2309401   0.0000000), wk =   0.1600000
        k(   10) = (   0.4000000  -0.0000000   0.0000000), wk =   0.1600000
        k(   11) = (   0.4000000   0.2309401   0.0000000), wk =   0.1600000
        k(   12) = (   0.4000000  -0.6928203   0.0000000), wk =   0.1600000
        k(   13) = (   0.4000000  -0.4618802   0.0000000), wk =   0.1600000

     Dense  grid:   687717 G-vectors     FFT dimensions: (  80,  80, 243)

     Estimated max dynamical RAM per process >       8.37 GB

     Check: negative core charge=   -0.000002

     Initial potential from superposition of free atoms

     starting charge  375.99379, renormalised to  376.00000

     negative rho (up, down):  1.150E-02 0.000E+00


     %%%%%%%%%%%%%%%%%%%%%%%%%%%%%%%%%%%%%%%%%%%%%%%%%%%%%%%%%%%%%%%%%%%%%%%%
     %                                                                      %
     % You are using vdW-DF, which was implemented by the Thonhauser group. %
     % Please cite the following two papers that made this development      %
     % possible and the two reviews that describe the various versions:     %
     %                                                                      %
     %   T. Thonhauser et al., PRL 115, 136402 (2015).                      %
     %   T. Thonhauser et al., PRB 76, 125112 (2007).                       %
     %   K. Berland et al., Rep. Prog. Phys. 78, 066501 (2015).             %
     %   D.C. Langreth et al., J. Phys.: Condens. Matter 21, 084203 (2009). %
     %                                                                      %
     %                                                                      %
     % If you are calculating the stress with vdW-DF, please also cite:     %
     %                                                                      %
     %   R. Sabatini et al., J. Phys.: Condens. Matter 24, 424209 (2012).   %
     %                                                                      %
     %%%%%%%%%%%%%%%%%%%%%%%%%%%%%%%%%%%%%%%%%%%%%%%%%%%%%%%%%%%%%%%%%%%%%%%%


     Starting wfcs are  338 randomized atomic wfcs
     Checking if some PAW data can be deallocated... 

     total cpu time spent up to now is      322.5 secs

     Self-consistent Calculation

     iteration #  1     ecut=    60.00 Ry     beta= 0.70
     Davidson diagonalization with overlap
     ethr =  1.00E-02,  avg # of iterations =  2.0

     negative rho (up, down):  1.689E-02 0.000E+00

     total cpu time spent up to now is      905.8 secs

     total energy              =  -27836.27141778 Ry
     estimated scf accuracy    <       4.33085054 Ry

     iteration #  2     ecut=    60.00 Ry     beta= 0.70
     Davidson diagonalization with overlap
     ethr =  1.15E-03,  avg # of iterations =  2.2

     negative rho (up, down):  1.543E-02 0.000E+00

     total cpu time spent up to now is     1518.6 secs

     total energy              =  -27836.91059137 Ry
     estimated scf accuracy    <       1.16045079 Ry

     iteration #  3     ecut=    60.00 Ry     beta= 0.70
     Davidson diagonalization with overlap
     ethr =  3.09E-04,  avg # of iterations =  4.8

     negative rho (up, down):  1.384E-02 0.000E+00

     total cpu time spent up to now is     2169.2 secs

     total energy              =  -27837.04290751 Ry
     estimated scf accuracy    <       0.58318589 Ry

     iteration #  4     ecut=    60.00 Ry     beta= 0.70
     Davidson diagonalization with overlap
     ethr =  1.55E-04,  avg # of iterations =  5.3

     negative rho (up, down):  1.204E-02 0.000E+00

     total cpu time spent up to now is     2792.7 secs

     total energy              =  -27837.09105370 Ry
     estimated scf accuracy    <       0.16566970 Ry

     iteration #  5     ecut=    60.00 Ry     beta= 0.70
     Davidson diagonalization with overlap
     c_bands:  1 eigenvalues not converged
     c_bands:  1 eigenvalues not converged
     c_bands:  2 eigenvalues not converged
     ethr =  4.41E-05,  avg # of iterations = 12.9

     negative rho (up, down):  1.052E-02 0.000E+00

     total cpu time spent up to now is     3658.8 secs

     total energy              =  -27837.11974282 Ry
     estimated scf accuracy    <       0.06308145 Ry

     iteration #  6     ecut=    60.00 Ry     beta= 0.70
     Davidson diagonalization with overlap
     ethr =  1.68E-05,  avg # of iterations =  7.5

     negative rho (up, down):  1.002E-02 0.000E+00

     total cpu time spent up to now is     4347.7 secs

     total energy              =  -27837.12720409 Ry
     estimated scf accuracy    <       0.01031647 Ry

     iteration #  7     ecut=    60.00 Ry     beta= 0.70
     Davidson diagonalization with overlap
     c_bands:  1 eigenvalues not converged
     c_bands:  1 eigenvalues not converged
     c_bands:  1 eigenvalues not converged
     c_bands:  1 eigenvalues not converged
     c_bands:  1 eigenvalues not converged
     ethr =  2.74E-06,  avg # of iterations = 15.7

     negative rho (up, down):  1.011E-02 0.000E+00

     total cpu time spent up to now is     5265.1 secs

     total energy              =  -27837.13021151 Ry
     estimated scf accuracy    <       0.00566389 Ry

     iteration #  8     ecut=    60.00 Ry     beta= 0.70
     Davidson diagonalization with overlap
     c_bands:  1 eigenvalues not converged
     ethr =  1.51E-06,  avg # of iterations =  4.8

     negative rho (up, down):  1.041E-02 0.000E+00

     total cpu time spent up to now is     5866.2 secs

     total energy              =  -27837.13056345 Ry
     estimated scf accuracy    <       0.00227537 Ry

     iteration #  9     ecut=    60.00 Ry     beta= 0.70
     Davidson diagonalization with overlap
     c_bands:  1 eigenvalues not converged
     ethr =  6.05E-07,  avg # of iterations =  5.3

     negative rho (up, down):  1.083E-02 0.000E+00

     total cpu time spent up to now is     6462.0 secs

     total energy              =  -27837.13067025 Ry
     estimated scf accuracy    <       0.00087957 Ry

     iteration # 10     ecut=    60.00 Ry     beta= 0.70
     Davidson diagonalization with overlap
     ethr =  2.34E-07,  avg # of iterations =  3.6

     negative rho (up, down):  1.122E-02 0.000E+00

     total cpu time spent up to now is     7063.1 secs

     total energy              =  -27837.13074719 Ry
     estimated scf accuracy    <       0.00032615 Ry

     iteration # 11     ecut=    60.00 Ry     beta= 0.70
     Davidson diagonalization with overlap
     ethr =  8.67E-08,  avg # of iterations =  4.1

     negative rho (up, down):  1.162E-02 0.000E+00

     total cpu time spent up to now is     7707.6 secs

     total energy              =  -27837.13079511 Ry
     estimated scf accuracy    <       0.00018837 Ry

     iteration # 12     ecut=    60.00 Ry     beta= 0.70
     Davidson diagonalization with overlap
     ethr =  5.01E-08,  avg # of iterations =  2.0

     negative rho (up, down):  1.199E-02 0.000E+00

     total cpu time spent up to now is     8272.5 secs

     total energy              =  -27837.13080903 Ry
     estimated scf accuracy    <       0.00006379 Ry

     iteration # 13     ecut=    60.00 Ry     beta= 0.70
     Davidson diagonalization with overlap
     ethr =  1.70E-08,  avg # of iterations =  4.2

     negative rho (up, down):  1.212E-02 0.000E+00

     total cpu time spent up to now is     8976.6 secs

     total energy              =  -27837.13082344 Ry
     estimated scf accuracy    <       0.00001366 Ry

     iteration # 14     ecut=    60.00 Ry     beta= 0.70
     Davidson diagonalization with overlap
     ethr =  3.63E-09,  avg # of iterations =  4.2

     negative rho (up, down):  1.233E-02 0.000E+00

     total cpu time spent up to now is     9761.8 secs

     total energy              =  -27837.13082757 Ry
     estimated scf accuracy    <       0.00000581 Ry

     iteration # 15     ecut=    60.00 Ry     beta= 0.70
     Davidson diagonalization with overlap
     ethr =  1.54E-09,  avg # of iterations =  2.0

     negative rho (up, down):  1.235E-02 0.000E+00

     total cpu time spent up to now is    10324.6 secs

     total energy              =  -27837.13082787 Ry
     estimated scf accuracy    <       0.00000186 Ry

     iteration # 16     ecut=    60.00 Ry     beta= 0.70
     Davidson diagonalization with overlap
     ethr =  4.94E-10,  avg # of iterations =  2.3

     negative rho (up, down):  1.283E-02 0.000E+00

     total cpu time spent up to now is    10882.6 secs

     End of self-consistent calculation

          k = 0.0000 0.0000 0.0000 ( 85957 PWs)   bands (ev):

   -19.3206 -11.4970  -7.3967  -6.7782  -5.5526  -4.8706  -4.8098  -4.4093
    -4.3966  -4.3735  -4.3717  -4.3634  -4.3454  -4.3263  -4.1527  -3.8781
    -3.8299  -3.8242  -3.8051  -3.8017  -3.7778  -3.6793  -3.3806  -3.3587
    -3.3584  -3.3512  -3.3287  -3.2565  -3.1527  -3.1482  -3.1404  -3.1296
    -3.1090  -3.0374  -2.9391  -2.9249  -2.9225  -2.9218  -2.8969  -2.8879
    -2.8665  -2.8649  -2.8568  -2.8480  -2.8175  -2.7671  -2.3843  -2.3077
    -2.2978  -2.2888  -2.2750  -2.2691  -2.2122  -2.2092  -2.2037  -2.1665
    -2.0822  -2.0689  -2.0315  -2.0183  -1.9439  -1.6271  -1.5502  -1.4839
    -1.4803  -1.4599  -1.4247  -1.4126  -1.3752  -1.3172  -1.2969  -1.2942
    -1.2895  -1.2865  -1.2782  -1.2709  -1.2516  -1.2277  -1.2147  -1.2107
    -1.2043  -1.1978  -1.1840  -1.1662  -1.0964  -1.0788  -1.0724  -1.0492
    -1.0219  -0.9177  -0.9040  -0.8788  -0.8666  -0.8486  -0.8448  -0.8161
    -0.8035  -0.7963  -0.7568  -0.7350  -0.7124  -0.6753  -0.6401  -0.6393
    -0.5990  -0.5982  -0.5535  -0.5258  -0.4685  -0.4417  -0.4371  -0.4259
    -0.3897  -0.3477  -0.1961  -0.0134   0.0012   0.0120   0.0386   0.0594
     0.0674   0.0831   0.1039   0.1224   0.1730   0.2023   0.2191   0.2328
     0.2645   0.3224   0.3253   0.3420   0.3893   0.4252   0.4602   0.4786
     0.5399   0.5476   0.5562   0.5694   0.7348   0.7579   0.7765   0.7933
     0.7938   0.8136   0.8535   0.8584   0.9103   0.9875   1.0397   1.0503
     1.0629   1.0834   1.1105   1.1575   1.1663   1.1872   1.2141   1.2342
     1.2383   1.2392   1.2517   1.2557   1.2720   1.2788   1.2940   1.2981
     1.3364   1.3399   1.3723   1.3821   1.4074   1.4174   1.4612   1.4701
     1.4708   1.4845   1.4969   1.5083   1.5385   1.5506   1.6034   1.6093
     1.6096   1.6327   1.6430   1.6463   1.6767   1.7055   1.7208   1.7324
     1.7626   1.7648   1.7686   1.9076   1.9223   2.0136   2.0303   2.0434
     2.0649   2.0755   2.0783   2.4185   2.5221   2.9008   2.9341   2.9565
     2.9731   3.0101   3.8240   4.5923   4.9097   5.2341   5.2790   5.3054
     5.5670   5.8104   6.2904   6.7907   6.8497   6.8685   6.8855   6.8894
     6.9049   7.0082

          k = 0.0000 0.2309 0.0000 ( 85918 PWs)   bands (ev):

   -19.3206 -11.4966  -7.3928  -6.6345  -5.4171  -4.8928  -4.8655  -4.7415
    -4.4809  -4.4671  -4.2569  -4.1758  -4.1457  -4.1304  -4.0833  -3.9470
    -3.9015  -3.7683  -3.7520  -3.7419  -3.7290  -3.6434  -3.4479  -3.3333
    -3.3200  -3.3071  -3.2910  -3.2305  -3.2141  -3.1834  -3.1438  -3.1222
    -3.1140  -3.0852  -3.0432  -3.0227  -2.9496  -2.9259  -2.9171  -2.8881
    -2.8248  -2.7168  -2.7012  -2.6884  -2.6741  -2.6432  -2.4429  -2.4256
    -2.4040  -2.3546  -2.3371  -2.3115  -2.2942  -2.1846  -2.1475  -2.0868
    -2.0656  -2.0292  -2.0000  -1.9756  -1.9550  -1.7679  -1.6893  -1.6702
    -1.6277  -1.6068  -1.5677  -1.5317  -1.5102  -1.4735  -1.4541  -1.4349
    -1.4224  -1.3707  -1.3579  -1.3169  -1.2914  -1.2723  -1.2337  -1.1878
    -1.1698  -1.1527  -1.1150  -1.0984  -1.0744  -1.0603  -1.0320  -1.0034
    -0.9790  -0.9617  -0.9309  -0.8995  -0.8888  -0.8741  -0.8530  -0.8098
    -0.7903  -0.7672  -0.7478  -0.7256  -0.7089  -0.6890  -0.6781  -0.6407
    -0.6249  -0.6117  -0.5502  -0.5363  -0.5068  -0.4593  -0.4509  -0.4245
    -0.4172  -0.3822  -0.3722  -0.3448  -0.3381  -0.3148  -0.2581  -0.1232
    -0.0261  -0.0035   0.0099   0.0680   0.0817   0.0977   0.1036   0.1736
     0.2185   0.2647   0.3126   0.3424   0.3966   0.4180   0.4516   0.4751
     0.4937   0.5157   0.5305   0.5745   0.6188   0.6599   0.6844   0.6850
     0.6914   0.7686   0.8508   0.8680   0.8834   0.9054   0.9227   0.9554
     0.9715   1.0264   1.0287   1.0678   1.0808   1.1084   1.1337   1.1516
     1.1794   1.2044   1.2468   1.2779   1.3004   1.3190   1.3540   1.3840
     1.4150   1.4432   1.4672   1.4811   1.5194   1.5565   1.5820   1.6051
     1.6271   1.6512   1.6581   1.6813   1.7048   1.7190   1.7231   1.7354
     1.7759   1.7845   1.8780   1.9212   1.9400   1.9548   1.9645   1.9822
     2.0167   2.0235   2.0508   2.0665   2.1060   2.1717   2.1949   2.2293
     2.2842   2.3592   2.3743   2.3957   2.6772   2.7402   3.0289   3.4717
     3.5783   3.6316   3.8119   4.5686   4.7582   5.0216   5.2665   5.5041
     5.7065   5.7444   5.9818   6.0960   6.5261   6.6828   6.7443   6.9445
     7.0557   7.0681

          k = 0.0000 0.4619 0.0000 ( 85946 PWs)   bands (ev):

   -19.3206 -11.4959  -7.3875  -6.2174  -5.5871  -5.0555  -4.8621  -4.6760
    -4.5097  -4.5002  -4.3305  -4.1494  -3.9916  -3.8748  -3.8237  -3.7975
    -3.7813  -3.7119  -3.6448  -3.5891  -3.5677  -3.5609  -3.5407  -3.4329
    -3.4015  -3.3900  -3.3543  -3.3381  -3.3181  -3.2604  -3.2188  -3.2125
    -3.2010  -2.9864  -2.9690  -2.9533  -2.9361  -2.9253  -2.8896  -2.7226
    -2.7048  -2.6975  -2.6809  -2.6590  -2.6413  -2.4798  -2.4407  -2.3996
    -2.3825  -2.3504  -2.3185  -2.3015  -2.2466  -2.2337  -2.2121  -2.1846
    -2.1660  -2.1189  -2.0236  -2.0122  -1.9705  -1.9236  -1.8621  -1.8513
    -1.8181  -1.7902  -1.7248  -1.6898  -1.6319  -1.5973  -1.5642  -1.5488
    -1.5053  -1.4758  -1.4541  -1.4284  -1.3531  -1.3264  -1.3060  -1.2465
    -1.2383  -1.1961  -1.1793  -1.1665  -1.1410  -1.1269  -1.0958  -1.0769
    -1.0666  -1.0418  -1.0352  -1.0211  -1.0036  -0.9549  -0.9251  -0.9064
    -0.8834  -0.8676  -0.8519  -0.7904  -0.7514  -0.7206  -0.6922  -0.6591
    -0.6501  -0.6211  -0.6003  -0.5635  -0.5107  -0.4995  -0.4529  -0.4228
    -0.3887  -0.3448  -0.3212  -0.2775  -0.2076  -0.1805  -0.1209  -0.1017
    -0.0823  -0.0403  -0.0302   0.0007   0.0202   0.0505   0.0728   0.0949
     0.1071   0.1236   0.1374   0.1841   0.1984   0.2129   0.2350   0.3104
     0.3404   0.3657   0.3994   0.4240   0.4791   0.5465   0.5818   0.6192
     0.6709   0.7322   0.7485   0.8002   0.8513   0.8588   0.9007   0.9341
     0.9416   0.9505   1.0070   1.0140   1.0327   1.0653   1.1036   1.1364
     1.1718   1.2045   1.2146   1.2395   1.2752   1.3116   1.3713   1.4177
     1.4427   1.4852   1.5040   1.5258   1.5832   1.6057   1.6333   1.6546
     1.7037   1.7293   1.7563   1.7779   1.8114   1.8211   1.8973   1.9210
     1.9268   1.9583   1.9677   1.9783   1.9975   2.0139   2.1686   2.1758
     2.1936   2.2168   2.2276   2.3364   2.4396   2.5351   2.6437   2.8572
     2.9555   3.2392   3.2699   3.3671   3.4945   3.6582   3.8511   3.9856
     4.2241   4.4779   4.4864   4.5271   4.6859   4.7135   4.8237   4.9742
     5.1112   5.2314   5.3189   5.6524   5.8996   6.1319   6.3717   6.5968
     6.8967   7.0115

          k = 0.2000-0.1155 0.0000 ( 85918 PWs)   bands (ev):

   -19.3206 -11.4968  -7.3943  -6.6344  -5.4211  -4.9283  -4.8554  -4.7155
    -4.4872  -4.4714  -4.2579  -4.1811  -4.1380  -4.1239  -4.1069  -3.9143
    -3.8738  -3.7951  -3.7607  -3.7356  -3.7334  -3.6631  -3.4401  -3.3269
    -3.3223  -3.3152  -3.2526  -3.2367  -3.2008  -3.1910  -3.1546  -3.1485
    -3.1280  -3.0440  -3.0279  -3.0245  -2.9473  -2.9368  -2.9009  -2.8786
    -2.8138  -2.7218  -2.7058  -2.6990  -2.6662  -2.6399  -2.4559  -2.4235
    -2.3935  -2.3546  -2.3510  -2.3348  -2.2722  -2.1554  -2.1502  -2.0787
    -2.0618  -2.0362  -2.0122  -1.9944  -1.9162  -1.7504  -1.7197  -1.6578
    -1.6142  -1.5946  -1.5426  -1.5359  -1.5067  -1.4746  -1.4573  -1.4456
    -1.4207  -1.3813  -1.3625  -1.3212  -1.2844  -1.2756  -1.2408  -1.1864
    -1.1835  -1.1504  -1.1125  -1.0991  -1.0819  -1.0533  -1.0102  -0.9966
    -0.9918  -0.9334  -0.9185  -0.8996  -0.8846  -0.8735  -0.8407  -0.8128
    -0.7875  -0.7782  -0.7463  -0.7272  -0.7112  -0.7018  -0.6704  -0.6588
    -0.6416  -0.6196  -0.5739  -0.5394  -0.5027  -0.4859  -0.4369  -0.4328
    -0.4268  -0.3920  -0.3642  -0.3628  -0.3477  -0.3363  -0.3174  -0.0848
    -0.0103   0.0162   0.0291   0.0572   0.0865   0.0922   0.1044   0.1514
     0.1608   0.2231   0.3277   0.3493   0.3975   0.4099   0.4584   0.4759
     0.4891   0.5266   0.5321   0.5796   0.6178   0.6426   0.6563   0.6905
     0.7002   0.7640   0.8465   0.8632   0.8706   0.8964   0.9021   0.9211
     0.9917   1.0011   1.0527   1.0664   1.0960   1.1104   1.1355   1.1542
     1.1751   1.1987   1.2413   1.2817   1.2985   1.3074   1.3677   1.3912
     1.4309   1.4396   1.4607   1.5096   1.5224   1.5575   1.5865   1.5913
     1.6341   1.6543   1.6805   1.6832   1.7094   1.7140   1.7324   1.7342
     1.7783   1.7832   1.8991   1.9149   1.9222   1.9702   1.9967   1.9981
     2.0237   2.0522   2.0530   2.0663   2.1131   2.1607   2.1912   2.2475
     2.3512   2.3550   2.3840   2.4204   2.5294   2.7328   3.2275   3.2869
     3.5632   3.6923   3.9596   4.3349   4.7087   5.1945   5.3429   5.4615
     5.6945   5.7591   5.9760   6.0851   6.4069   6.6638   6.7689   6.9086
     7.0646   7.0771

          k = 0.2000 0.1155 0.0000 ( 85918 PWs)   bands (ev):

   -19.3206 -11.4966  -7.3919  -6.6350  -5.4185  -4.9352  -4.8153  -4.7453
    -4.4805  -4.4749  -4.2569  -4.1697  -4.1452  -4.1311  -4.0754  -3.9453
    -3.9021  -3.8103  -3.7505  -3.7406  -3.6984  -3.6442  -3.4463  -3.3344
    -3.3176  -3.3078  -3.2938  -3.2303  -3.2147  -3.1808  -3.1449  -3.1216
    -3.1139  -3.0867  -3.0419  -3.0219  -2.9486  -2.9266  -2.9187  -2.8910
    -2.8251  -2.7184  -2.7023  -2.6885  -2.6699  -2.6408  -2.4432  -2.4244
    -2.4036  -2.3665  -2.3367  -2.3121  -2.2890  -2.1805  -2.1523  -2.0959
    -2.0609  -2.0279  -1.9959  -1.9798  -1.9507  -1.7662  -1.6909  -1.6678
    -1.6273  -1.6071  -1.5648  -1.5305  -1.5108  -1.4763  -1.4555  -1.4370
    -1.4248  -1.3681  -1.3569  -1.3128  -1.2911  -1.2675  -1.2334  -1.1877
    -1.1744  -1.1552  -1.1140  -1.0982  -1.0744  -1.0616  -1.0306  -0.9993
    -0.9794  -0.9592  -0.9300  -0.8990  -0.8884  -0.8765  -0.8551  -0.8098
    -0.7905  -0.7650  -0.7462  -0.7275  -0.7109  -0.6888  -0.6777  -0.6413
    -0.6257  -0.6069  -0.5507  -0.5384  -0.5147  -0.4546  -0.4487  -0.4257
    -0.4165  -0.3809  -0.3734  -0.3440  -0.3388  -0.3211  -0.2638  -0.1194
    -0.0231  -0.0036   0.0083   0.0663   0.0823   0.0967   0.1037   0.1727
     0.2408   0.2663   0.3049   0.3386   0.3941   0.4180   0.4558   0.4746
     0.4940   0.5178   0.5308   0.5693   0.6179   0.6609   0.6793   0.6862
     0.6967   0.7705   0.8384   0.8700   0.8826   0.9106   0.9153   0.9468
     0.9731   1.0219   1.0401   1.0690   1.0805   1.1163   1.1328   1.1522
     1.1760   1.1989   1.2488   1.2829   1.3004   1.3080   1.3515   1.3819
     1.4138   1.4494   1.4674   1.4805   1.5213   1.5586   1.5812   1.6045
     1.6267   1.6513   1.6573   1.6807   1.7043   1.7181   1.7227   1.7354
     1.7744   1.7839   1.8781   1.9229   1.9402   1.9539   1.9665   1.9830
     2.0187   2.0246   2.0524   2.0680   2.1076   2.1709   2.1951   2.2264
     2.2717   2.3581   2.3700   2.3922   2.7074   2.7533   3.0130   3.4776
     3.5583   3.6389   3.7909   4.6483   4.7519   4.9687   5.2723   5.5132
     5.7049   5.7359   5.9731   6.1067   6.5553   6.6742   6.7510   6.9050
     7.0637   7.1164

          k = 0.2000 0.3464 0.0000 ( 85904 PWs)   bands (ev):

   -19.3206 -11.4960  -7.3868  -6.3539  -5.1730  -5.1556  -5.1198  -4.8470
    -4.6366  -4.0791  -4.0548  -4.0480  -4.0395  -4.0167  -3.9883  -3.9458
    -3.8875  -3.8610  -3.8133  -3.6845  -3.4822  -3.4783  -3.4650  -3.4486
    -3.3857  -3.3775  -3.2454  -3.2369  -3.2318  -3.2104  -3.1828  -3.1242
    -3.1014  -3.0707  -3.0429  -3.0291  -2.9919  -2.9597  -2.9436  -2.9180
    -2.8430  -2.8013  -2.5993  -2.5322  -2.5091  -2.4958  -2.4536  -2.4316
    -2.4125  -2.3704  -2.3607  -2.3444  -2.2628  -2.1950  -2.1857  -2.1140
    -2.0821  -2.0393  -2.0080  -1.9860  -1.9755  -1.9290  -1.8912  -1.7937
    -1.7314  -1.7245  -1.6923  -1.6330  -1.6083  -1.5857  -1.5771  -1.5485
    -1.5307  -1.5103  -1.3840  -1.3513  -1.3450  -1.3341  -1.2894  -1.2638
    -1.2387  -1.2084  -1.1924  -1.1416  -1.1288  -1.0814  -1.0686  -1.0448
    -1.0201  -1.0020  -0.9919  -0.9529  -0.9478  -0.8916  -0.8741  -0.8587
    -0.8259  -0.7945  -0.7637  -0.7490  -0.7276  -0.6995  -0.6943  -0.6746
    -0.6424  -0.6206  -0.6136  -0.6015  -0.5879  -0.5506  -0.5193  -0.5093
    -0.4582  -0.4294  -0.3889  -0.3716  -0.3095  -0.3030  -0.2672  -0.1929
    -0.1009  -0.0679  -0.0438   0.0315   0.0442   0.0915   0.1122   0.1168
     0.1368   0.1554   0.1895   0.2055   0.2416   0.2584   0.3209   0.3801
     0.4576   0.4776   0.4978   0.5209   0.5427   0.5670   0.6018   0.6316
     0.6906   0.7380   0.7611   0.7956   0.8106   0.8564   0.8892   0.9167
     0.9452   0.9600   1.0019   1.0060   1.0313   1.0503   1.0553   1.0803
     1.1072   1.1470   1.1800   1.2216   1.2699   1.3015   1.3863   1.4128
     1.4876   1.5547   1.5968   1.6116   1.6414   1.6750   1.7133   1.7291
     1.7466   1.7627   1.7799   1.8074   1.8110   1.8292   1.8567   1.8664
     1.8892   1.9468   1.9757   1.9968   2.0152   2.0335   2.0713   2.1499
     2.2182   2.2365   2.2737   2.3163   2.3438   2.3591   2.4517   2.4841
     2.5553   2.9583   3.0322   3.2833   3.3562   3.5527   3.5734   3.6215
     3.9593   4.2706   4.4089   4.4767   4.5254   4.7380   5.1100   5.2653
     5.4397   5.6837   5.7526   5.9373   6.2361   6.3956   6.4786   6.5251
     6.5662   6.8547

          k = 0.2000-0.5774 0.0000 ( 85962 PWs)   bands (ev):

   -19.3206 -11.4958  -7.3864  -5.8315  -5.8151  -5.2299  -4.8742  -4.8334
    -4.6095  -4.3955  -4.0524  -4.0285  -3.9071  -3.8837  -3.7811  -3.7684
    -3.7114  -3.6615  -3.6477  -3.5595  -3.5438  -3.5363  -3.5063  -3.4940
    -3.4694  -3.4113  -3.3418  -3.3308  -3.3236  -3.2797  -3.2718  -3.2104
    -3.1253  -3.0702  -3.0067  -2.9608  -2.9485  -2.9149  -2.8873  -2.8686
    -2.8111  -2.7705  -2.7067  -2.6866  -2.5080  -2.4973  -2.4612  -2.3857
    -2.3617  -2.3431  -2.3140  -2.2353  -2.1718  -2.1332  -2.1177  -2.0920
    -2.0719  -2.0332  -2.0245  -1.9882  -1.9203  -1.9007  -1.8790  -1.8625
    -1.8397  -1.8227  -1.8097  -1.7725  -1.7308  -1.7097  -1.6582  -1.5943
    -1.5668  -1.5386  -1.4729  -1.4388  -1.4112  -1.3915  -1.3590  -1.3488
    -1.3258  -1.2797  -1.2529  -1.2374  -1.2042  -1.1743  -1.1468  -1.1222
    -1.0701  -1.0225  -1.0053  -1.0004  -0.9810  -0.9259  -0.8612  -0.8228
    -0.8163  -0.7887  -0.7652  -0.7474  -0.7372  -0.7002  -0.6849  -0.6765
    -0.6606  -0.6530  -0.6200  -0.6033  -0.5710  -0.5662  -0.5577  -0.5395
    -0.5252  -0.5122  -0.4503  -0.4062  -0.2679  -0.2416  -0.1893  -0.1581
    -0.1429  -0.0814  -0.0674  -0.0214   0.0009   0.0121   0.0366   0.0569
     0.0962   0.1264   0.1650   0.1920   0.2262   0.2470   0.2850   0.3160
     0.3517   0.3928   0.4748   0.5087   0.5723   0.6021   0.6166   0.6293
     0.6691   0.6959   0.7199   0.7403   0.7645   0.7811   0.7960   0.8538
     0.8832   0.9106   0.9302   0.9588   0.9802   0.9966   1.0328   1.0789
     1.1121   1.2096   1.2222   1.2818   1.3046   1.4079   1.4305   1.4425
     1.4774   1.5171   1.5698   1.6008   1.6494   1.7092   1.7317   1.7495
     1.7762   1.7878   1.8071   1.8349   1.8539   1.9247   1.9409   1.9504
     1.9771   1.9905   2.0032   2.0089   2.0811   2.1415   2.1804   2.2107
     2.2259   2.2328   2.2817   2.3124   2.4025   2.5180   2.9375   3.0640
     3.3740   3.3877   3.6282   3.6892   3.7400   3.7594   3.9195   4.1457
     4.3711   4.3956   4.5050   4.7958   4.8514   4.9667   4.9910   5.0985
     5.1749   5.2662   5.4120   5.5650   5.6893   5.7785   5.8693   6.2785
     6.4618   6.4866

          k = 0.2000-0.3464 0.0000 ( 85904 PWs)   bands (ev):

   -19.3206 -11.4963  -7.3907  -6.3530  -5.1937  -5.1376  -5.1260  -4.8495
    -4.6472  -4.0871  -4.0664  -4.0531  -4.0329  -3.9901  -3.9847  -3.9649
    -3.8880  -3.8576  -3.7868  -3.6775  -3.5047  -3.4895  -3.4677  -3.4574
    -3.3907  -3.3686  -3.2554  -3.2422  -3.2237  -3.2035  -3.1472  -3.1271
    -3.0823  -3.0756  -3.0506  -3.0221  -2.9829  -2.9701  -2.9314  -2.9010
    -2.8278  -2.8128  -2.5820  -2.5060  -2.4935  -2.4653  -2.4481  -2.4258
    -2.4118  -2.4030  -2.3548  -2.3460  -2.2138  -2.2050  -2.1754  -2.1523
    -2.0804  -2.0547  -2.0109  -1.9950  -1.9627  -1.9256  -1.8890  -1.7850
    -1.7299  -1.7225  -1.6779  -1.6513  -1.6055  -1.5928  -1.5737  -1.5433
    -1.5092  -1.5013  -1.3833  -1.3722  -1.3535  -1.3202  -1.3058  -1.2661
    -1.2540  -1.2071  -1.1931  -1.1719  -1.1214  -1.0674  -1.0614  -1.0406
    -1.0247  -1.0016  -0.9817  -0.9612  -0.9385  -0.9239  -0.8979  -0.8751
    -0.8526  -0.7881  -0.7634  -0.7479  -0.7290  -0.7048  -0.6797  -0.6623
    -0.6491  -0.6262  -0.6102  -0.5973  -0.5831  -0.5708  -0.5255  -0.5170
    -0.4964  -0.4395  -0.4249  -0.3763  -0.2974  -0.2894  -0.2510  -0.1800
    -0.1245  -0.0800  -0.0629   0.0156   0.0446   0.0693   0.0876   0.1095
     0.1305   0.1534   0.1986   0.2113   0.2313   0.2709   0.3406   0.4054
     0.4299   0.4701   0.4872   0.5060   0.5260   0.5946   0.6118   0.6657
     0.6949   0.7161   0.7531   0.7755   0.8190   0.8468   0.8818   0.9079
     0.9387   0.9664   0.9857   1.0205   1.0354   1.0506   1.0727   1.0770
     1.0971   1.1101   1.1662   1.2487   1.2719   1.3502   1.3775   1.4043
     1.5025   1.5571   1.5908   1.5971   1.6325   1.6861   1.7086   1.7259
     1.7497   1.7690   1.7972   1.8048   1.8126   1.8326   1.8517   1.8683
     1.9021   1.9424   1.9775   1.9986   2.0135   2.0337   2.0795   2.1584
     2.2046   2.2481   2.2674   2.3107   2.3302   2.3497   2.4365   2.4872
     2.7558   2.9728   3.0308   3.1227   3.3646   3.5614   3.5769   3.8510
     3.9718   4.2673   4.4233   4.4892   4.5196   4.6261   5.0716   5.1717
     5.5114   5.6889   5.8494   5.9682   6.0396   6.4502   6.4714   6.5198
     6.5891   6.7087

          k = 0.4000-0.2309 0.0000 ( 85946 PWs)   bands (ev):

   -19.3206 -11.4964  -7.3912  -6.2185  -5.5917  -5.0825  -4.8620  -4.6719
    -4.5211  -4.5116  -4.3083  -4.1346  -3.9935  -3.8735  -3.8343  -3.7890
    -3.7771  -3.7136  -3.6471  -3.6201  -3.5733  -3.5595  -3.5451  -3.4354
    -3.4021  -3.3958  -3.3638  -3.3445  -3.3223  -3.2506  -3.2129  -3.2109
    -3.0206  -2.9890  -2.9616  -2.9570  -2.9357  -2.9231  -2.8948  -2.7372
    -2.6974  -2.6916  -2.6749  -2.6727  -2.6314  -2.4760  -2.3938  -2.3907
    -2.3702  -2.3644  -2.3314  -2.2894  -2.2643  -2.2287  -2.2141  -2.1777
    -2.1579  -2.1291  -2.0189  -1.9904  -1.9852  -1.9423  -1.8499  -1.8243
    -1.8032  -1.7837  -1.7359  -1.6554  -1.6285  -1.5910  -1.5483  -1.5327
    -1.5291  -1.4680  -1.4493  -1.4220  -1.3587  -1.3530  -1.3209  -1.2713
    -1.2287  -1.2168  -1.2105  -1.1718  -1.1392  -1.1112  -1.0853  -1.0831
    -1.0697  -1.0610  -1.0533  -1.0121  -0.9855  -0.9716  -0.9174  -0.9091
    -0.8807  -0.8620  -0.8556  -0.8287  -0.7846  -0.7170  -0.7119  -0.6539
    -0.6499  -0.6147  -0.6101  -0.5913  -0.4996  -0.4918  -0.4476  -0.4389
    -0.4062  -0.3789  -0.3674  -0.3363  -0.2253  -0.1624  -0.1400  -0.1105
    -0.0833  -0.0259  -0.0151   0.0185   0.0196   0.0516   0.0658   0.0979
     0.1043   0.1259   0.1498   0.1734   0.1773   0.2254   0.2305   0.2703
     0.3293   0.3509   0.3694   0.4625   0.4840   0.5472   0.5595   0.6425
     0.6470   0.6909   0.7935   0.8030   0.8174   0.8705   0.8928   0.9055
     0.9227   0.9714   0.9980   1.0059   1.0244   1.0550   1.1030   1.1365
     1.1832   1.1854   1.2092   1.2338   1.2582   1.3061   1.3618   1.3828
     1.4690   1.4738   1.5129   1.5656   1.5734   1.6083   1.6156   1.6697
     1.7032   1.7264   1.7715   1.7919   1.8085   1.8241   1.8912   1.9303
     1.9523   1.9598   1.9767   1.9844   2.0185   2.0232   2.1824   2.1961
     2.2034   2.2190   2.2259   2.3536   2.4398   2.6113   2.6416   2.8946
     2.9972   3.2502   3.2552   3.5111   3.5505   3.6792   3.7289   4.0127
     4.1829   4.4739   4.4807   4.5326   4.6799   4.7069   4.7881   5.0189
     5.1172   5.2725   5.4376   5.5510   5.8229   6.0718   6.3353   6.6538
     6.9059   7.0286

          k = 0.4000-0.0000 0.0000 ( 85904 PWs)   bands (ev):

   -19.3206 -11.4964  -7.3892  -6.3541  -5.1940  -5.1457  -5.1281  -4.8428
    -4.6460  -4.0779  -4.0658  -4.0458  -4.0267  -3.9921  -3.9893  -3.9693
    -3.8858  -3.8632  -3.7974  -3.6784  -3.5050  -3.4864  -3.4673  -3.4557
    -3.3931  -3.3655  -3.2554  -3.2412  -3.2242  -3.2042  -3.1453  -3.1253
    -3.0811  -3.0719  -3.0472  -3.0276  -2.9830  -2.9695  -2.9277  -2.9051
    -2.8298  -2.8130  -2.5822  -2.5083  -2.4892  -2.4685  -2.4473  -2.4363
    -2.4119  -2.4061  -2.3576  -2.3451  -2.2242  -2.2068  -2.1631  -2.1484
    -2.0821  -2.0493  -2.0106  -1.9959  -1.9617  -1.9251  -1.8948  -1.7845
    -1.7285  -1.7232  -1.6757  -1.6471  -1.6035  -1.5901  -1.5753  -1.5444
    -1.5110  -1.4988  -1.3805  -1.3739  -1.3502  -1.3184  -1.3064  -1.2662
    -1.2509  -1.2075  -1.1935  -1.1731  -1.1224  -1.0677  -1.0591  -1.0390
    -1.0274  -1.0021  -0.9811  -0.9628  -0.9372  -0.9245  -0.9004  -0.8767
    -0.8495  -0.7863  -0.7619  -0.7496  -0.7255  -0.7073  -0.6784  -0.6636
    -0.6480  -0.6277  -0.6086  -0.5972  -0.5820  -0.5719  -0.5263  -0.5209
    -0.4970  -0.4370  -0.4244  -0.3783  -0.2997  -0.2867  -0.2544  -0.1850
    -0.1200  -0.0786  -0.0631   0.0184   0.0441   0.0669   0.0822   0.1080
     0.1335   0.1545   0.1981   0.2114   0.2316   0.2737   0.3413   0.4064
     0.4269   0.4688   0.4880   0.5072   0.5301   0.5905   0.6111   0.6591
     0.6964   0.7173   0.7578   0.7791   0.8157   0.8428   0.8703   0.9106
     0.9424   0.9670   0.9914   1.0219   1.0354   1.0522   1.0712   1.0785
     1.0950   1.1096   1.1574   1.2343   1.2736   1.3565   1.3818   1.4085
     1.5038   1.5579   1.5908   1.6009   1.6299   1.6828   1.7110   1.7268
     1.7508   1.7688   1.7942   1.8046   1.8124   1.8309   1.8526   1.8664
     1.9035   1.9394   1.9787   1.9981   2.0124   2.0339   2.0799   2.1566
     2.2056   2.2499   2.2691   2.3075   2.3379   2.3502   2.4387   2.4881
     2.7213   2.9781   3.0310   3.1577   3.3698   3.5660   3.5814   3.8097
     3.9670   4.2461   4.4287   4.4960   4.5281   4.6560   5.0966   5.1913
     5.4714   5.6894   5.8539   5.9971   6.0382   6.4320   6.4722   6.5105
     6.5900   6.7064

          k = 0.4000 0.2309 0.0000 ( 85946 PWs)   bands (ev):

   -19.3206 -11.4960  -7.3852  -6.2188  -5.5905  -5.0653  -4.8631  -4.6665
    -4.5128  -4.4970  -4.3255  -4.1390  -3.9907  -3.8763  -3.8346  -3.8025
    -3.7904  -3.7237  -3.6144  -3.5909  -3.5681  -3.5570  -3.5443  -3.4341
    -3.4012  -3.3869  -3.3533  -3.3369  -3.3189  -3.2632  -3.2182  -3.2105
    -3.2019  -2.9893  -2.9677  -2.9514  -2.9354  -2.9253  -2.8893  -2.7204
    -2.7046  -2.7003  -2.6829  -2.6612  -2.6327  -2.4829  -2.4601  -2.4034
    -2.3831  -2.3493  -2.3204  -2.2994  -2.2475  -2.2293  -2.2121  -2.1871
    -2.1662  -2.1135  -2.0230  -2.0118  -1.9697  -1.9252  -1.8580  -1.8495
    -1.8153  -1.7894  -1.7321  -1.6832  -1.6307  -1.5977  -1.5634  -1.5511
    -1.5056  -1.4741  -1.4504  -1.4227  -1.3534  -1.3288  -1.3068  -1.2455
    -1.2374  -1.1935  -1.1789  -1.1658  -1.1403  -1.1258  -1.0954  -1.0764
    -1.0659  -1.0430  -1.0355  -1.0210  -1.0016  -0.9622  -0.9255  -0.9044
    -0.8834  -0.8670  -0.8525  -0.7894  -0.7499  -0.7220  -0.6936  -0.6626
    -0.6525  -0.6202  -0.5995  -0.5662  -0.5143  -0.5011  -0.4545  -0.4223
    -0.3896  -0.3438  -0.3218  -0.2701  -0.2108  -0.1849  -0.1117  -0.1025
    -0.0842  -0.0403  -0.0301   0.0044   0.0215   0.0544   0.0760   0.0955
     0.1065   0.1242   0.1479   0.1843   0.1896   0.2078   0.2318   0.3126
     0.3396   0.3659   0.3929   0.4250   0.4732   0.5464   0.5858   0.6136
     0.6703   0.7272   0.7494   0.7998   0.8518   0.8540   0.9003   0.9362
     0.9434   0.9525   1.0033   1.0215   1.0357   1.0759   1.0950   1.1371
     1.1743   1.2049   1.2146   1.2379   1.2521   1.3221   1.3703   1.4267
     1.4430   1.4835   1.5045   1.5269   1.5782   1.6046   1.6333   1.6581
     1.7043   1.7246   1.7552   1.7780   1.8110   1.8204   1.8885   1.9200
     1.9276   1.9540   1.9667   1.9802   1.9986   2.0153   2.1681   2.1764
     2.1931   2.2207   2.2286   2.3364   2.4396   2.5345   2.6574   2.8472
     2.9611   3.2364   3.2697   3.3441   3.4992   3.6549   3.8423   4.0024
     4.2508   4.4833   4.4955   4.5720   4.6349   4.7222   4.8350   4.9549
     5.0971   5.1667   5.3877   5.6852   5.9063   6.1397   6.3580   6.6094
     6.9095   7.0560

          k = 0.4000-0.6928 0.0000 ( 85962 PWs)   bands (ev):

   -19.3206 -11.4959  -7.3849  -5.8302  -5.8201  -5.2252  -4.8867  -4.8453
    -4.5774  -4.4047  -4.0461  -4.0318  -3.9071  -3.8810  -3.8022  -3.7649
    -3.6988  -3.6625  -3.6454  -3.5654  -3.5431  -3.5335  -3.5111  -3.4919
    -3.4687  -3.4110  -3.3400  -3.3320  -3.3230  -3.2795  -3.2696  -3.2105
    -3.1222  -3.0699  -3.0058  -2.9611  -2.9495  -2.9127  -2.8869  -2.8687
    -2.8222  -2.7637  -2.7050  -2.6853  -2.5065  -2.4965  -2.4683  -2.3874
    -2.3798  -2.3437  -2.3111  -2.2270  -2.1726  -2.1350  -2.1160  -2.0942
    -2.0729  -2.0318  -2.0195  -1.9891  -1.9139  -1.9004  -1.8788  -1.8617
    -1.8371  -1.8253  -1.8118  -1.7737  -1.7380  -1.7038  -1.6551  -1.5938
    -1.5656  -1.5376  -1.4756  -1.4366  -1.4090  -1.3910  -1.3600  -1.3508
    -1.3231  -1.2803  -1.2522  -1.2337  -1.2017  -1.1745  -1.1468  -1.1289
    -1.0713  -1.0219  -1.0054  -0.9999  -0.9810  -0.9256  -0.8609  -0.8225
    -0.8116  -0.7885  -0.7653  -0.7457  -0.7363  -0.7029  -0.6866  -0.6779
    -0.6552  -0.6537  -0.6246  -0.6007  -0.5726  -0.5683  -0.5567  -0.5388
    -0.5259  -0.5101  -0.4501  -0.4146  -0.2672  -0.2411  -0.1901  -0.1595
    -0.1423  -0.0828  -0.0665  -0.0207  -0.0003   0.0143   0.0346   0.0566
     0.0996   0.1259   0.1636   0.1888   0.2296   0.2507   0.2839   0.3172
     0.3435   0.4035   0.4774   0.5073   0.5703   0.5950   0.6098   0.6270
     0.6703   0.6982   0.7264   0.7447   0.7633   0.7782   0.8000   0.8485
     0.8820   0.9122   0.9338   0.9637   0.9780   0.9993   1.0346   1.0798
     1.1032   1.1947   1.2189   1.2782   1.3119   1.4169   1.4339   1.4445
     1.4766   1.5142   1.5727   1.6012   1.6477   1.7072   1.7344   1.7481
     1.7723   1.7862   1.8053   1.8370   1.8503   1.9250   1.9426   1.9491
     1.9740   1.9864   2.0002   2.0104   2.0810   2.1421   2.1825   2.2117
     2.2267   2.2346   2.2830   2.3238   2.4027   2.5217   2.9256   3.0524
     3.3733   3.3842   3.6303   3.6839   3.7419   3.7617   3.9719   4.1231
     4.3604   4.3928   4.4899   4.8064   4.9034   4.9269   4.9890   5.0814
     5.1786   5.2729   5.4110   5.5775   5.7507   5.7808   5.8583   6.2560
     6.4555   6.4825

          k = 0.4000-0.4619 0.0000 ( 85962 PWs)   bands (ev):

   -19.3206 -11.4961  -7.3886  -5.8475  -5.8027  -5.2206  -4.9027  -4.8651
    -4.5829  -4.3580  -4.0894  -4.0203  -3.9061  -3.8861  -3.7990  -3.7595
    -3.7164  -3.6675  -3.6472  -3.5792  -3.5478  -3.5206  -3.5033  -3.4947
    -3.4604  -3.3781  -3.3557  -3.3240  -3.3163  -3.2949  -3.2829  -3.1802
    -3.1054  -3.0673  -2.9638  -2.9434  -2.9410  -2.9145  -2.9027  -2.8676
    -2.8067  -2.7873  -2.7072  -2.6803  -2.5170  -2.4888  -2.4575  -2.3956
    -2.3478  -2.3233  -2.2923  -2.2349  -2.1827  -2.1499  -2.1140  -2.1004
    -2.0747  -2.0160  -1.9982  -1.9779  -1.9307  -1.8962  -1.8771  -1.8499
    -1.8450  -1.8242  -1.8200  -1.7744  -1.7123  -1.6644  -1.6404  -1.6047
    -1.5862  -1.5315  -1.5016  -1.4402  -1.4291  -1.3882  -1.3585  -1.3453
    -1.3346  -1.2812  -1.2569  -1.2412  -1.2195  -1.1738  -1.1607  -1.1476
    -1.0683  -1.0244  -1.0140  -1.0023  -0.9893  -0.9244  -0.8828  -0.8290
    -0.8142  -0.7947  -0.7733  -0.7538  -0.7386  -0.7205  -0.6927  -0.6843
    -0.6649  -0.6487  -0.6199  -0.6057  -0.5735  -0.5654  -0.5506  -0.5433
    -0.5240  -0.4900  -0.4885  -0.4056  -0.2966  -0.2431  -0.1857  -0.1711
    -0.1071  -0.0817  -0.0590  -0.0177   0.0112   0.0228   0.0446   0.0588
     0.1114   0.1195   0.1602   0.1644   0.2125   0.2505   0.3061   0.3126
     0.3310   0.3760   0.4495   0.5128   0.5399   0.5723   0.6368   0.6498
     0.6609   0.6879   0.7191   0.7400   0.7514   0.7798   0.8002   0.8293
     0.8787   0.9196   0.9244   0.9649   0.9923   1.0109   1.0145   1.0331
     1.1481   1.1646   1.2356   1.2640   1.3364   1.3634   1.4325   1.4473
     1.5430   1.5486   1.5642   1.5767   1.6556   1.6924   1.7312   1.7525
     1.7642   1.7970   1.8013   1.8582   1.8684   1.9292   1.9461   1.9622
     1.9720   1.9954   2.0010   2.0085   2.0865   2.1689   2.1913   2.2028
     2.2191   2.2330   2.2826   2.2975   2.3875   2.4707   3.0128   3.2907
     3.3694   3.3863   3.5502   3.6447   3.7431   3.7858   3.8107   4.2701
     4.3663   4.4266   4.5547   4.8273   4.8546   4.9489   4.9742   5.0848
     5.2382   5.3034   5.3432   5.4027   5.6073   5.8073   5.9496   6.3168
     6.4673   6.5015

     the Fermi energy is     1.9972 ev

!    total energy              =  -27837.13082665 Ry

     total all-electron energy =  -1326948.271328 Ry
     estimated scf accuracy    <       0.00000063 Ry
     smearing contrib. (-TS)   =       0.00285717 Ry
     internal energy E=F+TS    =  -27837.13368381 Ry

     The total energy is F=E-TS. E is the sum of the following terms:
     one-electron contribution =  -24909.14984797 Ry
     hartree contribution      =   12761.47166855 Ry
     xc contribution           =    -908.71831795 Ry
     ewald contribution        =   10716.46898351 Ry
     one-center paw contrib.   =  -25497.20616995 Ry

     convergence has been achieved in  16 iterations

     negative rho (up, down):  1.283E-02 0.000E+00

     Forces acting on atoms (cartesian axes, Ry/au):

     atom    1 type  1   force =    -0.00088369   -0.00182417   -0.00547609
     atom    2 type  1   force =    -0.00039683    0.00007678   -0.00247579
     atom    3 type  1   force =     0.00082790   -0.00032959   -0.00380411
     atom    4 type  1   force =     0.00109672    0.00158034   -0.00545952
     atom    5 type  1   force =    -0.00029404   -0.00030064   -0.00310291
     atom    6 type  1   force =     0.00037810   -0.00052889   -0.00331758
     atom    7 type  1   force =    -0.00010777   -0.00004805   -0.00417688
     atom    8 type  1   force =     0.00005866    0.00029012   -0.00313851
     atom    9 type  1   force =     0.00061638   -0.00049102   -0.00362567
     atom   10 type  1   force =     0.00130296   -0.00070961   -0.00178492
     atom   11 type  1   force =    -0.00213747    0.00177205    0.00937910
     atom   12 type  1   force =    -0.00026394    0.00063113   -0.00088817
     atom   13 type  1   force =     0.00013933   -0.00285484    0.00525105
     atom   14 type  1   force =    -0.00025231    0.00030092    0.00936069
     atom   15 type  1   force =    -0.00080562    0.00014137   -0.00190663
     atom   16 type  1   force =     0.00273474    0.00136800    0.00551801
     atom   17 type  1   force =    -0.00258132    0.00107692    0.00927199
     atom   18 type  1   force =    -0.00082930    0.00044800    0.00153848
     atom   19 type  1   force =     0.00017878   -0.00012994   -0.00009030
     atom   20 type  1   force =     0.00001417   -0.00028509    0.00014486
     atom   21 type  1   force =    -0.00022303    0.00035702   -0.00039307
     atom   22 type  1   force =    -0.00008623   -0.00001600   -0.00021923
     atom   23 type  1   force =    -0.00021393    0.00007288    0.00007065
     atom   24 type  1   force =    -0.00045118   -0.00015874   -0.00041900
     atom   25 type  1   force =    -0.00008896    0.00004592   -0.00025351
     atom   26 type  1   force =     0.00017673   -0.00001030    0.00015425
     atom   27 type  1   force =    -0.00041694    0.00021142    0.00018437
     atom   28 type  1   force =    -0.00020324    0.00011248    0.00010973
     atom   29 type  1   force =     0.00026292   -0.00029024    0.00056797
     atom   30 type  1   force =    -0.00011993   -0.00005982    0.00027793
     atom   31 type  1   force =    -0.00034308   -0.00005138    0.00025706
     atom   32 type  1   force =    -0.00037368    0.00009153   -0.00011230
     atom   33 type  1   force =     0.00003737   -0.00024927    0.00026918
     atom   34 type  1   force =    -0.00012285    0.00006055    0.00028146
     atom   35 type  1   force =    -0.00022776    0.00038488   -0.00023134
     atom   36 type  1   force =     0.00003793    0.00002591    0.00023583
     atom   37 type  2   force =     0.00143812   -0.00074843   -0.00052506
     atom   38 type  2   force =     0.00058332    0.00292708    0.00063743
     atom   39 type  3   force =     0.00033900   -0.00014324   -0.00034697
     atom   40 type  4   force =     0.00035310    0.00010638    0.00017641
     atom   41 type  4   force =     0.00084688   -0.00285242   -0.00193889

     Total force =     0.005308     Total SCF correction =     0.001532
     SCF correction compared to forces is large: reduce conv_thr to get better values

     negative rho (up, down):  1.283E-02 0.000E+00

     negative rho (up, down):  1.283E-02 0.000E+00

     negative rho (up, down):  1.283E-02 0.000E+00

     negative rho (up, down):  1.283E-02 0.000E+00

     negative rho (up, down):  1.283E-02 0.000E+00

     negative rho (up, down):  1.283E-02 0.000E+00

     negative rho (up, down):  1.283E-02 0.000E+00

     negative rho (up, down):  1.283E-02 0.000E+00

     negative rho (up, down):  1.283E-02 0.000E+00

     negative rho (up, down):  1.283E-02 0.000E+00

     negative rho (up, down):  1.283E-02 0.000E+00

     negative rho (up, down):  1.283E-02 0.000E+00

     negative rho (up, down):  1.283E-02 0.000E+00

     negative rho (up, down):  1.283E-02 0.000E+00

     negative rho (up, down):  1.283E-02 0.000E+00

     negative rho (up, down):  1.283E-02 0.000E+00

     negative rho (up, down):  1.283E-02 0.000E+00

     negative rho (up, down):  1.283E-02 0.000E+00

     negative rho (up, down):  1.283E-02 0.000E+00

     negative rho (up, down):  1.283E-02 0.000E+00

     negative rho (up, down):  1.283E-02 0.000E+00

     negative rho (up, down):  1.283E-02 0.000E+00

     negative rho (up, down):  1.283E-02 0.000E+00

     negative rho (up, down):  1.283E-02 0.000E+00

     negative rho (up, down):  1.283E-02 0.000E+00

     negative rho (up, down):  1.283E-02 0.000E+00

     negative rho (up, down):  1.283E-02 0.000E+00

     negative rho (up, down):  1.283E-02 0.000E+00

     negative rho (up, down):  1.283E-02 0.000E+00

     negative rho (up, down):  1.283E-02 0.000E+00

     negative rho (up, down):  1.283E-02 0.000E+00

     negative rho (up, down):  1.283E-02 0.000E+00

     negative rho (up, down):  1.283E-02 0.000E+00

     negative rho (up, down):  1.283E-02 0.000E+00
 BEEFens 2000 ensemble energies
             -0.608238543731412E+02
             -0.362636268455500E+01
             -0.158703334064672E+02
              0.430641209451843E+02
             -0.221738722221831E+02
             -0.205784395099711E+02
             -0.353356850668307E+02
             -0.867327073626634E+02
             -0.466216304421363E+02
             -0.474031878104123E+02
             -0.370276844572582E+02
              0.228479471776205E+01
              0.406910626996304E+01
              0.763038601995882E+01
              0.266772795808100E+01
              0.476135403632125E+02
             -0.209409319866712E+02
             -0.230709666331798E+02
              0.193375541634431E+02
             -0.112673151608634E+03
              0.537851653936028E+02
             -0.290490354474924E+02
             -0.336263432980078E+01
             -0.114461469412521E+02
             -0.884765367907005E+01
             -0.465707616624383E+01
              0.885013559192496E+02
             -0.187621235833448E+02
             -0.902833855126391E+01
             -0.519728887827522E+02
              0.817542028547673E+02
             -0.187658109438518E+02
             -0.376012600775098E+02
              0.249892525657820E+02
             -0.285824848606421E+01
              0.164544123890920E+02
             -0.486264828254212E+01
              0.108297877145268E+02
              0.288940582422421E+02
             -0.103540626749319E+03
              0.559828262273900E+02
              0.142675034932693E+02
             -0.173515358634228E+01
             -0.362394111133028E+02
              0.123471602541176E+02
             -0.147292669425315E+02
              0.399577675795828E+02
              0.365794295777195E+02
             -0.308816061598726E+02
             -0.275846588433263E+02
             -0.329136298224972E+02
             -0.352987831973126E+02
              0.136542615211692E+02
             -0.492189961598567E+02
              0.115967408806321E+02
              0.624599494739147E+02
              0.637106331608062E+02
              0.356782865836149E+02
              0.154547974535066E+02
              0.271209750843454E+02
              0.893770521223197E+02
              0.213209293077921E+02
             -0.550024744731850E+02
             -0.157394571000126E+02
             -0.236548904474747E+02
              0.631394469590912E+02
             -0.775419275836312E+02
             -0.673349569114966E+02
             -0.260148350613248E+02
             -0.649430579402861E+01
             -0.471955526365484E+02
              0.271389636510320E+02
              0.803524922362431E+01
              0.871074135153765E+01
             -0.398212977651379E+02
             -0.347772537714987E+02
             -0.543319391302628E+02
              0.391373776673465E+02
             -0.296871332866131E+02
              0.265873719673217E+02
             -0.716814024028381E+01
             -0.318772919106901E+02
             -0.577810618893488E+02
             -0.177071507386541E+02
             -0.908150516319290E+01
             -0.125194155848824E+02
              0.413235356239226E+02
              0.684559633283012E+02
             -0.386687809210766E+02
             -0.796747134989702E+02
             -0.220081818613513E+02
              0.111796556017459E+03
             -0.593926228857584E+02
              0.356970058449790E+02
             -0.959910508979874E+01
             -0.664779473653571E+02
              0.255006663494632E+02
              0.399028251329702E+02
             -0.199248309929861E+02
              0.401113388988256E+02
             -0.296636063320475E+02
             -0.479503900614048E+02
              0.868161487506129E+02
              0.455153612052013E+02
              0.337317629312285E+02
              0.146802765478391E+02
              0.206264683796286E+02
              0.858558540339804E+02
             -0.257341343698599E+02
              0.789203924616923E+01
             -0.142751357544512E+03
              0.181665699032858E+02
             -0.717959459924637E+02
              0.151354746752455E+02
              0.205183751444890E+02
             -0.333718819179973E+02
             -0.558597833205303E+02
              0.655165651685286E+01
             -0.304897227970163E+02
              0.308850138854270E+02
             -0.531151508115265E+02
              0.170852014343757E+01
             -0.357835304113644E+02
             -0.424811138073147E+01
             -0.105680262198211E+01
              0.181578127433351E+02
              0.143134077880131E+01
             -0.653199722929094E+01
              0.591919765172907E+02
              0.910606076057799E+02
              0.485361325784585E+02
              0.832372909574065E+02
             -0.115418099110285E+02
              0.143453784797567E+02
              0.542548115214937E+02
             -0.111127233813775E+02
             -0.737799992746619E+02
             -0.385083701787014E+02
             -0.523054044284845E+02
             -0.277447547529002E+02
              0.327904313717295E+02
             -0.117080733989666E+03
             -0.187725578358283E+02
              0.415148808296070E+02
             -0.387138915740213E+02
             -0.366386451526513E+02
              0.545445304789627E+02
              0.401838243381460E+02
             -0.354910208416248E+02
              0.138129971619169E+02
             -0.273863943223537E+02
              0.344069341445081E+02
              0.446335099650003E+01
              0.211458164270508E+02
             -0.887012972067500E+02
             -0.481396421441376E+02
             -0.997678115385747E+01
              0.321718363217102E+01
             -0.367736922559038E+02
              0.106288078998867E+03
             -0.231499264456614E+02
             -0.399521817392501E+02
              0.389792624371075E+02
             -0.495434209848671E+02
             -0.364091544282362E+02
              0.325521585368658E+02
              0.124732881515702E+02
              0.164856175744414E+02
              0.116810037662439E+02
             -0.133099611283741E+02
              0.225649750631818E+02
              0.591561617112651E+02
             -0.312399266595506E+02
              0.162830253280675E+02
              0.936756328046652E+02
              0.341597938218181E+02
             -0.731364083875064E+01
             -0.189109605356232E+02
              0.153738469833696E+03
             -0.164536579475179E+02
              0.364140507750310E+02
              0.195000516188669E+02
              0.362465453130139E+02
              0.894255530424606E+02
              0.544154320574835E+02
             -0.240611757800447E+01
              0.228307542946607E+02
              0.486088857672180E+02
              0.364557166896536E+02
             -0.526997977143991E+02
              0.938328964926899E+02
             -0.827808971292402E+02
             -0.198570123547813E+02
              0.584248389358903E+02
              0.677992786017015E+01
              0.790561081356043E+01
              0.341658131863935E+02
              0.299764731471134E+02
              0.354573081575269E+02
             -0.639199436572904E+02
              0.288414918398519E+01
             -0.298252836198690E+02
             -0.873235365697755E+01
             -0.146701661691725E+01
             -0.725450986713219E+01
             -0.416602216424701E+01
              0.861412141855940E+02
             -0.101263320199342E+02
             -0.277097717774955E+02
             -0.496956119620768E+01
              0.140187736645551E+02
             -0.565493789056928E+02
             -0.408371617614251E+02
             -0.382924032992297E+02
             -0.631899854892624E+02
             -0.170100247784848E+02
             -0.448494486141610E+02
              0.163921388229407E+02
             -0.240006327553759E+01
             -0.104699307557937E+02
             -0.936474170157999E+01
              0.809207223969912E+01
             -0.243245951368567E+02
              0.691009862870459E+02
             -0.809285029444964E+02
             -0.141508778995309E+02
             -0.174398495797235E+02
              0.182327399797263E+02
              0.214887322513239E+02
             -0.464909990899046E+02
             -0.202368848442433E+02
              0.441932212439049E+02
             -0.276684142805040E+02
              0.187398241872648E+02
              0.383759225557532E+02
             -0.323600658733812E+01
              0.114426939059819E+03
             -0.230554394669369E+02
             -0.341814334919808E+02
              0.580273034711729E+01
             -0.228800879040886E+02
              0.528920433037089E+02
             -0.338114042489021E+02
              0.106653028238824E+02
              0.642190992774945E+02
             -0.126643572772442E+02
              0.120544504236961E+03
              0.126203616250618E+03
             -0.651527863071399E+02
              0.592057033491474E+02
              0.166888496013707E+02
             -0.519125964527692E+02
              0.216557288859875E+02
              0.354853693611251E+02
              0.363674717462569E+02
              0.135360361497132E+01
              0.159897077788391E+02
              0.697583212174475E+02
             -0.247494960671736E+02
              0.181695198918171E+02
              0.740942032896836E+02
             -0.373469627752560E+02
             -0.130086170033715E+02
              0.509914060112283E+02
              0.298059609340744E+02
              0.782179576121640E+02
              0.223334820669187E+02
              0.626882642478836E+01
              0.281019641093263E+02
              0.384255831624846E+02
             -0.473015181862168E+02
              0.332481141106251E+01
              0.130291522449140E+02
              0.114080620715815E+02
              0.221075046528146E+02
             -0.576367027797442E+02
              0.366917262593280E+02
             -0.445006147973195E+02
             -0.348227975617340E+02
              0.178464801356728E+02
             -0.181715334358868E+02
              0.556437623503468E+02
             -0.256745857844253E+02
              0.267537466655271E+02
              0.368965069128556E+02
              0.831189951270345E+02
              0.576071686069149E+02
              0.462963702342963E+02
             -0.105808493864930E+02
             -0.392939952297320E+01
             -0.332905952101950E+02
              0.752568462492890E+02
              0.799115981324778E+02
              0.362873056351632E+02
             -0.192588517449971E+02
              0.513100684712788E+02
             -0.162996149141431E+02
              0.215356767671308E+02
              0.616023725763367E+02
              0.214152127383852E+01
             -0.104534078034986E+02
             -0.283536704515449E+02
             -0.513027010216729E+02
              0.947893707972643E+02
              0.440918393404135E+02
             -0.560527909171414E+02
             -0.967715741566181E+01
              0.250580226277687E+02
             -0.999336053029930E+01
              0.593705390699070E+02
              0.152443651382636E+02
              0.801169841597055E+02
              0.280334766335395E+02
             -0.264698742599758E+02
              0.249596622586602E+02
             -0.502734158007831E+01
             -0.324443107423365E+02
              0.133621304450064E+02
              0.206130873681562E+02
              0.935146882119154E+02
              0.799404378401981E+02
              0.552306701487308E+02
              0.732461303465373E+02
              0.802419310729627E+01
             -0.274453611566998E+02
              0.163531204259742E+02
             -0.368780190668081E+02
             -0.477635731268464E+02
             -0.565117257381222E+02
             -0.267249325318479E+02
             -0.109970377065083E+03
             -0.292228641182481E+02
             -0.839529225662372E+02
              0.210663260043761E+02
             -0.478196038341671E+02
              0.397846391102851E+02
             -0.943824046793153E+02
             -0.330920388335958E+02
              0.549736773131668E+02
              0.208256994988479E+02
             -0.832891427617926E+02
              0.632587789876460E+02
             -0.257431875699903E+02
              0.513751845245908E+02
             -0.243232241825118E+02
             -0.753436031751922E+02
              0.112201182596443E+02
             -0.612950749343137E+02
             -0.168474382914615E+02
             -0.148295528308267E+01
              0.419330058680642E+02
              0.127326630241961E+03
             -0.462877462787675E+02
             -0.363485421823946E+02
             -0.974162598364273E+00
             -0.130696834975993E+02
             -0.824661532657376E+02
             -0.598174270140895E+02
              0.518493597588405E+02
             -0.289597655249088E+02
              0.169700966312635E+02
             -0.490599779589149E+02
             -0.132252057945342E+02
             -0.438214223900128E+02
              0.566904424372968E+02
              0.151419291410743E+02
             -0.232232196564086E+02
             -0.127273721524522E+02
              0.670153905909400E+01
             -0.621369026259288E+01
              0.442691285526251E+02
             -0.252629720130195E+02
              0.278596375344955E+01
              0.340288765561417E+02
              0.171700859741097E+02
             -0.160259446057657E+02
              0.156665710180380E+03
              0.539406774278372E+02
              0.117896628305589E+01
              0.161772707547975E+02
             -0.616406774617878E+02
              0.315779373033503E+02
             -0.723714499315750E+02
             -0.252766723734488E+02
             -0.524120819505885E+02
             -0.220543901169950E+02
              0.570654225855803E+02
             -0.538514649389710E+02
              0.161386376827394E+02
             -0.409663532436457E+01
              0.387970182569222E+01
             -0.434770696865645E+02
             -0.479454400438494E+02
             -0.400499650441679E+01
             -0.426062402707723E+02
             -0.217766916784601E+02
             -0.439494543526119E+02
             -0.119555328305719E+02
             -0.359887976301142E+02
             -0.517873570305102E+02
              0.213358335476625E+02
             -0.209664059099281E+02
              0.188361710131236E+02
              0.977832953706523E+01
             -0.739950747068563E+02
             -0.549519355922604E+02
             -0.399235261552090E+02
              0.355141233705415E+02
              0.270250771004388E+01
             -0.628278503297732E+02
              0.587243217020186E+02
             -0.402198834042425E+02
              0.546287617860467E+02
             -0.290387591990199E+02
             -0.447247212464021E+02
              0.299105729064224E+02
             -0.659451738430405E+02
             -0.380990540002008E+02
              0.674303327145838E+02
              0.204487833339356E+02
             -0.361216483082912E+02
              0.490846339833624E+02
             -0.174491543126355E+02
             -0.323904640614711E+02
             -0.302592946581815E+02
             -0.501906833498253E+02
              0.250031222743939E+02
             -0.935405518051632E+02
             -0.842386642431124E+02
             -0.737266611977861E+01
             -0.307583682257124E+02
             -0.577026590075980E+02
              0.723681417452849E+02
              0.131871667755866E+03
             -0.361822838421028E+02
             -0.256195690382788E+01
             -0.638727043604160E+02
              0.652288437530598E+02
              0.171225964241229E+02
             -0.182190356786753E+02
             -0.411011531351191E+02
              0.149094690468443E+02
             -0.587724124675927E+02
             -0.198352597068691E+02
             -0.906972360357225E+02
              0.337917484235993E+02
              0.169263519032136E+02
              0.184493928045686E+01
             -0.707738823726527E+01
             -0.330560564834580E+02
             -0.760993894558118E+01
              0.125860477489598E+03
             -0.199496901558867E+02
             -0.438705190425505E+02
             -0.685691441759116E+02
              0.109629055597454E+02
             -0.343107342913460E+02
              0.593392044394139E+01
              0.262286280413251E+02
              0.102288876489388E+02
              0.278661970115464E+02
              0.120213116596688E+02
              0.631151380466738E+02
              0.317601863530082E+02
             -0.327483413628401E+02
              0.356809505089799E+02
              0.380371637610696E+02
              0.121151398712441E+02
              0.488170181768414E+02
             -0.225438704624501E+02
              0.767566611738621E+02
              0.172794391809039E+02
             -0.272975953919427E+02
             -0.724778092500090E+01
             -0.186933277466645E+02
              0.262487697135797E+02
             -0.235203220555393E+02
             -0.134340999453713E+00
             -0.852373671180476E+01
              0.811932882235681E+02
              0.501487620806224E+02
             -0.688834917945204E+02
             -0.477005635251169E+01
             -0.556802457029328E+02
             -0.159947282266334E+02
             -0.268829559155997E+02
              0.378089479042524E+01
              0.586383285585899E+00
             -0.258268173429628E+02
              0.817454734745826E+01
             -0.604688029614951E+01
             -0.128796439525682E+02
              0.861242888058037E+02
              0.182321735473144E+02
             -0.809188066937156E+02
             -0.459553201090635E+02
              0.947365266528495E+02
              0.278553570114053E+02
             -0.107019855902778E+02
              0.104846106079887E+03
             -0.195308066407023E+02
             -0.123340074874937E+02
             -0.540538695242788E+01
              0.107795236471484E+02
              0.273210146661396E+02
              0.780956186790553E+01
              0.306024465040687E+02
             -0.188364037161191E+02
             -0.304593012191592E+02
             -0.419065567999255E+02
             -0.478150693009776E+02
              0.465192603818801E+02
              0.127144868396077E+02
              0.388600305648419E+02
              0.133859454910121E+02
              0.857974510509735E+02
              0.156882445805070E+02
             -0.848206362727085E+02
             -0.335343534725910E+02
              0.133987968035431E+02
             -0.303490748839969E+02
              0.628152644424957E+02
             -0.890352314737152E+01
              0.149259421060682E+02
              0.498509227019477E+02
             -0.709308278443078E+02
              0.150125082855976E+03
              0.209184199709817E+02
              0.271898099248573E+02
              0.348549961272601E+02
              0.103931576057018E+02
             -0.156986273335269E+01
              0.359344595624526E+02
             -0.358084255091056E+02
              0.775494620554743E+02
              0.686748179201406E+02
             -0.407132624447129E+02
              0.149902482745924E+02
              0.672038604226958E+02
             -0.224467497992073E+02
              0.154757321437487E+02
              0.436237812398442E+02
              0.423375127969438E+02
             -0.786893856754226E+02
             -0.153083646247106E+02
             -0.357068172592780E+02
             -0.149815845766756E+01
             -0.766370381878480E+01
             -0.544208293202530E+01
             -0.181146237672320E+02
             -0.294610590556563E+02
              0.636216791208972E+01
              0.112030145176728E+02
              0.537064589905723E+02
             -0.391436395227392E+02
              0.375472701021687E+02
              0.439702199343628E+02
             -0.187025511843044E+02
              0.874651752397061E+02
             -0.699688568219330E+02
             -0.103467940755009E+03
             -0.661341302331371E+01
             -0.271991502794504E+01
              0.385521997961280E+01
              0.791630900488931E+02
             -0.107244663815091E+02
              0.417771966379190E+02
              0.444926848283269E+02
              0.386338253544993E+02
             -0.997779537028555E+01
              0.629218402453398E+02
             -0.134114347218439E+02
             -0.308305810938837E+02
             -0.480615778705231E+02
              0.589025271157682E+01
              0.370564876215743E+02
             -0.604101132311081E+01
              0.393999578877720E+02
             -0.177030828869420E+01
              0.656931841438792E+02
              0.187943038261316E+02
              0.100100763330686E+02
             -0.121833458387622E+02
              0.333094734955625E+02
              0.363643362543383E+02
              0.233220845881953E+02
             -0.512721100840793E+00
             -0.551930273689468E+02
              0.261617128331448E+02
              0.175741321469544E+02
              0.403573691482861E+02
              0.273106148382113E+02
              0.373384792663842E+02
             -0.605353673419540E+01
              0.251816313833941E+02
             -0.299208497932511E+02
             -0.197703859696026E+01
             -0.570706567736544E+02
             -0.308773191783909E+02
              0.379806445731089E+02
             -0.938045657985164E+02
              0.295235628121302E+02
              0.184456003560772E+02
              0.842452478221647E+02
             -0.301142088631319E+02
              0.330254884817215E+02
             -0.138043889289894E+02
             -0.465323781604131E+02
             -0.763498251362007E+02
             -0.528751210514821E+01
             -0.862337562101617E+02
              0.200141619476337E+02
             -0.248030911894866E+02
              0.306608306735904E+02
              0.237475666986857E+02
             -0.241856269438610E+02
             -0.266073750103177E+02
              0.391990147017826E+02
             -0.589861694884785E+02
             -0.117068826847670E+02
             -0.196688719174282E+02
              0.213305267245305E+02
             -0.891898991466985E+01
              0.364608312587194E+01
             -0.201240872716076E+02
              0.560356520596756E+02
             -0.440860837131610E+02
              0.791022953563754E+01
              0.587075495461443E+02
             -0.324310932104759E+02
              0.360941151200635E+01
             -0.882183503688702E+01
             -0.671318930842570E+02
             -0.483811652348011E+02
             -0.863241398782192E+01
              0.241516456171226E+02
              0.303221902369633E+02
              0.860465411609380E+01
             -0.417460410182150E+01
              0.152576427805734E+02
             -0.441097798014641E+02
              0.332854491041667E+01
             -0.532392792075829E+02
             -0.325489353879571E+02
              0.476048500931667E+02
             -0.295941841973086E+02
              0.624224577323255E+02
             -0.215262131686869E+02
              0.354643417855832E+02
              0.242453936898909E+02
             -0.645746393519154E+02
             -0.281200111502484E+02
              0.934540044055794E+01
             -0.372905884204494E+02
             -0.340572799374814E+02
             -0.832347977849724E+02
             -0.540848732698812E+02
             -0.511944356105040E+02
             -0.416735889999461E+02
             -0.973793616489900E+00
              0.999846876617141E+01
              0.104493118636586E+01
              0.153851311834265E+02
             -0.550925722651369E+02
              0.142278694084715E+02
              0.257276127964058E+02
             -0.668545407538878E+02
             -0.703669148302566E+02
             -0.432405913869078E+02
             -0.172709690125721E+02
              0.179080557712518E+02
              0.455496453943238E+01
             -0.427127865200960E+02
              0.367215981705452E+02
             -0.216647348639757E+02
              0.518775463270546E+02
             -0.889656831997860E+02
              0.599386585839312E+02
             -0.214024175868127E+01
             -0.369453599662968E+02
             -0.217122731780536E+02
              0.472175946090371E+01
              0.375827083325626E+02
             -0.758353070935025E+02
             -0.121166792693296E+02
             -0.217243155975226E+02
              0.512390212936728E+02
              0.867039574721277E+02
             -0.967917793813597E+02
              0.946546128327124E+02
              0.468892671659257E+02
             -0.727489104337444E+02
             -0.367528859209005E+02
              0.753976304817635E+02
              0.633571500069819E+02
             -0.181635955647553E+02
             -0.464249293742301E+01
              0.735509885141563E+01
              0.651069318108103E+02
             -0.509902719698442E+02
              0.158880610445852E+02
             -0.474961713097078E+01
              0.348495849376724E+02
             -0.749023009030375E+02
             -0.650296089098575E+01
             -0.351968496516258E+02
              0.461950821271064E+02
              0.469837737044063E+02
             -0.864255874714930E+02
             -0.488482980318300E+02
             -0.256793914456091E+02
             -0.340507534244304E+02
             -0.109764342290587E+02
             -0.243354676556751E+02
              0.428507587050593E+02
              0.402207692479934E+02
             -0.566537072646423E+01
             -0.417598519270781E+02
             -0.852733614096317E+02
              0.444263829044939E+02
             -0.524623197931085E+02
             -0.313918758447335E+02
              0.548094944327204E+01
             -0.323594411325494E+02
             -0.399119658616131E+02
             -0.240919715850611E+02
             -0.386689485903188E+02
             -0.271547893332351E+02
             -0.483957747278471E+02
              0.565520639484990E+02
              0.639883169471670E+02
             -0.172562798244451E+01
             -0.261868970287811E+02
             -0.625628263959584E+01
              0.442403300795019E+02
             -0.870313975559661E+02
             -0.146957001759035E+02
              0.524953223472381E+02
              0.665648236531281E+02
             -0.244859821567296E+02
              0.917948015707987E+01
              0.525090765890400E+02
              0.198542547349538E+02
             -0.829085701587996E+01
             -0.454446313652186E+02
              0.281081786927459E+02
             -0.353528969836110E+02
             -0.165117083878994E+02
             -0.153505755249544E+02
             -0.200703892742567E+02
              0.195458549680150E+02
              0.802299301203768E+02
              0.186969033748758E+01
              0.535133510825162E+01
             -0.890015712289338E+02
             -0.176332734390162E+02
             -0.353667495243355E+02
              0.275812952910991E+01
             -0.410868499440936E+02
[...]
              0.284022478761142E+02
              0.142166203023802E+03
              0.243033676742734E+02
              0.122986486776797E+02
             -0.465652567766411E+02
             -0.639469408888197E+02
             -0.189363605191220E+02
              0.330395275558962E+02
             -0.429028661572045E+01
              0.190579376669851E+02
              0.337094477872532E+02
             -0.588010219910587E+02
              0.223104090261005E+02
              0.583280406784457E+02
              0.554407339874662E+02
             -0.421064855278178E+01
             -0.136744380705784E+01
             -0.995584489802280E+01
             -0.483622628975549E+02
             -0.676593344643281E+02
              0.787653637023315E+02
             -0.525090556623971E+01
             -0.589392858618612E+02
              0.171827804825585E+01
             -0.205854131745861E+02
              0.940708917998147E+02
             -0.217147106460806E+02
             -0.354429344565020E+02
              0.335971088867177E+02
             -0.146153468627312E+02
              0.390718698518594E+02
             -0.238388078143447E+01
              0.101331553815294E+03
              0.490903353330508E+02
             -0.510268550152223E+01
             -0.322920582475155E+02
              0.232915154586026E+02
             -0.529946721449143E+02
             -0.128210337556171E+02
              0.587234729102670E+02
             -0.288417658407012E+02
             -0.439542435489204E+02
             -0.223758729966809E+02
              0.519944545456095E+02
              0.125163719772686E+02
             -0.850824852220617E+02
              0.304635280517773E+02
              0.152485386248587E+02
              0.578856719341286E+01
             -0.514704915399915E+02
             -0.376942730625990E+01
              0.324020590205694E+02
              0.514033708929900E+02
              0.634219994826399E+02
              0.229683367506027E+02
              0.779334370402950E+00
             -0.499237443279097E+02
             -0.511124111777482E+02
             -0.749673124006831E+02
             -0.618535358428585E+01
              0.309765096886496E+02
             -0.378563878395653E+01
              0.548188706184484E+02
             -0.318786189595337E+02
              0.166953151536111E+02
             -0.102945943316473E+02
             -0.290279128975826E+02
              0.587062680840208E+02
              0.793900115402727E+01
              0.605794830246468E+02
              0.509265452945397E+01
              0.265636403783232E+02
             -0.193143316186102E+02
              0.587697710812562E+02
             -0.111747444431947E+02
             -0.126043293320233E+00
             -0.792028406901343E+02
             -0.128575600393953E+02
              0.720811562746292E+02
              0.674776284048244E+02
              0.252541248937675E+02
             -0.130728673931563E+02
              0.344780668570877E+01
             -0.173941330989908E+02
             -0.207229938822908E+01
              0.909940861046340E+02
              0.124791172868095E+01
             -0.191081710769897E+02
             -0.111023215672407E+03
             -0.553929649053179E+02
             -0.375904804720688E+02
             -0.660243716840972E+02
             -0.556940480505465E+02
             -0.684310537180132E+02
             -0.448293708111796E+02
             -0.411770749786731E+02
             -0.453040684186495E+02
              0.484618869345948E+02
             -0.294749029221157E+02
             -0.997705669694139E+02
              0.419852795658492E+02
             -0.260777400151793E+02
             -0.792887503536091E+02
              0.946189520075341E+02
             -0.220315448559549E+02
              0.228509107718871E+02
              0.456024579343264E+02
             -0.134197502869358E+01
              0.254986913824116E+02
              0.469239213965568E+01
              0.409350937742062E+00
             -0.150947548237032E+02
             -0.717511864278711E+02
              0.133388125151481E+02
             -0.129702405700800E+03
              0.625726002725599E+02
             -0.441684109757734E+02
             -0.163225013014672E+02
             -0.158575423024560E+02
              0.717432131383141E+01
             -0.228132183322999E+02
              0.297766441585922E+02
             -0.521862017197512E+02
              0.368139130817721E+02
              0.371833360213404E+02
              0.168797412467865E+02
              0.100767795546310E+02
              0.198306010377741E+02
              0.623936285783662E+01
              0.311049550897487E+02
             -0.801606523837444E+01
             -0.593789200525744E+02
              0.760068986638652E+01
             -0.153271317046097E+02
             -0.194679294102451E+01
              0.507407734439801E+02
             -0.828789408620454E+02
             -0.148440040984201E+01
              0.577945239054941E+00
              0.997207189762037E+01
              0.319301011274562E+02
             -0.123963568324932E+02
              0.837718485955513E+02
              0.488805295829289E+02
             -0.183608410933402E+02
             -0.958609081432996E+01
              0.106243799401673E+01
              0.771401389078160E+02
             -0.587517239620890E+02
             -0.106009826157530E+03
              0.309862001140123E+02
             -0.163422140744121E+02
             -0.139759560374208E+02
              0.131010663620687E+02
              0.770393113419242E+02
              0.465324881081887E+02
             -0.153918731987698E+02
             -0.504216303309372E+02
             -0.550633951642489E+01
              0.307114654731289E+02
             -0.111882879958637E+02
             -0.757492973122476E+02
             -0.272179591320105E+01
             -0.892181055990121E+02
             -0.476717305464729E+02
              0.770484903245364E+02
             -0.484791120053317E+02
             -0.638164725376500E+02
             -0.515593234801285E+02
             -0.350622056322448E+02
              0.341682676481094E+02
              0.823520107063207E+02
             -0.358415038162116E+01
              0.277241010848885E+02
             -0.184171897760689E+02
             -0.695637796683339E+02
              0.466191593149815E+02
             -0.446131316948054E+02
              0.322373926712690E+02
              0.377086908810896E+02
             -0.657167766097183E+01
              0.391490879347248E+02
              0.439372815641814E+02
              0.100926177052220E+03
             -0.156358096536460E+02
             -0.457184196943489E+02
             -0.614343520814842E+02
             -0.124311038202897E+02
             -0.233576965642759E+02
              0.103260256375380E+03
             -0.450085300816804E+02
              0.105375175903515E+02
              0.973181643560554E+01
             -0.265276993199172E+02
             -0.800776372794327E+02
             -0.700516892767399E+01
              0.982176918432913E+02
              0.940360793230987E+01
              0.809994438728933E+01
             -0.528261802235386E+02
             -0.606873156438255E+02
             -0.565552483890384E+01
              0.501601592199528E+02
             -0.222439046901644E+02
              0.108224063261746E+03
             -0.436583442195875E+02
              0.146750361786018E+02
             -0.224646619503447E+02
             -0.720065436472894E+02
              0.169044992551466E+01
             -0.502838722038157E+02
             -0.762348148130426E+02
              0.618142021281324E+01
              0.237281912704950E+01
              0.515356655393457E+02
              0.187767715204972E+02
             -0.324429649421848E+02
              0.230534968679258E+02
             -0.812916198776719E+02
             -0.522991178424629E+02
              0.903887165574606E+02
              0.142651027985118E+02
             -0.188297481514448E+02
             -0.353121580217941E+02
             -0.271323946258292E+01
             -0.588772849259055E+01
              0.832208676985184E+02
              0.418680193903900E+02
             -0.166382213034472E+02
             -0.121959212958903E+02
             -0.428488900986141E+02
             -0.201112205676482E+02
             -0.671581862947905E+02
              0.460875057482560E+02
              0.548477087855844E+01
              0.145202884993295E+02
              0.156451272102392E+02
             -0.583942310311730E+00
             -0.168847175597997E+02
             -0.308132480825521E+01
             -0.100683593099329E+03
             -0.230366485586580E+02
             -0.766967513407565E+01
             -0.950413877327503E+01
              0.547735456892185E+02
              0.625331504548438E+02
              0.165154127797775E+02
             -0.972805124977663E+02
              0.649032487950709E+02
             -0.215444892830157E+02
             -0.377953420943122E+02
             -0.866285515954116E+02
             -0.387645434278870E+02
              0.565912858240191E+02
              0.244921886407820E+02
              0.515751303611182E+01
              0.292989728148814E+02
             -0.566249416543913E+02
             -0.423323110358723E+02
              0.516643913227011E+02
              0.388069788957096E+02
              0.520116911131345E+02
             -0.121450684660252E+01
              0.687506374863733E+01
              0.570709441137636E+02
              0.965069093919843E+02
             -0.300763646107727E+02
              0.323832694719376E+02
             -0.118972233441783E+02
             -0.413118079212905E+02
             -0.315174652608429E+02
             -0.300912218660909E+02
             -0.131725777555607E+02
             -0.524576400329072E+02
             -0.217763849149237E+02
             -0.141493504556211E+03
              0.369673410829787E+02
              0.207194368072057E+02
             -0.394706493031732E+01
             -0.381083797947100E+02
             -0.204765592610646E+02
             -0.528112883401544E+02
              0.151476941715242E+02
              0.821972070415174E+02
             -0.252549231960950E+02
             -0.163434114241407E+02
              0.238644065818662E+02
             -0.490499802602695E+02
              0.882473111520751E+02
              0.154811542860385E+02
              0.226635373210530E+02
              0.491504317734852E+02
              0.320457427004220E+01
              0.543394241471400E+02
              0.143445205496418E+02
             -0.106725258246483E+02
              0.734259839965461E+01
              0.774101166614514E+00
              0.728770885402289E+02
              0.101328214003560E+02
              0.120901534076059E+02
             -0.130253803427644E+02
              0.132611272780566E+02
             -0.913310362380944E+02
             -0.326790193378951E+02
             -0.458415683467148E+02
              0.486470125592620E+02
             -0.291769186189813E+02
             -0.659923065680351E+02
              0.539910566453234E+02
             -0.122249567381544E+02
              0.441098892599518E+02
             -0.900833380014986E+02
              0.232691818788480E+02
              0.858985364469257E+01
              0.584519950004710E+01
             -0.834046218103123E+01
             -0.905276652693067E+01
              0.480515380706290E+02
              0.199085729665336E+01
             -0.476261881195332E+02
             -0.176477940791992E+02
              0.277197941808684E+02
             -0.118199789085235E+03
             -0.931959716642661E+02
              0.396192378837048E+01
              0.117877018469484E+02
             -0.414258150258966E+02
             -0.389988154687796E+01
              0.112356563166718E+03
              0.307331314560270E+02
             -0.572875607846883E+02
              0.927328913038963E+01
             -0.966033510429892E+01
              0.105899651880834E+02
             -0.338495685348997E+02
              0.195809122583013E+02
              0.285285058647997E+02
             -0.301557181103158E+01
              0.108439838552708E+03
             -0.140464009611089E+02
             -0.316691641709947E+02
              0.143419776762993E+02
              0.467413403461054E+02
             -0.356683499795548E+02
             -0.318718406737523E+01
              0.967022028096556E+02
             -0.464140163520472E+01
              0.622994355942429E+02
              0.135802531664245E+02
             -0.904607762803165E+01
             -0.305947598527695E+02
              0.567940961096454E+02
             -0.515495601281100E+02
             -0.221040181762635E+01
             -0.170323750229659E+02
             -0.406223860790963E+02
              0.185318957130161E+02
              0.239837027353709E+02
              0.116308164269163E+02
              0.711767983507798E+00
             -0.385443762440664E+02
              0.215773739110095E+02
             -0.674283191145955E+01
             -0.247090796732303E+02
             -0.211124526349009E+02
              0.203741809628485E+02
             -0.598968188645165E+01
             -0.350055728716177E+02
             -0.106878090026923E+03
              0.103145557241052E+02
              0.249317202945302E+02
             -0.388442044153630E+02
             -0.211483287003086E+02
              0.809011673057090E+02
              0.652946467079661E+01
              0.311704378547613E+02
              0.392852349899977E+01
              0.322789836000613E+02
              0.647464693590518E+01
             -0.373926068219706E+02
             -0.233194267694552E+01
              0.878492661214329E+01
              0.274462531632179E+02
              0.783792338783497E+02
              0.508507012237175E+02
              0.187349579108911E+00
              0.169593171853209E+02
              0.614604778446481E+02
              0.236541570067258E+02
             -0.754517139553819E+02
             -0.274280802742161E+02
              0.151358774679276E+02
              0.564269448822091E+01
              0.255698220362758E+02
             -0.548961395622667E+02
              0.902276768337984E+01
              0.386931327740719E+02
              0.499118023628731E+02
             -0.435996588208367E+02
             -0.691945593891552E+01
             -0.208856867816166E+01
             -0.134079115629283E+02
             -0.366316430301534E+02
             -0.215755745546934E+02
             -0.203162594351627E+01
              0.794619684176280E+01
              0.422310168479880E+02
             -0.309032259240614E+02
              0.828005569826681E+02
              0.328407524319659E+02
              0.220452761778422E+02
              0.333813087190648E+02
              0.323866467623919E+02
              0.346909974269856E+02
              0.538439015341867E+02
             -0.434911949344251E+02
              0.621077102527470E+02
             -0.112523912112231E+03
              0.308086582211697E+02
             -0.106783063371785E+03
              0.856626141485613E+02
              0.692415232373416E+02
             -0.110157982472516E+02
             -0.494360560589917E+02
             -0.430479005699055E+02
             -0.624821150297977E+02
             -0.630163606964813E+02
              0.553202564518085E+02
              0.406553866817864E+02
              0.237407044006989E+02
              0.374515997418334E+02
              0.404114617389142E+02
             -0.382991047855971E+02
             -0.198322190483763E+02
              0.587915291955330E+02
             -0.116396824642199E+02
              0.553012210291978E+02
              0.701161695319570E+02
             -0.555603178135048E+01
             -0.707990727495913E+02
             -0.886294372256543E+00
             -0.246538932188152E+01
             -0.885080073467338E+01
             -0.180087528873491E+01
             -0.654539485851245E+02
             -0.211179517906824E+02
              0.540598618761816E+01
              0.901137165478045E+01
              0.470063192904497E+02
             -0.398703686983735E+02
              0.658822908046754E+02
             -0.426284887207946E+02
              0.210926854258748E+02
              0.351284701465734E+02
 
 BEEF-vdW xc energy contributions
           1 :   -784.675908044173     
           2 :    720.797877586270     
           3 :   -610.234033201010     
           4 :    480.112721801119     
           5 :   -357.955117132358     
           6 :    263.571581725569     
           7 :   -204.598440216963     
           8 :    176.500253708322     
           9 :   -166.600099897005     
          10 :    160.242678880819     
          11 :   -146.580833766607     
          12 :    121.809993981474     
          13 :   -89.0089261556615     
          14 :    55.2153651129538     
          15 :   -27.4356045417510     
          16 :    9.39226249463411     
          17 :  -0.259863357322047     
          18 :   -4.36731562317027     
          19 :    9.98508975310278     
          20 :   -20.4749661729302     
          21 :    36.4282612276215     
          22 :   -55.1617730185037     
          23 :    72.2488051508288     
          24 :   -83.7313779679433     
          25 :    87.9219844478955     
          26 :   -86.0070410151005     
          27 :    81.2744405255060     
          28 :   -77.4231636440571     
          29 :    76.8047077763798     
          30 :   -79.4344182810297     
          31 :   -86.0172383404473     
          32 :   -65.9058327983954     

     Writing output data file ./pwscf.save/
 
     init_run     :    318.07s CPU    322.33s WALL (       1 calls)
     electrons    :  10462.08s CPU  10560.08s WALL (       1 calls)
     forces       :     96.66s CPU     97.85s WALL (       1 calls)

     Called by init_run:
     wfcinit      :    270.89s CPU    274.18s WALL (       1 calls)
     potinit      :     43.98s CPU     44.28s WALL (       1 calls)
     hinit0       :      1.40s CPU      1.43s WALL (       1 calls)

     Called by electrons:
     c_bands      :   8737.34s CPU   8812.19s WALL (      16 calls)
     sum_band     :   1154.84s CPU   1164.98s WALL (      16 calls)
     v_of_rho     :     91.31s CPU     94.64s WALL (      17 calls)
     newd         :     25.94s CPU     35.98s WALL (      17 calls)
     PAW_pot      :    113.37s CPU    113.38s WALL (      17 calls)
     mix_rho      :    383.97s CPU    384.47s WALL (      16 calls)
     vdW_kernel   :     33.46s CPU     33.46s WALL (       1 calls)

     Called by c_bands:
     init_us_2    :     61.38s CPU     61.58s WALL (     442 calls)
     cegterg      :   8124.07s CPU   8198.74s WALL (     208 calls)

     Called by *egterg:
     cdiaghg      :     83.71s CPU     83.73s WALL (    1286 calls)
     h_psi        :   5173.41s CPU   5199.58s WALL (    1299 calls)
     s_psi        :    870.28s CPU    870.32s WALL (    1299 calls)
     g_psi        :     13.72s CPU     13.73s WALL (    1078 calls)

     Called by h_psi:
     h_psi:calbec :    822.43s CPU    822.56s WALL (    1299 calls)
     vloc_psi     :   3459.33s CPU   3460.55s WALL (    1299 calls)
     add_vuspsi   :    870.33s CPU    870.39s WALL (    1299 calls)

     General routines
     calbec       :   1201.77s CPU   1201.92s WALL (    1559 calls)
     fft          :     44.02s CPU     44.04s WALL (    3036 calls)
     ffts         :    122.90s CPU    122.92s WALL (    9081 calls)
     fftw         :   3514.37s CPU   3515.14s WALL (  280500 calls)
 
     Parallel routines
 
     PWSCF        :      3h 2m CPU      3h 4m WALL

 
   This run was terminated on:  13:12:52   4Jan2023            

=------------------------------------------------------------------------------=
   JOB DONE.
=------------------------------------------------------------------------------=
