
     Program PWSCF v.6.7MaX starts on  4Jan2023 at 10:19: 7 

     This program is part of the open-source Quantum ESPRESSO suite
     for quantum simulation of materials; please cite
         "P. Giannozzi et al., J. Phys.:Condens. Matter 21 395502 (2009);
         "P. Giannozzi et al., J. Phys.:Condens. Matter 29 465901 (2017);
          URL http://www.quantum-espresso.org", 
     in publications or presentations arising from this work. More details at
     http://www.quantum-espresso.org/quote

     Parallel version (MPI), running on     1 processors

     MPI processes distributed on     1 nodes
     Reading input from chch2ch2-bi-ensemble.in
Warning: card &CELL ignored
Warning: card / ignored

     Current dimensions of program PWSCF are:
     Max number of different atomic species (ntypx) = 10
     Max number of k-points (npk) =  40000
     Max angular momentum in pseudopotentials (lmaxx) =  3
     file Pt.pbe-n-kjpaw_psl.1.0.0.UPF: wavefunction(s)  6S 5D renormalized
     file C.pbe-n-kjpaw_psl.1.0.0.UPF: wavefunction(s)  2S 2P renormalized
     file H.pbe-kjpaw_psl.1.0.0.UPF: wavefunction(s)  1S renormalized

     **************************************************************************
     Initializing libbeef V0.1.2 with the BEEF-vdW functional.
     Citation: Wellendorff et al., PRB 85, 235149 (2012).
     **************************************************************************


     IMPORTANT: XC functional enforced from input :
     Exchange-correlation= BEEF-VDW
                           (   1   4  43  14   2   0   0)
     Any further DFT definition will be discarded
     Please, verify this is what you really want


     Subspace diagonalization in iterative solution of the eigenvalue problem:
     a serial algorithm will be used

 
     G-vector sticks info
     --------------------
     sticks:   dense  smooth     PW     G-vecs:    dense   smooth      PW
     Sum        4267    4267   1159               735061   735061  103581
 


     bravais-lattice index     =            0
     lattice parameter (alat)  =      16.0349  a.u.
     unit-cell volume          =   11699.3068 (a.u.)^3
     number of atoms/cell      =           44
     number of atomic types    =            3
     number of electrons       =       377.00
     number of Kohn-Sham states=          227
     kinetic-energy cutoff     =      60.0000  Ry
     charge density cutoff     =     240.0000  Ry
     scf convergence threshold =      1.0E-06
     mixing beta               =       0.7000
     number of iterations used =            8  local-TF  mixing
     Exchange-correlation= BEEF-VDW
                           (   1   4  43  14   2   0   0)

     celldm(1)=  16.034858  celldm(2)=   0.000000  celldm(3)=   0.000000
     celldm(4)=   0.000000  celldm(5)=   0.000000  celldm(6)=   0.000000

     crystal axes: (cart. coord. in units of alat)
               a(1) = (   1.000000   0.000000   0.000000 )  
               a(2) = (   0.500000   0.866025   0.000000 )  
               a(3) = (   0.000000   0.000000   3.276681 )  

     reciprocal axes: (cart. coord. in units 2 pi/alat)
               b(1) = (  1.000000 -0.577350  0.000000 )  
               b(2) = (  0.000000  1.154701  0.000000 )  
               b(3) = (  0.000000  0.000000  0.305187 )  


     PseudoPot. # 1 for Pt read from file:
     /users/bkreitz1/quantum-espresso/potentials/Pt.pbe-n-kjpaw_psl.1.0.0.UPF
     MD5 check sum: 04dc8a03c51ece93fc7b5889c2958091
     Pseudo is Projector augmented-wave + core cor, Zval = 10.0
     Generated using 'atomic' code by A. Dal Corso  v.6.7MaX
     Shape of augmentation charge: PSQ
     Using radial grid of 1277 points,  6 beta functions with: 
                l(1) =   0
                l(2) =   0
                l(3) =   1
                l(4) =   1
                l(5) =   2
                l(6) =   2
     Q(r) pseudized with 0 coefficients 


     PseudoPot. # 2 for C  read from file:
     /users/bkreitz1/quantum-espresso/potentials/C.pbe-n-kjpaw_psl.1.0.0.UPF
     MD5 check sum: a169b0ebad56f5ec0d79c4633f80bf22
     Pseudo is Projector augmented-wave + core cor, Zval =  4.0
     Generated using 'atomic' code by A. Dal Corso  v.6.7MaX
     Shape of augmentation charge: PSQ
     Using radial grid of 1073 points,  4 beta functions with: 
                l(1) =   0
                l(2) =   0
                l(3) =   1
                l(4) =   1
     Q(r) pseudized with 0 coefficients 


     PseudoPot. # 3 for H  read from file:
     /users/bkreitz1/quantum-espresso/potentials/H.pbe-kjpaw_psl.1.0.0.UPF
     MD5 check sum: ae98473e6dc62675f0d0baffdab24f65
     Pseudo is Projector augmented-wave, Zval =  1.0
     Generated using 'atomic' code by A. Dal Corso  v.6.7MaX
     Shape of augmentation charge: PSQ
     Using radial grid of  929 points,  2 beta functions with: 
                l(1) =   0
                l(2) =   0
     Q(r) pseudized with 0 coefficients 


     atomic species   valence    mass     pseudopotential
        Pt            10.00   195.08400     Pt( 1.00)
        C              4.00    12.01100     C ( 1.00)
        H              1.00     1.00800     H ( 1.00)

     No symmetry found



   Cartesian axes

     site n.     atom                  positions (alat units)
         1           Pt  tau(   1) = (   0.0000000   0.0000000   1.0017346  )
         2           Pt  tau(   2) = (   0.3333333   0.0000000   1.0017346  )
         3           Pt  tau(   3) = (   0.6666667   0.0000000   1.0017346  )
         4           Pt  tau(   4) = (   0.1666667   0.2886751   1.0017346  )
         5           Pt  tau(   5) = (   0.5000000   0.2886751   1.0017346  )
         6           Pt  tau(   6) = (   0.8333333   0.2886751   1.0017346  )
         7           Pt  tau(   7) = (   0.3333333   0.5773503   1.0017346  )
         8           Pt  tau(   8) = (   0.6666667   0.5773503   1.0017346  )
         9           Pt  tau(   9) = (   1.0000000   0.5773503   1.0017346  )
        10           Pt  tau(  10) = (   0.1666667   0.0962250   1.2739001  )
        11           Pt  tau(  11) = (   0.5000000   0.0962250   1.2739001  )
        12           Pt  tau(  12) = (   0.8333333   0.0962250   1.2739001  )
        13           Pt  tau(  13) = (   0.3333333   0.3849002   1.2739001  )
        14           Pt  tau(  14) = (   0.6666667   0.3849002   1.2739001  )
        15           Pt  tau(  15) = (   1.0000000   0.3849002   1.2739001  )
        16           Pt  tau(  16) = (   0.5000000   0.6735753   1.2739001  )
        17           Pt  tau(  17) = (   0.8333333   0.6735753   1.2739001  )
        18           Pt  tau(  18) = (   1.1666667   0.6735753   1.2739001  )
        19           Pt  tau(  19) = (   0.0021879   0.1908248   1.5395423  )
        20           Pt  tau(  20) = (   0.3376208   0.1925166   1.5469104  )
        21           Pt  tau(  21) = (   0.6652331   0.1930712   1.5484973  )
        22           Pt  tau(  22) = (   0.1684393   0.4796615   1.5413399  )
        23           Pt  tau(  23) = (   0.5029294   0.4790212   1.5486792  )
        24           Pt  tau(  24) = (   0.8332936   0.4805620   1.5464947  )
        25           Pt  tau(  25) = (   0.3351829   0.7685242   1.5407865  )
        26           Pt  tau(  26) = (   0.6686484   0.7656920   1.5443669  )
        27           Pt  tau(  27) = (   1.0020269   0.7681940   1.5423926  )
        28           Pt  tau(  28) = (   0.0054371  -0.0032908   1.8150839  )
        29           Pt  tau(  29) = (   0.3368890  -0.0061194   1.8147348  )
        30           Pt  tau(  30) = (   0.6735699  -0.0071153   1.8163354  )
        31           Pt  tau(  31) = (   0.1709100   0.2843030   1.8162338  )
        32           Pt  tau(  32) = (   0.5065282   0.2831112   1.8403033  )
        33           Pt  tau(  33) = (   0.8446660   0.2838675   1.8138745  )
        34           Pt  tau(  34) = (   0.3372207   0.5748487   1.8145226  )
        35           Pt  tau(  35) = (   0.6731675   0.5742823   1.8381614  )
        36           Pt  tau(  36) = (   1.0062321   0.5734144   1.8166685  )
        37           C   tau(  37) = (   0.5454176   0.2795126   2.0594153  )
        38           C   tau(  38) = (   0.6362361   0.3974131   2.1505906  )
        39           C   tau(  39) = (   0.6554646   0.5633951   2.0829477  )
        40           H   tau(  40) = (   0.5058631   0.1764898   2.1257637  )
        41           H   tau(  41) = (   0.5875373   0.4032397   2.2710492  )
        42           H   tau(  42) = (   0.7530538   0.3415969   2.1654649  )
        43           H   tau(  43) = (   0.7608945   0.6197462   2.1301920  )
        44           H   tau(  44) = (   0.5527465   0.6351951   2.1131284  )

     number of k points=    13  Marzari-Vanderbilt smearing, width (Ry)=  0.0200
                       cart. coord. in units 2pi/alat
        k(    1) = (   0.0000000   0.0000000   0.0000000), wk =   0.0800000
        k(    2) = (   0.0000000   0.2309401   0.0000000), wk =   0.1600000
        k(    3) = (   0.0000000   0.4618802   0.0000000), wk =   0.1600000
        k(    4) = (   0.2000000  -0.1154701   0.0000000), wk =   0.1600000
        k(    5) = (   0.2000000   0.1154701   0.0000000), wk =   0.1600000
        k(    6) = (   0.2000000   0.3464102   0.0000000), wk =   0.1600000
        k(    7) = (   0.2000000  -0.5773503   0.0000000), wk =   0.1600000
        k(    8) = (   0.2000000  -0.3464102   0.0000000), wk =   0.1600000
        k(    9) = (   0.4000000  -0.2309401   0.0000000), wk =   0.1600000
        k(   10) = (   0.4000000  -0.0000000   0.0000000), wk =   0.1600000
        k(   11) = (   0.4000000   0.2309401   0.0000000), wk =   0.1600000
        k(   12) = (   0.4000000  -0.6928203   0.0000000), wk =   0.1600000
        k(   13) = (   0.4000000  -0.4618802   0.0000000), wk =   0.1600000

     Dense  grid:   735061 G-vectors     FFT dimensions: (  80,  80, 270)

     Estimated max dynamical RAM per process >       8.95 GB

     Check: negative core charge=   -0.000002

     Initial potential from superposition of free atoms

     starting charge  376.99372, renormalised to  377.00000

     negative rho (up, down):  1.119E-02 0.000E+00


     %%%%%%%%%%%%%%%%%%%%%%%%%%%%%%%%%%%%%%%%%%%%%%%%%%%%%%%%%%%%%%%%%%%%%%%%
     %                                                                      %
     % You are using vdW-DF, which was implemented by the Thonhauser group. %
     % Please cite the following two papers that made this development      %
     % possible and the two reviews that describe the various versions:     %
     %                                                                      %
     %   T. Thonhauser et al., PRL 115, 136402 (2015).                      %
     %   T. Thonhauser et al., PRB 76, 125112 (2007).                       %
     %   K. Berland et al., Rep. Prog. Phys. 78, 066501 (2015).             %
     %   D.C. Langreth et al., J. Phys.: Condens. Matter 21, 084203 (2009). %
     %                                                                      %
     %                                                                      %
     % If you are calculating the stress with vdW-DF, please also cite:     %
     %                                                                      %
     %   R. Sabatini et al., J. Phys.: Condens. Matter 24, 424209 (2012).   %
     %                                                                      %
     %%%%%%%%%%%%%%%%%%%%%%%%%%%%%%%%%%%%%%%%%%%%%%%%%%%%%%%%%%%%%%%%%%%%%%%%


     Starting wfcs are  341 randomized atomic wfcs
     Checking if some PAW data can be deallocated... 

     total cpu time spent up to now is      325.9 secs

     Self-consistent Calculation

     iteration #  1     ecut=    60.00 Ry     beta= 0.70
     Davidson diagonalization with overlap
     ethr =  1.00E-02,  avg # of iterations =  2.9

     negative rho (up, down):  1.264E-02 0.000E+00

     total cpu time spent up to now is      925.4 secs

     total energy              =  -27816.55758383 Ry
     estimated scf accuracy    <       4.36999195 Ry

     iteration #  2     ecut=    60.00 Ry     beta= 0.70
     Davidson diagonalization with overlap
     ethr =  1.16E-03,  avg # of iterations =  2.2

     negative rho (up, down):  1.045E-02 0.000E+00

     total cpu time spent up to now is     1537.6 secs

     total energy              =  -27817.12746372 Ry
     estimated scf accuracy    <       1.33878802 Ry

     iteration #  3     ecut=    60.00 Ry     beta= 0.70
     Davidson diagonalization with overlap
     ethr =  3.55E-04,  avg # of iterations =  7.6

     negative rho (up, down):  7.894E-03 0.000E+00

     total cpu time spent up to now is     2191.3 secs

     total energy              =  -27817.23664434 Ry
     estimated scf accuracy    <       0.50062695 Ry

     iteration #  4     ecut=    60.00 Ry     beta= 0.70
     Davidson diagonalization with overlap
     ethr =  1.33E-04,  avg # of iterations =  7.2

     negative rho (up, down):  4.782E-03 0.000E+00

     total cpu time spent up to now is     2897.4 secs

     total energy              =  -27817.29098247 Ry
     estimated scf accuracy    <       0.20824058 Ry

     iteration #  5     ecut=    60.00 Ry     beta= 0.70
     Davidson diagonalization with overlap
     c_bands:  1 eigenvalues not converged
     ethr =  5.52E-05,  avg # of iterations =  9.5

     negative rho (up, down):  3.484E-03 0.000E+00

     total cpu time spent up to now is     3636.7 secs

     total energy              =  -27817.31380446 Ry
     estimated scf accuracy    <       0.14309564 Ry

     iteration #  6     ecut=    60.00 Ry     beta= 0.70
     Davidson diagonalization with overlap
     ethr =  3.80E-05,  avg # of iterations =  3.1

     negative rho (up, down):  2.346E-03 0.000E+00

     total cpu time spent up to now is     4218.4 secs

     total energy              =  -27817.31985394 Ry
     estimated scf accuracy    <       0.01871055 Ry

     iteration #  7     ecut=    60.00 Ry     beta= 0.70
     Davidson diagonalization with overlap
     c_bands:  3 eigenvalues not converged
     c_bands:  2 eigenvalues not converged
     c_bands:  2 eigenvalues not converged
     c_bands:  1 eigenvalues not converged
     c_bands:  1 eigenvalues not converged
     c_bands:  1 eigenvalues not converged
     ethr =  4.96E-06,  avg # of iterations = 17.5

     negative rho (up, down):  2.180E-03 0.000E+00

     total cpu time spent up to now is     5305.3 secs

     total energy              =  -27817.32688938 Ry
     estimated scf accuracy    <       0.01011187 Ry

     iteration #  8     ecut=    60.00 Ry     beta= 0.70
     Davidson diagonalization with overlap
     c_bands:  1 eigenvalues not converged
     c_bands:  1 eigenvalues not converged
     ethr =  2.68E-06,  avg # of iterations =  8.2

     negative rho (up, down):  2.104E-03 0.000E+00

     total cpu time spent up to now is     5963.6 secs

     total energy              =  -27817.32777503 Ry
     estimated scf accuracy    <       0.00488199 Ry

     iteration #  9     ecut=    60.00 Ry     beta= 0.70
     Davidson diagonalization with overlap
     ethr =  1.29E-06,  avg # of iterations =  7.5

     negative rho (up, down):  2.341E-03 0.000E+00

     total cpu time spent up to now is     6586.9 secs

     total energy              =  -27817.32796787 Ry
     estimated scf accuracy    <       0.00339741 Ry

     iteration # 10     ecut=    60.00 Ry     beta= 0.70
     Davidson diagonalization with overlap
     c_bands:  2 eigenvalues not converged
     c_bands:  1 eigenvalues not converged
     ethr =  9.01E-07,  avg # of iterations =  9.7

     negative rho (up, down):  4.245E-03 0.000E+00

     total cpu time spent up to now is     7233.8 secs

     total energy              =  -27817.32796533 Ry
     estimated scf accuracy    <       0.00256493 Ry

     iteration # 11     ecut=    60.00 Ry     beta= 0.70
     Davidson diagonalization with overlap
     c_bands:  1 eigenvalues not converged
     c_bands:  1 eigenvalues not converged
     c_bands:  1 eigenvalues not converged
     ethr =  6.80E-07,  avg # of iterations = 11.2

     negative rho (up, down):  8.274E-03 0.000E+00

     total cpu time spent up to now is     7888.5 secs

     total energy              =  -27817.32790177 Ry
     estimated scf accuracy    <       0.00182539 Ry

     iteration # 12     ecut=    60.00 Ry     beta= 0.70
     Davidson diagonalization with overlap
     ethr =  4.84E-07,  avg # of iterations =  3.9

     negative rho (up, down):  1.235E-02 0.000E+00

     total cpu time spent up to now is     8463.6 secs

     total energy              =  -27817.32795479 Ry
     estimated scf accuracy    <       0.00094395 Ry

     iteration # 13     ecut=    60.00 Ry     beta= 0.70
     Davidson diagonalization with overlap
     c_bands:  1 eigenvalues not converged
     c_bands:  1 eigenvalues not converged
     c_bands:  1 eigenvalues not converged
     ethr =  2.50E-07,  avg # of iterations =  9.8

     negative rho (up, down):  1.281E-02 0.000E+00

     total cpu time spent up to now is     9083.4 secs

     total energy              =  -27817.32803964 Ry
     estimated scf accuracy    <       0.00030813 Ry

     iteration # 14     ecut=    60.00 Ry     beta= 0.70
     Davidson diagonalization with overlap
     ethr =  8.17E-08,  avg # of iterations =  2.6

     negative rho (up, down):  1.134E-02 0.000E+00

     total cpu time spent up to now is     9674.1 secs

     total energy              =  -27817.32808302 Ry
     estimated scf accuracy    <       0.00010611 Ry

     iteration # 15     ecut=    60.00 Ry     beta= 0.70
     Davidson diagonalization with overlap
     ethr =  2.81E-08,  avg # of iterations =  4.0

     negative rho (up, down):  1.063E-02 0.000E+00

     total cpu time spent up to now is    10315.0 secs

     total energy              =  -27817.32810902 Ry
     estimated scf accuracy    <       0.00002694 Ry

     iteration # 16     ecut=    60.00 Ry     beta= 0.70
     Davidson diagonalization with overlap
     ethr =  7.15E-09,  avg # of iterations =  4.7

     negative rho (up, down):  1.108E-02 0.000E+00

     total cpu time spent up to now is    11075.2 secs

     total energy              =  -27817.32811711 Ry
     estimated scf accuracy    <       0.00002163 Ry

     iteration # 17     ecut=    60.00 Ry     beta= 0.70
     Davidson diagonalization with overlap
     ethr =  5.74E-09,  avg # of iterations =  1.6

     negative rho (up, down):  1.137E-02 0.000E+00

     total cpu time spent up to now is    11613.7 secs

     total energy              =  -27817.32811698 Ry
     estimated scf accuracy    <       0.00000939 Ry

     iteration # 18     ecut=    60.00 Ry     beta= 0.70
     Davidson diagonalization with overlap
     ethr =  2.49E-09,  avg # of iterations =  1.9

     negative rho (up, down):  1.189E-02 0.000E+00

     total cpu time spent up to now is    12167.7 secs

     total energy              =  -27817.32811556 Ry
     estimated scf accuracy    <       0.00000578 Ry

     iteration # 19     ecut=    60.00 Ry     beta= 0.70
     Davidson diagonalization with overlap
     ethr =  1.53E-09,  avg # of iterations =  1.2

     negative rho (up, down):  1.215E-02 0.000E+00

     total cpu time spent up to now is    12682.8 secs

     total energy              =  -27817.32811505 Ry
     estimated scf accuracy    <       0.00000388 Ry

     iteration # 20     ecut=    60.00 Ry     beta= 0.70
     Davidson diagonalization with overlap
     ethr =  1.03E-09,  avg # of iterations =  1.0

     negative rho (up, down):  1.232E-02 0.000E+00

     total cpu time spent up to now is    13176.4 secs

     End of self-consistent calculation

          k = 0.0000 0.0000 0.0000 ( 91893 PWs)   bands (ev):

   -13.7474 -10.6471  -8.1614  -6.7651  -5.6280  -5.4113  -5.1180  -4.4980
    -4.4176  -4.3785  -4.3706  -4.3662  -4.3474  -4.3283  -4.3080  -4.0772
    -3.8236  -3.8185  -3.8121  -3.8002  -3.7910  -3.7127  -3.3962  -3.3660
    -3.3536  -3.3466  -3.3397  -3.3278  -3.2096  -3.1522  -3.1325  -3.1266
    -3.1096  -3.0912  -3.0743  -3.0041  -2.9384  -2.9285  -2.9111  -2.9100
    -2.9009  -2.8844  -2.8709  -2.8394  -2.8286  -2.8059  -2.7913  -2.7292
    -2.4279  -2.3283  -2.2859  -2.2683  -2.2566  -2.2261  -2.2184  -2.2064
    -2.1750  -2.1415  -2.0891  -2.0148  -2.0066  -1.8848  -1.7741  -1.6536
    -1.5097  -1.4927  -1.4688  -1.4521  -1.4326  -1.3702  -1.3417  -1.3323
    -1.2882  -1.2763  -1.2747  -1.2572  -1.2527  -1.2393  -1.2183  -1.2054
    -1.1968  -1.1843  -1.1705  -1.1543  -1.1299  -1.0802  -1.0764  -1.0634
    -1.0469  -0.9846  -0.9150  -0.9026  -0.8714  -0.8616  -0.8460  -0.8280
    -0.8245  -0.8074  -0.7977  -0.7630  -0.7386  -0.7213  -0.7161  -0.6883
    -0.6220  -0.6156  -0.6101  -0.5747  -0.5737  -0.4891  -0.4629  -0.4473
    -0.4200  -0.4025  -0.2867  -0.0997  -0.0791  -0.0256   0.0101   0.0358
     0.0562   0.0580   0.0740   0.0897   0.1385   0.1436   0.1755   0.2118
     0.2311   0.2519   0.3183   0.3326   0.3603   0.3798   0.4244   0.4356
     0.4562   0.5135   0.5379   0.5675   0.5702   0.5975   0.7239   0.7287
     0.7983   0.8019   0.8166   0.8305   0.8625   0.8938   1.0319   1.0461
     1.0634   1.0983   1.1185   1.1286   1.1431   1.1632   1.2220   1.2324
     1.2364   1.2498   1.2604   1.2754   1.2813   1.2859   1.2960   1.3038
     1.3264   1.3571   1.3650   1.3871   1.3993   1.4224   1.4713   1.4857
     1.4899   1.4951   1.4965   1.5218   1.5285   1.5639   1.5678   1.6227
     1.6293   1.6409   1.6478   1.6606   1.6686   1.6764   1.7174   1.7475
     1.7536   1.7855   1.7915   1.9241   1.9547   2.0292   2.0450   2.0764
     2.0802   2.0880   2.1052   2.2913   2.3806   2.6317   2.8421   2.9268
     2.9506   2.9715   3.3464   3.9090   4.4048   5.1703   5.2175   5.2671
     5.2757   5.4950   5.9257   6.4013   6.5375   6.8452   6.8546   6.8717
     6.8884   6.9097   6.9320

          k = 0.0000 0.2309 0.0000 ( 91786 PWs)   bands (ev):

   -13.7473 -10.6481  -8.1572  -6.6214  -5.5891  -5.3156  -5.1144  -4.8718
    -4.5034  -4.4592  -4.3361  -4.2458  -4.2126  -4.1468  -4.1006  -4.0390
    -3.9044  -3.8726  -3.7528  -3.7368  -3.7290  -3.6689  -3.4366  -3.3500
    -3.3213  -3.3128  -3.2986  -3.2407  -3.2233  -3.1996  -3.1748  -3.1587
    -3.1395  -3.1163  -3.0635  -3.0138  -3.0004  -2.9637  -2.9368  -2.9185
    -2.9003  -2.8793  -2.8349  -2.7143  -2.6937  -2.6781  -2.6498  -2.6216
    -2.4560  -2.4244  -2.3934  -2.3564  -2.3297  -2.2964  -2.2446  -2.1712
    -2.0898  -2.0720  -2.0391  -2.0148  -1.9881  -1.9199  -1.8088  -1.7867
    -1.6777  -1.6206  -1.5888  -1.5693  -1.5616  -1.5096  -1.4835  -1.4430
    -1.4280  -1.4229  -1.3668  -1.3478  -1.3335  -1.2862  -1.2741  -1.2519
    -1.2167  -1.1764  -1.1632  -1.1198  -1.0874  -1.0716  -1.0337  -1.0054
    -0.9989  -0.9703  -0.9468  -0.9316  -0.8998  -0.8839  -0.8707  -0.8528
    -0.8268  -0.8032  -0.7584  -0.7367  -0.7334  -0.7073  -0.6974  -0.6743
    -0.6606  -0.6311  -0.6142  -0.5924  -0.5498  -0.5100  -0.4967  -0.4713
    -0.4394  -0.4035  -0.3764  -0.3510  -0.3322  -0.3271  -0.3179  -0.2845
    -0.1337  -0.0912  -0.0248   0.0054   0.0381   0.0598   0.0973   0.1134
     0.1362   0.1527   0.2416   0.2720   0.3175   0.3991   0.4191   0.4575
     0.4900   0.5028   0.5217   0.5293   0.5646   0.5751   0.6330   0.6690
     0.6838   0.7097   0.7150   0.8164   0.8346   0.8746   0.9082   0.9304
     0.9623   0.9834   1.0138   1.0520   1.0726   1.0902   1.1288   1.1453
     1.1829   1.2032   1.2276   1.2860   1.3078   1.3393   1.3505   1.3852
     1.4182   1.4411   1.4732   1.4853   1.4945   1.5539   1.5851   1.6230
     1.6289   1.6585   1.6802   1.6957   1.7192   1.7249   1.7444   1.7589
     1.7858   1.7984   1.9005   1.9203   1.9584   1.9656   1.9763   2.0093
     2.0153   2.0502   2.0580   2.0920   2.1047   2.1631   2.1820   2.2097
     2.2542   2.3374   2.3733   2.4002   2.6043   2.6719   2.9068   3.1126
     3.3990   3.5574   3.6767   3.9448   4.4836   4.7090   5.0757   5.5067
     5.6646   5.7105   5.7440   5.8957   6.1464   6.4775   6.5870   6.6104
     6.7511   6.8402   6.9716

          k = 0.0000 0.4619 0.0000 ( 91822 PWs)   bands (ev):

   -13.7471 -10.6498  -8.1506  -6.2071  -5.6292  -5.4946  -5.1368  -4.9269
    -4.5296  -4.4969  -4.4144  -4.1962  -4.0556  -3.9798  -3.9035  -3.8430
    -3.7673  -3.7493  -3.6294  -3.5966  -3.5689  -3.5507  -3.5279  -3.4709
    -3.3988  -3.3703  -3.3620  -3.3480  -3.3259  -3.3040  -3.2317  -3.2070
    -3.2010  -3.0602  -3.0013  -2.9642  -2.9463  -2.9296  -2.9241  -2.9057
    -2.8897  -2.7045  -2.6933  -2.6825  -2.6692  -2.6581  -2.6174  -2.4855
    -2.4353  -2.3936  -2.3590  -2.3432  -2.3250  -2.2691  -2.2362  -2.2124
    -2.2015  -2.1764  -2.1034  -2.0547  -2.0072  -1.9909  -1.9511  -1.8963
    -1.8555  -1.8218  -1.7740  -1.7528  -1.6755  -1.6377  -1.6030  -1.5719
    -1.5503  -1.5341  -1.4959  -1.4569  -1.4357  -1.3929  -1.3441  -1.3039
    -1.2873  -1.2565  -1.2125  -1.1800  -1.1639  -1.1502  -1.1217  -1.0965
    -1.0730  -1.0576  -1.0455  -1.0315  -1.0124  -0.9880  -0.9728  -0.9330
    -0.9131  -0.8857  -0.8584  -0.8421  -0.7987  -0.7535  -0.7258  -0.7093
    -0.6774  -0.6615  -0.6361  -0.6042  -0.5782  -0.5262  -0.4784  -0.4592
    -0.4227  -0.3887  -0.3631  -0.3366  -0.2738  -0.2580  -0.2224  -0.1937
    -0.1273  -0.1054  -0.0592  -0.0413  -0.0142   0.0053   0.0497   0.0659
     0.0901   0.1097   0.1266   0.1372   0.1630   0.1893   0.2187   0.2384
     0.2849   0.3559   0.3618   0.3726   0.4076   0.4402   0.5146   0.5541
     0.6010   0.6515   0.6763   0.7752   0.7931   0.8286   0.8424   0.8887
     0.9150   0.9551   0.9693   1.0067   1.0348   1.0648   1.0966   1.1079
     1.1863   1.2087   1.2211   1.2324   1.2575   1.2910   1.3623   1.3771
     1.4555   1.4660   1.4965   1.5199   1.5333   1.6233   1.6464   1.6605
     1.7222   1.7282   1.7692   1.7945   1.8164   1.8292   1.8747   1.9312
     1.9393   1.9731   1.9824   2.0012   2.0346   2.0431   2.1844   2.1995
     2.2120   2.2277   2.2725   2.3513   2.4648   2.5228   2.5879   2.6862
     2.9049   3.0441   3.2533   3.3011   3.3683   3.6183   3.6806   3.8406
     4.0297   4.2431   4.4927   4.5077   4.5598   4.6168   4.7678   4.8431
     5.0339   5.1428   5.2358   5.5007   5.8021   5.9101   6.1541   6.3323
     6.4427   6.6291   6.8164

          k = 0.2000-0.1155 0.0000 ( 91786 PWs)   bands (ev):

   -13.7474 -10.6471  -8.1597  -6.6204  -5.5880  -5.3180  -5.1145  -4.8550
    -4.5189  -4.4680  -4.3326  -4.2399  -4.2011  -4.1406  -4.1167  -4.0232
    -3.9256  -3.8887  -3.7494  -3.7468  -3.7211  -3.6517  -3.4439  -3.3547
    -3.3203  -3.3095  -3.2887  -3.2440  -3.2312  -3.2057  -3.1831  -3.1588
    -3.1052  -3.1029  -3.0674  -3.0322  -3.0199  -2.9459  -2.9330  -2.9181
    -2.8969  -2.8589  -2.8486  -2.7179  -2.6977  -2.6858  -2.6513  -2.6249
    -2.4926  -2.4128  -2.3907  -2.3379  -2.3159  -2.2983  -2.2374  -2.1424
    -2.1091  -2.0899  -2.0593  -2.0168  -1.9848  -1.9155  -1.8208  -1.7701
    -1.6941  -1.6279  -1.6001  -1.5774  -1.5585  -1.5031  -1.4667  -1.4456
    -1.4325  -1.4130  -1.3710  -1.3522  -1.3180  -1.2898  -1.2756  -1.2449
    -1.1920  -1.1665  -1.1597  -1.1056  -1.0883  -1.0705  -1.0459  -1.0208
    -1.0093  -0.9595  -0.9468  -0.9365  -0.9110  -0.8987  -0.8724  -0.8559
    -0.8447  -0.7684  -0.7648  -0.7547  -0.7378  -0.7190  -0.7002  -0.6781
    -0.6388  -0.6285  -0.6190  -0.5987  -0.5720  -0.5187  -0.4889  -0.4393
    -0.4172  -0.3956  -0.3837  -0.3549  -0.3374  -0.3250  -0.2964  -0.2632
    -0.1995  -0.0521  -0.0413   0.0152   0.0330   0.0706   0.0955   0.1062
     0.1458   0.1715   0.2415   0.3074   0.3152   0.3770   0.4424   0.4651
     0.4898   0.5152   0.5256   0.5372   0.5632   0.5895   0.6247   0.6568
     0.6792   0.7114   0.7149   0.7935   0.8520   0.8752   0.8893   0.9268
     0.9518   1.0016   1.0258   1.0519   1.0678   1.0936   1.1264   1.1539
     1.1903   1.2130   1.2270   1.2782   1.3011   1.3132   1.3382   1.3775
     1.4175   1.4415   1.4613   1.4916   1.5314   1.5473   1.5973   1.6032
     1.6163   1.6569   1.6777   1.6989   1.7187   1.7237   1.7387   1.7494
     1.8030   1.8097   1.9146   1.9322   1.9451   1.9688   1.9956   2.0102
     2.0297   2.0304   2.0571   2.0753   2.0793   2.1555   2.1802   2.2156
     2.2886   2.3608   2.3696   2.3841   2.4623   2.7227   2.8779   3.2158
     3.3068   3.5447   3.7162   4.0763   4.2626   4.7808   5.2685   5.3189
     5.6548   5.7191   5.7410   5.9174   6.1752   6.4685   6.5543   6.5954
     6.7173   6.7829   7.0840

          k = 0.2000 0.1155 0.0000 ( 91786 PWs)   bands (ev):

   -13.7473 -10.6480  -8.1575  -6.6210  -5.5865  -5.3166  -5.1141  -4.8771
    -4.4910  -4.4648  -4.3374  -4.2490  -4.2141  -4.1404  -4.1055  -4.0419
    -3.9002  -3.8700  -3.7497  -3.7417  -3.7267  -3.6810  -3.4306  -3.3432
    -3.3275  -3.3143  -3.2950  -3.2451  -3.2266  -3.2032  -3.1805  -3.1505
    -3.1403  -3.1193  -3.0515  -3.0161  -2.9810  -2.9675  -2.9355  -2.9081
    -2.8959  -2.8760  -2.8647  -2.7184  -2.7062  -2.6791  -2.6497  -2.6058
    -2.4565  -2.4053  -2.3821  -2.3392  -2.3328  -2.3228  -2.2507  -2.1696
    -2.1307  -2.0673  -2.0389  -2.0024  -1.9834  -1.9171  -1.8120  -1.7838
    -1.6787  -1.6209  -1.5882  -1.5809  -1.5560  -1.5255  -1.4832  -1.4475
    -1.4208  -1.4141  -1.3616  -1.3517  -1.3322  -1.2823  -1.2775  -1.2556
    -1.2048  -1.1771  -1.1662  -1.1207  -1.0843  -1.0792  -1.0350  -1.0022
    -0.9967  -0.9653  -0.9556  -0.9356  -0.9008  -0.8904  -0.8744  -0.8474
    -0.8227  -0.8024  -0.7640  -0.7378  -0.7303  -0.7035  -0.6878  -0.6799
    -0.6435  -0.6261  -0.6197  -0.5917  -0.5400  -0.5237  -0.5008  -0.4704
    -0.4294  -0.4012  -0.3813  -0.3504  -0.3366  -0.3286  -0.3164  -0.2984
    -0.1508  -0.0722  -0.0200   0.0009   0.0339   0.0708   0.0957   0.1124
     0.1391   0.1788   0.2429   0.2687   0.3064   0.3965   0.4264   0.4429
     0.4955   0.5003   0.5216   0.5354   0.5600   0.5834   0.6283   0.6659
     0.6885   0.7107   0.7223   0.8094   0.8407   0.8790   0.9165   0.9323
     0.9545   0.9824   1.0199   1.0441   1.0625   1.0850   1.1159   1.1508
     1.1772   1.2085   1.2352   1.2838   1.2990   1.3411   1.3663   1.3839
     1.4152   1.4346   1.4712   1.4823   1.4942   1.5546   1.5941   1.6168
     1.6358   1.6595   1.6826   1.6941   1.7191   1.7237   1.7407   1.7569
     1.7920   1.7995   1.9030   1.9249   1.9468   1.9658   1.9744   2.0007
     2.0208   2.0495   2.0633   2.0924   2.1062   2.1663   2.1794   2.2118
     2.2523   2.3391   2.3719   2.3965   2.5954   2.6715   2.8949   3.1385
     3.3626   3.5668   3.7046   3.9468   4.4766   4.7126   5.0791   5.4806
     5.6587   5.7194   5.7404   5.9107   6.1504   6.4801   6.5925   6.6277
     6.7218   6.8800   7.0420

          k = 0.2000 0.3464 0.0000 ( 91828 PWs)   bands (ev):

   -13.7471 -10.6497  -8.1514  -6.3415  -5.5668  -5.1594  -5.1178  -5.1130
    -5.0223  -4.2789  -4.0556  -4.0516  -4.0376  -4.0304  -3.9862  -3.9574
    -3.9338  -3.8640  -3.8532  -3.8044  -3.4915  -3.4832  -3.4512  -3.4299
    -3.3986  -3.3600  -3.2773  -3.2496  -3.2347  -3.2253  -3.2041  -3.1234
    -3.0874  -3.0708  -3.0688  -3.0404  -3.0298  -2.9981  -2.9651  -2.9510
    -2.9079  -2.8865  -2.8599  -2.7947  -2.5904  -2.5117  -2.4797  -2.4723
    -2.4325  -2.4166  -2.3943  -2.3786  -2.3458  -2.3039  -2.2352  -2.1828
    -2.1782  -2.0852  -2.0489  -2.0264  -1.9892  -1.9726  -1.9333  -1.8947
    -1.8474  -1.7588  -1.7336  -1.6652  -1.6455  -1.6122  -1.5945  -1.5682
    -1.5566  -1.5022  -1.4707  -1.4270  -1.3834  -1.3685  -1.3360  -1.3036
    -1.2909  -1.2509  -1.2177  -1.1946  -1.1688  -1.1303  -1.0760  -1.0578
    -1.0382  -1.0125  -0.9963  -0.9848  -0.9531  -0.9317  -0.9253  -0.9116
    -0.8820  -0.8450  -0.7896  -0.7705  -0.7557  -0.7436  -0.7189  -0.6849
    -0.6695  -0.6464  -0.6376  -0.6223  -0.6021  -0.5673  -0.5521  -0.5267
    -0.5073  -0.4720  -0.4211  -0.4144  -0.3992  -0.3686  -0.2938  -0.2893
    -0.2456  -0.1375  -0.0864  -0.0608  -0.0266   0.0235   0.0416   0.0779
     0.1266   0.1436   0.1605   0.1899   0.1987   0.2336   0.2502   0.3258
     0.3521   0.4171   0.4691   0.4863   0.4951   0.5208   0.5660   0.6230
     0.6463   0.6725   0.7114   0.7367   0.7723   0.8249   0.8551   0.8865
     0.9246   0.9397   0.9793   1.0093   1.0289   1.0469   1.0590   1.0765
     1.0905   1.1391   1.1532   1.2050   1.2598   1.2891   1.3890   1.4018
     1.4209   1.5598   1.5898   1.6089   1.6420   1.6625   1.7250   1.7332
     1.7630   1.7804   1.7994   1.8219   1.8244   1.8348   1.8659   1.8914
     1.9037   1.9496   1.9820   2.0063   2.0319   2.0558   2.0827   2.1462
     2.2064   2.2530   2.2787   2.3128   2.3464   2.3674   2.4217   2.4802
     2.5698   2.8717   3.0090   3.0448   3.2872   3.3756   3.5563   3.6091
     3.7326   4.0060   4.2312   4.3339   4.5104   4.5757   4.8395   5.1578
     5.2595   5.6933   5.7259   5.8523   5.9500   6.1309   6.2496   6.3712
     6.5055   6.5354   6.6455

          k = 0.2000-0.5774 0.0000 ( 91792 PWs)   bands (ev):

   -13.7470 -10.6498  -8.1500  -5.8270  -5.8180  -5.5268  -5.1987  -5.1212
    -4.6217  -4.5578  -4.2023  -4.0576  -3.9718  -3.8993  -3.8534  -3.7540
    -3.7166  -3.6546  -3.6396  -3.6019  -3.5556  -3.5192  -3.5040  -3.4912
    -3.4738  -3.4393  -3.3457  -3.3151  -3.3102  -3.2968  -3.2605  -3.2500
    -3.1470  -3.0954  -3.0526  -3.0312  -2.9714  -2.9550  -2.9285  -2.8990
    -2.8855  -2.8452  -2.8124  -2.7778  -2.6875  -2.6293  -2.5175  -2.4848
    -2.4597  -2.4239  -2.3246  -2.3117  -2.2796  -2.1891  -2.1700  -2.1290
    -2.0923  -2.0549  -2.0260  -2.0021  -1.9758  -1.9421  -1.9027  -1.8895
    -1.8658  -1.8510  -1.8226  -1.8054  -1.7714  -1.7477  -1.6881  -1.6504
    -1.6218  -1.5859  -1.5269  -1.5165  -1.4807  -1.4129  -1.4055  -1.3941
    -1.3590  -1.3351  -1.2979  -1.2571  -1.2306  -1.2148  -1.1861  -1.1493
    -1.1331  -1.0825  -1.0435  -1.0199  -0.9959  -0.9602  -0.9205  -0.8832
    -0.8401  -0.8180  -0.8008  -0.7767  -0.7564  -0.7397  -0.7219  -0.6992
    -0.6852  -0.6653  -0.6495  -0.6329  -0.6020  -0.5581  -0.5540  -0.5416
    -0.5310  -0.5180  -0.5110  -0.4695  -0.4655  -0.3415  -0.2798  -0.2037
    -0.1685  -0.1571  -0.1319  -0.0606  -0.0483  -0.0124   0.0161   0.0471
     0.0618   0.0950   0.1161   0.1530   0.1670   0.2076   0.2270   0.2896
     0.3208   0.3329   0.4013   0.4426   0.4724   0.5317   0.5648   0.6117
     0.6363   0.6692   0.6954   0.7224   0.7463   0.7644   0.7914   0.8261
     0.8379   0.8962   0.9205   0.9438   0.9626   0.9816   1.0214   1.0377
     1.0989   1.1358   1.1503   1.2650   1.2925   1.3744   1.4294   1.4574
     1.4748   1.5208   1.5839   1.6030   1.6309   1.7082   1.7452   1.7502
     1.7769   1.7986   1.8090   1.8417   1.8568   1.9290   1.9454   1.9591
     1.9808   1.9967   2.0213   2.0245   2.0941   2.1617   2.1950   2.2214
     2.2483   2.2730   2.2937   2.3115   2.3959   2.4839   2.7941   2.9486
     3.1393   3.3891   3.3989   3.6140   3.7170   3.7461   3.7956   3.9117
     4.1535   4.4019   4.4382   4.6816   4.8483   4.9603   4.9787   5.0198
     5.0839   5.2373   5.3169   5.3411   5.4997   5.7940   5.9053   6.0360
     6.1675   6.4394   6.4667

          k = 0.2000-0.3464 0.0000 ( 91828 PWs)   bands (ev):

   -13.7472 -10.6482  -8.1550  -6.3402  -5.5685  -5.1709  -5.1271  -5.0955
    -5.0086  -4.2822  -4.0662  -4.0489  -4.0325  -3.9983  -3.9855  -3.9697
    -3.9558  -3.8684  -3.8421  -3.8253  -3.4778  -3.4706  -3.4604  -3.4381
    -3.3892  -3.3456  -3.2829  -3.2475  -3.2337  -3.2203  -3.1971  -3.1612
    -3.1034  -3.0774  -3.0708  -3.0544  -3.0239  -2.9890  -2.9641  -2.9467
    -2.9062  -2.8928  -2.8445  -2.7549  -2.5869  -2.5348  -2.4986  -2.4803
    -2.4511  -2.4303  -2.4113  -2.3746  -2.3430  -2.3009  -2.1933  -2.1709
    -2.1289  -2.1001  -2.0706  -2.0409  -1.9936  -1.9742  -1.9413  -1.9009
    -1.8238  -1.7767  -1.7383  -1.7036  -1.6477  -1.6061  -1.5748  -1.5537
    -1.5418  -1.5090  -1.4969  -1.4222  -1.3855  -1.3411  -1.3099  -1.3007
    -1.2768  -1.2705  -1.2340  -1.1904  -1.1790  -1.1225  -1.0806  -1.0594
    -1.0437  -1.0147  -0.9948  -0.9825  -0.9616  -0.9321  -0.9208  -0.8874
    -0.8785  -0.8219  -0.7880  -0.7739  -0.7595  -0.7417  -0.7107  -0.6875
    -0.6749  -0.6510  -0.6412  -0.6158  -0.5995  -0.5788  -0.5665  -0.5364
    -0.5113  -0.4982  -0.4258  -0.4069  -0.3865  -0.3514  -0.3019  -0.2659
    -0.2148  -0.1611  -0.0937  -0.0521  -0.0015   0.0271   0.0666   0.0887
     0.1085   0.1433   0.1578   0.1925   0.2022   0.2269   0.2820   0.2938
     0.3185   0.4206   0.4654   0.4888   0.5246   0.5473   0.5575   0.5944
     0.6347   0.6797   0.7254   0.7460   0.7726   0.7920   0.8520   0.8655
     0.9438   0.9592   0.9777   1.0097   1.0302   1.0460   1.0625   1.0814
     1.0920   1.1108   1.1446   1.2148   1.2627   1.2915   1.3445   1.4069
     1.4811   1.5254   1.5890   1.6200   1.6276   1.6730   1.7252   1.7418
     1.7646   1.7830   1.7957   1.8261   1.8334   1.8514   1.8572   1.8895
     1.8979   1.9516   1.9937   2.0051   2.0286   2.0514   2.1059   2.1458
     2.1896   2.2485   2.2774   2.2997   2.3323   2.3672   2.4419   2.4929
     2.5984   2.7917   2.9629   3.0691   3.1792   3.4411   3.5847   3.6088
     3.8488   3.8857   4.2244   4.3652   4.5077   4.5665   4.7830   5.1907
     5.3124   5.6865   5.7555   5.9146   5.9394   6.0219   6.2622   6.3119
     6.4670   6.5085   6.6666

          k = 0.4000-0.2309 0.0000 ( 91822 PWs)   bands (ev):

   -13.7473 -10.6472  -8.1570  -6.2039  -5.6239  -5.4925  -5.1481  -4.9121
    -4.5491  -4.5009  -4.3871  -4.1896  -4.0854  -3.9794  -3.8933  -3.8379
    -3.7794  -3.7604  -3.6382  -3.5884  -3.5698  -3.5401  -3.5271  -3.4537
    -3.4020  -3.3887  -3.3670  -3.3360  -3.3188  -3.2902  -3.2332  -3.2138
    -3.1959  -3.0688  -3.0046  -2.9668  -2.9521  -2.9406  -2.9241  -2.8932
    -2.8825  -2.7202  -2.6925  -2.6856  -2.6688  -2.6487  -2.6242  -2.5421
    -2.4159  -2.3831  -2.3593  -2.3406  -2.3142  -2.2816  -2.2312  -2.2046
    -2.1886  -2.1693  -2.1120  -2.0592  -2.0123  -1.9900  -1.9615  -1.9044
    -1.8716  -1.8345  -1.7995  -1.7865  -1.6910  -1.6378  -1.6114  -1.5616
    -1.5334  -1.5148  -1.4850  -1.4465  -1.4222  -1.3619  -1.3139  -1.2881
    -1.2553  -1.2259  -1.2093  -1.1795  -1.1712  -1.1617  -1.1097  -1.1009
    -1.0747  -1.0699  -1.0392  -1.0343  -1.0149  -1.0016  -0.9765  -0.9557
    -0.9144  -0.8837  -0.8691  -0.8668  -0.8488  -0.7303  -0.7235  -0.6927
    -0.6817  -0.6351  -0.6150  -0.6006  -0.5746  -0.5195  -0.4989  -0.4624
    -0.4121  -0.4065  -0.3680  -0.3368  -0.3066  -0.2384  -0.2144  -0.1755
    -0.1168  -0.0927  -0.0558  -0.0281   0.0015   0.0121   0.0522   0.0746
     0.0891   0.1096   0.1328   0.1404   0.1599   0.1770   0.1972   0.2197
     0.3121   0.3308   0.3688   0.3849   0.4033   0.4500   0.5183   0.5803
     0.5898   0.6392   0.6750   0.7755   0.8052   0.8327   0.8553   0.9260
     0.9334   0.9378   0.9671   1.0145   1.0362   1.0502   1.0975   1.1067
     1.1789   1.2078   1.2220   1.2314   1.2505   1.2729   1.3709   1.3897
     1.4715   1.4845   1.5115   1.5246   1.5408   1.6279   1.6334   1.6462
     1.6950   1.7256   1.7718   1.8066   1.8321   1.8404   1.8905   1.9165
     1.9539   1.9633   1.9795   1.9830   2.0161   2.0311   2.1806   2.1955
     2.2074   2.2257   2.2334   2.3566   2.4487   2.4664   2.5406   2.6807
     2.9110   3.1062   3.2671   3.2873   3.4857   3.5331   3.6717   3.7568
     4.0241   4.2204   4.4928   4.4987   4.5597   4.6514   4.7858   4.8309
     5.1072   5.1621   5.3279   5.4299   5.7213   5.8434   6.0692   6.4087
     6.4398   6.5448   6.8595

          k = 0.4000-0.0000 0.0000 ( 91828 PWs)   bands (ev):

   -13.7472 -10.6481  -8.1554  -6.3391  -5.5662  -5.1672  -5.1276  -5.0996
    -5.0118  -4.2797  -4.0651  -4.0474  -4.0353  -3.9988  -3.9929  -3.9644
    -3.9533  -3.8747  -3.8454  -3.8170  -3.4836  -3.4789  -3.4558  -3.4392
    -3.3943  -3.3536  -3.2649  -3.2480  -3.2330  -3.2185  -3.2054  -3.1560
    -3.1056  -3.0874  -3.0662  -3.0560  -3.0099  -2.9882  -2.9535  -2.9417
    -2.9084  -2.8899  -2.8357  -2.7620  -2.5968  -2.5445  -2.4954  -2.4845
    -2.4551  -2.4289  -2.3963  -2.3615  -2.3335  -2.2856  -2.2124  -2.1889
    -2.1552  -2.1123  -2.0596  -2.0119  -2.0010  -1.9720  -1.9613  -1.8971
    -1.8289  -1.7716  -1.7354  -1.7142  -1.6520  -1.6205  -1.5844  -1.5559
    -1.5367  -1.5043  -1.4900  -1.4311  -1.3662  -1.3406  -1.3192  -1.3052
    -1.2809  -1.2568  -1.2159  -1.1962  -1.1688  -1.1221  -1.0761  -1.0578
    -1.0440  -1.0309  -0.9941  -0.9846  -0.9595  -0.9350  -0.9140  -0.8956
    -0.8542  -0.8424  -0.7951  -0.7705  -0.7572  -0.7261  -0.7138  -0.6821
    -0.6744  -0.6584  -0.6512  -0.6090  -0.6017  -0.5739  -0.5589  -0.5312
    -0.5087  -0.4836  -0.4326  -0.4105  -0.3929  -0.3599  -0.3083  -0.2531
    -0.2366  -0.1587  -0.0843  -0.0418  -0.0124   0.0377   0.0647   0.0862
     0.1183   0.1368   0.1519   0.1917   0.2073   0.2499   0.2627   0.2881
     0.3128   0.4204   0.4758   0.4879   0.5103   0.5401   0.5708   0.6163
     0.6377   0.6744   0.7207   0.7397   0.7771   0.8129   0.8480   0.8901
     0.9365   0.9509   0.9669   0.9995   1.0254   1.0461   1.0555   1.0788
     1.0995   1.1094   1.1496   1.2038   1.2525   1.2924   1.3592   1.4050
     1.4886   1.5205   1.5953   1.6169   1.6258   1.6626   1.7278   1.7407
     1.7687   1.7782   1.8059   1.8297   1.8343   1.8557   1.8598   1.8897
     1.8973   1.9497   1.9897   2.0099   2.0283   2.0520   2.1078   2.1496
     2.1772   2.2497   2.2703   2.2893   2.3294   2.3716   2.4507   2.4955
     2.6204   2.7279   2.9780   3.0877   3.1735   3.4245   3.5821   3.6425
     3.8105   3.9098   4.2253   4.3994   4.5004   4.5702   4.7652   5.1567
     5.3425   5.6859   5.7470   5.9154   5.9592   6.0067   6.2720   6.3064
     6.4714   6.5171   6.6424

          k = 0.4000 0.2309 0.0000 ( 91822 PWs)   bands (ev):

   -13.7471 -10.6496  -8.1513  -6.2055  -5.6145  -5.5096  -5.1329  -4.9337
    -4.5169  -4.5013  -4.4209  -4.2033  -4.0523  -3.9777  -3.9017  -3.8398
    -3.7715  -3.7482  -3.6368  -3.6025  -3.5650  -3.5572  -3.5221  -3.4692
    -3.3945  -3.3801  -3.3665  -3.3520  -3.3119  -3.2955  -3.2337  -3.2080
    -3.1912  -3.0952  -2.9934  -2.9519  -2.9420  -2.9245  -2.9141  -2.9023
    -2.8792  -2.7252  -2.7023  -2.6841  -2.6744  -2.6467  -2.5987  -2.4864
    -2.4189  -2.4002  -2.3702  -2.3390  -2.3216  -2.2801  -2.2348  -2.2078
    -2.1914  -2.1757  -2.1398  -2.0573  -2.0109  -1.9884  -1.9639  -1.8808
    -1.8606  -1.8237  -1.7839  -1.7409  -1.6699  -1.6633  -1.6130  -1.5651
    -1.5458  -1.5233  -1.4910  -1.4601  -1.4400  -1.3982  -1.3539  -1.3171
    -1.2715  -1.2608  -1.2145  -1.1894  -1.1575  -1.1531  -1.1263  -1.0955
    -1.0701  -1.0486  -1.0424  -1.0318  -1.0178  -0.9931  -0.9660  -0.9177
    -0.9023  -0.8768  -0.8570  -0.8417  -0.8160  -0.7534  -0.7262  -0.7065
    -0.6747  -0.6530  -0.6229  -0.6000  -0.5857  -0.5472  -0.4759  -0.4515
    -0.4096  -0.3913  -0.3715  -0.3294  -0.2790  -0.2446  -0.2388  -0.2015
    -0.1038  -0.0898  -0.0690  -0.0513   0.0067   0.0280   0.0398   0.0768
     0.0894   0.0985   0.1188   0.1329   0.1666   0.1853   0.2105   0.2392
     0.2719   0.3420   0.3635   0.3871   0.4009   0.4419   0.5335   0.5658
     0.6014   0.6513   0.6716   0.7862   0.7963   0.8130   0.8458   0.8839
     0.9200   0.9485   0.9645   1.0111   1.0289   1.0553   1.1002   1.1143
     1.1807   1.2065   1.2201   1.2320   1.2558   1.2798   1.3815   1.3939
     1.4428   1.4787   1.4881   1.5173   1.5359   1.6227   1.6460   1.6541
     1.7168   1.7290   1.7821   1.7882   1.8242   1.8309   1.8805   1.9341
     1.9394   1.9741   1.9794   2.0016   2.0274   2.0415   2.1828   2.1994
     2.2085   2.2249   2.2714   2.3539   2.4550   2.4661   2.5659   2.7858
     2.8845   3.0274   3.2617   3.2894   3.3690   3.6216   3.7105   3.8255
     4.0285   4.2347   4.4920   4.5056   4.5617   4.6245   4.7786   4.8366
     5.0398   5.1697   5.2078   5.5105   5.8096   5.8708   6.1385   6.3400
     6.4821   6.6136   6.8658

          k = 0.4000-0.6928 0.0000 ( 91792 PWs)   bands (ev):

   -13.7471 -10.6496  -8.1504  -5.8252  -5.8117  -5.5375  -5.1949  -5.1182
    -4.6316  -4.5564  -4.1960  -4.0579  -3.9703  -3.8982  -3.8565  -3.7511
    -3.7254  -3.6616  -3.6407  -3.5992  -3.5572  -3.5172  -3.4968  -3.4868
    -3.4708  -3.4457  -3.3573  -3.3186  -3.3056  -3.2949  -3.2703  -3.2275
    -3.1398  -3.1003  -3.0569  -3.0318  -2.9805  -2.9549  -2.9158  -2.8993
    -2.8818  -2.8566  -2.8120  -2.7688  -2.6836  -2.6260  -2.5267  -2.4760
    -2.4544  -2.4088  -2.3363  -2.3150  -2.2889  -2.1935  -2.1570  -2.1227
    -2.1034  -2.0664  -2.0255  -2.0148  -1.9788  -1.9479  -1.9069  -1.8879
    -1.8690  -1.8455  -1.8224  -1.7980  -1.7762  -1.7378  -1.6929  -1.6591
    -1.6072  -1.5927  -1.5496  -1.5151  -1.4708  -1.4178  -1.4042  -1.3792
    -1.3448  -1.3258  -1.2989  -1.2778  -1.2491  -1.2334  -1.1835  -1.1489
    -1.1045  -1.0643  -1.0512  -1.0289  -0.9930  -0.9718  -0.9263  -0.8754
    -0.8336  -0.8171  -0.7983  -0.7730  -0.7528  -0.7367  -0.7243  -0.6964
    -0.6815  -0.6666  -0.6449  -0.6257  -0.6118  -0.5596  -0.5498  -0.5442
    -0.5237  -0.5107  -0.5045  -0.4718  -0.4593  -0.3744  -0.2955  -0.1898
    -0.1688  -0.1550  -0.1238  -0.0567  -0.0414  -0.0164   0.0279   0.0436
     0.0715   0.0885   0.1177   0.1383   0.1676   0.2055   0.2278   0.2898
     0.3160   0.3278   0.3870   0.4647   0.4902   0.5361   0.5662   0.6078
     0.6345   0.6683   0.6869   0.7248   0.7494   0.7615   0.7919   0.8194
     0.8468   0.8875   0.9082   0.9511   0.9689   0.9874   1.0264   1.0322
     1.0936   1.1256   1.1642   1.2725   1.2880   1.3669   1.4287   1.4565
     1.4751   1.5121   1.5755   1.6105   1.6315   1.7178   1.7360   1.7549
     1.7794   1.7986   1.8145   1.8422   1.8695   1.9170   1.9475   1.9596
     1.9827   1.9968   2.0208   2.0269   2.0977   2.1594   2.1944   2.2195
     2.2439   2.2693   2.2760   2.3105   2.4007   2.4859   2.8066   2.9464
     3.1205   3.3887   3.3990   3.6111   3.7228   3.7531   3.8054   3.9088
     4.1566   4.4052   4.4327   4.6635   4.8559   4.9667   4.9942   5.0046
     5.0890   5.2337   5.3150   5.3535   5.5032   5.8042   5.8700   6.0282
     6.1740   6.4431   6.4603

          k = 0.4000-0.4619 0.0000 ( 91792 PWs)   bands (ev):

   -13.7472 -10.6482  -8.1540  -5.8267  -5.8103  -5.5267  -5.2013  -5.1325
    -4.5901  -4.5572  -4.2470  -4.0360  -3.9749  -3.8995  -3.8546  -3.7543
    -3.7198  -3.6601  -3.6301  -3.5678  -3.5554  -3.5263  -3.5026  -3.4928
    -3.4776  -3.4586  -3.3425  -3.3296  -3.3084  -3.2885  -3.2762  -3.2319
    -3.1399  -3.1096  -3.0482  -3.0328  -2.9868  -2.9425  -2.9312  -2.9036
    -2.8875  -2.8357  -2.8083  -2.7800  -2.6895  -2.6415  -2.5483  -2.4806
    -2.4684  -2.3686  -2.3420  -2.3037  -2.2797  -2.1782  -2.1523  -2.1166
    -2.0992  -2.0762  -2.0403  -2.0153  -1.9752  -1.9653  -1.9136  -1.8846
    -1.8596  -1.8485  -1.8362  -1.8042  -1.7938  -1.7432  -1.7214  -1.6511
    -1.6054  -1.5709  -1.5407  -1.4858  -1.4763  -1.4135  -1.3878  -1.3739
    -1.3526  -1.3229  -1.2981  -1.2417  -1.2278  -1.2044  -1.1898  -1.1643
    -1.1394  -1.0818  -1.0518  -1.0111  -0.9973  -0.9888  -0.9300  -0.8695
    -0.8378  -0.8297  -0.7876  -0.7774  -0.7588  -0.7302  -0.7164  -0.6871
    -0.6796  -0.6621  -0.6426  -0.6168  -0.5940  -0.5731  -0.5680  -0.5465
    -0.5260  -0.5235  -0.4900  -0.4666  -0.4530  -0.3521  -0.2786  -0.2184
    -0.1849  -0.1659  -0.1319  -0.0618  -0.0449  -0.0102   0.0240   0.0315
     0.0748   0.0794   0.1325   0.1572   0.1647   0.1998   0.2210   0.2637
     0.3265   0.3435   0.4211   0.4837   0.5070   0.5318   0.5608   0.5911
     0.6187   0.6576   0.6935   0.7310   0.7547   0.7665   0.7993   0.8180
     0.8310   0.8982   0.9224   0.9483   0.9752   0.9887   1.0154   1.0467
     1.1116   1.1288   1.1547   1.2474   1.3104   1.3483   1.4393   1.4490
     1.4743   1.5164   1.5746   1.5769   1.6535   1.6728   1.7409   1.7699
     1.7969   1.8071   1.8180   1.8408   1.8702   1.9386   1.9488   1.9577
     1.9869   1.9995   2.0090   2.0253   2.0981   2.1736   2.1832   2.2086
     2.2329   2.2439   2.2820   2.3035   2.4194   2.5310   2.6829   2.9828
     3.1750   3.3891   3.3994   3.5056   3.6728   3.7555   3.8245   3.9189
     4.2902   4.3879   4.4596   4.5834   4.8548   4.9188   4.9813   5.0380
     5.1226   5.2084   5.2612   5.3454   5.6810   5.7777   5.8704   5.8980
     6.1948   6.3437   6.4493

     the Fermi energy is     2.0225 ev

!    total energy              =  -27817.32811436 Ry

     total all-electron energy =  -1326877.385805 Ry
     estimated scf accuracy    <       0.00000090 Ry
     smearing contrib. (-TS)   =       0.00077835 Ry
     internal energy E=F+TS    =  -27817.32889272 Ry

     The total energy is F=E-TS. E is the sum of the following terms:
     one-electron contribution =  -28851.61848178 Ry
     hartree contribution      =   14731.72864166 Ry
     xc contribution           =    -908.18572221 Ry
     ewald contribution        =   12704.36937076 Ry
     one-center paw contrib.   =  -25493.62270115 Ry

     convergence has been achieved in  20 iterations

     negative rho (up, down):  1.232E-02 0.000E+00

     Forces acting on atoms (cartesian axes, Ry/au):

     atom    1 type  1   force =     0.00027500   -0.00009357   -0.00895697
     atom    2 type  1   force =    -0.00133164    0.00103927   -0.00344496
     atom    3 type  1   force =     0.00041877    0.00032029   -0.00307639
     atom    4 type  1   force =     0.00003179   -0.00020597   -0.00667472
     atom    5 type  1   force =    -0.00104631    0.00000265   -0.00383417
     atom    6 type  1   force =     0.00044809   -0.00008984   -0.00304569
     atom    7 type  1   force =     0.00000944    0.00040506   -0.00367044
     atom    8 type  1   force =    -0.00075106    0.00111821   -0.00385829
     atom    9 type  1   force =    -0.00006431   -0.00041064   -0.00336447
     atom   10 type  1   force =     0.00116325   -0.00034002   -0.00417124
     atom   11 type  1   force =     0.00037086    0.00206644    0.00945588
     atom   12 type  1   force =    -0.00010286    0.00009344    0.00003160
     atom   13 type  1   force =     0.00198629   -0.00263237    0.00462933
     atom   14 type  1   force =    -0.00053823   -0.00047071    0.01432753
     atom   15 type  1   force =     0.00064312   -0.00025325   -0.00216580
     atom   16 type  1   force =     0.00226618   -0.00001810    0.00184806
     atom   17 type  1   force =    -0.00031954   -0.00170833    0.00774435
     atom   18 type  1   force =     0.00013398   -0.00038667    0.00027617
     atom   19 type  1   force =     0.00030968   -0.00001430    0.00068723
     atom   20 type  1   force =    -0.00013736    0.00015248   -0.00035201
     atom   21 type  1   force =     0.00004503   -0.00019687    0.00029948
     atom   22 type  1   force =    -0.00009197   -0.00017445    0.00074041
     atom   23 type  1   force =    -0.00007210   -0.00049521    0.00012455
     atom   24 type  1   force =    -0.00014932    0.00005333   -0.00007365
     atom   25 type  1   force =     0.00009872   -0.00023157    0.00068995
     atom   26 type  1   force =    -0.00012424    0.00038438    0.00014611
     atom   27 type  1   force =    -0.00013597    0.00019487    0.00021596
     atom   28 type  1   force =    -0.00029209   -0.00005478    0.00017279
     atom   29 type  1   force =    -0.00010837    0.00002524    0.00010582
     atom   30 type  1   force =    -0.00004213   -0.00026417    0.00050248
     atom   31 type  1   force =    -0.00048156    0.00003183    0.00029859
     atom   32 type  1   force =    -0.00010056   -0.00043718    0.00007684
     atom   33 type  1   force =     0.00013840   -0.00012213    0.00050034
     atom   34 type  1   force =    -0.00024450    0.00015210    0.00009450
     atom   35 type  1   force =    -0.00018535    0.00027940    0.00020869
     atom   36 type  1   force =     0.00009001   -0.00025178    0.00051762
     atom   37 type  2   force =    -0.00158342    0.00257594   -0.00072286
     atom   38 type  2   force =    -0.00002304   -0.00017484   -0.00050176
     atom   39 type  2   force =    -0.00205381    0.00124915    0.00465531
     atom   40 type  3   force =     0.00026405   -0.00012660    0.00019907
     atom   41 type  3   force =    -0.00025965    0.00000940   -0.00003214
     atom   42 type  3   force =    -0.00025569    0.00025475    0.00053970
     atom   43 type  3   force =     0.00007916    0.00027975    0.00043224
     atom   44 type  3   force =     0.00172328   -0.00153465   -0.00157506

     Total force =     0.007109     Total SCF correction =     0.001780
     SCF correction compared to forces is large: reduce conv_thr to get better values

     negative rho (up, down):  1.232E-02 0.000E+00

     negative rho (up, down):  1.232E-02 0.000E+00

     negative rho (up, down):  1.232E-02 0.000E+00

     negative rho (up, down):  1.232E-02 0.000E+00

     negative rho (up, down):  1.232E-02 0.000E+00

     negative rho (up, down):  1.232E-02 0.000E+00

     negative rho (up, down):  1.232E-02 0.000E+00

     negative rho (up, down):  1.232E-02 0.000E+00

     negative rho (up, down):  1.232E-02 0.000E+00

     negative rho (up, down):  1.232E-02 0.000E+00

     negative rho (up, down):  1.232E-02 0.000E+00

     negative rho (up, down):  1.232E-02 0.000E+00

     negative rho (up, down):  1.232E-02 0.000E+00

     negative rho (up, down):  1.232E-02 0.000E+00

     negative rho (up, down):  1.232E-02 0.000E+00

     negative rho (up, down):  1.232E-02 0.000E+00

     negative rho (up, down):  1.232E-02 0.000E+00

     negative rho (up, down):  1.232E-02 0.000E+00

     negative rho (up, down):  1.232E-02 0.000E+00

     negative rho (up, down):  1.232E-02 0.000E+00

     negative rho (up, down):  1.232E-02 0.000E+00

     negative rho (up, down):  1.232E-02 0.000E+00

     negative rho (up, down):  1.232E-02 0.000E+00

     negative rho (up, down):  1.232E-02 0.000E+00

     negative rho (up, down):  1.232E-02 0.000E+00

     negative rho (up, down):  1.232E-02 0.000E+00

     negative rho (up, down):  1.232E-02 0.000E+00

     negative rho (up, down):  1.232E-02 0.000E+00

     negative rho (up, down):  1.232E-02 0.000E+00

     negative rho (up, down):  1.232E-02 0.000E+00

     negative rho (up, down):  1.232E-02 0.000E+00

     negative rho (up, down):  1.232E-02 0.000E+00

     negative rho (up, down):  1.232E-02 0.000E+00

     negative rho (up, down):  1.232E-02 0.000E+00
 BEEFens 2000 ensemble energies
             -0.608253343626521E+02
             -0.361718322463375E+01
             -0.158579113610373E+02
              0.430221219001007E+02
             -0.221532750828827E+02
             -0.205523683109008E+02
             -0.353357878127147E+02
             -0.867040321714563E+02
             -0.465490377903470E+02
             -0.472999777340997E+02
             -0.370030147631729E+02
              0.230158542599360E+01
              0.409472496093878E+01
              0.758446826702084E+01
              0.266495225138863E+01
              0.475882099061317E+02
             -0.209020230433686E+02
             -0.230087578325305E+02
              0.193653508659816E+02
             -0.112600758795014E+03
              0.537414698071952E+02
             -0.289994166370074E+02
             -0.335341470645291E+01
             -0.114120448780375E+02
             -0.880714408183178E+01
             -0.463042874229293E+01
              0.884435847230919E+02
             -0.187833392832509E+02
             -0.901273705206643E+01
             -0.519693203346276E+02
              0.816442952819236E+02
             -0.187038497331844E+02
             -0.375760611726146E+02
              0.249381827833504E+02
             -0.284147463801179E+01
              0.164986202005015E+02
             -0.483236386257738E+01
              0.107812871057466E+02
              0.289548384993448E+02
             -0.103442219991380E+03
              0.559500488120026E+02
              0.142706054806690E+02
             -0.176698258076948E+01
             -0.361986164872581E+02
              0.123462234939793E+02
             -0.147203816671729E+02
              0.399533544036980E+02
              0.365378125724579E+02
             -0.308147912046196E+02
             -0.275795451579997E+02
             -0.329122992335313E+02
             -0.353005140623354E+02
              0.137183662120674E+02
             -0.491876157821973E+02
              0.115982491978671E+02
              0.624397150069424E+02
              0.637082304930378E+02
              0.356363285294066E+02
              0.154310448821601E+02
              0.271413088145486E+02
              0.893276644766663E+02
              0.212651393100559E+02
             -0.549526798242126E+02
             -0.157125317832949E+02
             -0.236608504533048E+02
              0.631036732755464E+02
             -0.774544151342613E+02
             -0.672877212112223E+02
             -0.260390612859586E+02
             -0.655435250139703E+01
             -0.471349748883833E+02
              0.271232087898368E+02
              0.803823423245660E+01
              0.871346299310375E+01
             -0.398026428844963E+02
             -0.347588619292222E+02
             -0.543189956734112E+02
              0.390666610776782E+02
             -0.296702200228474E+02
              0.266100165755709E+02
             -0.718602990340594E+01
             -0.318462174535244E+02
             -0.576867491494066E+02
             -0.176878507733205E+02
             -0.909360740401962E+01
             -0.124789622029012E+02
              0.412983784600474E+02
              0.684645210033993E+02
             -0.386601906296621E+02
             -0.796110491494031E+02
             -0.219951653876918E+02
              0.111696699071351E+03
             -0.593569720921251E+02
              0.356685496702679E+02
             -0.961045154676128E+01
             -0.664179305814640E+02
              0.254951788758984E+02
              0.398322989385570E+02
             -0.199181164548306E+02
              0.400689457830381E+02
             -0.296331442452658E+02
             -0.479755798171012E+02
              0.868169923330945E+02
              0.454774603171289E+02
              0.336568971318754E+02
              0.146674052849132E+02
              0.206291387162086E+02
              0.858091207923046E+02
             -0.257222325976756E+02
              0.788260464517940E+01
             -0.142658119557373E+03
              0.181271793955181E+02
             -0.717430253276308E+02
              0.151200754926662E+02
              0.205068018064179E+02
             -0.333778213864588E+02
             -0.558041725978366E+02
              0.652473424696848E+01
             -0.304885139317916E+02
              0.308977315147403E+02
             -0.530699226434320E+02
              0.168184177180387E+01
             -0.357737950726995E+02
             -0.424730462345047E+01
             -0.988764044432969E+00
              0.182066455401334E+02
              0.142142381090832E+01
             -0.651922196994951E+01
              0.591952577643970E+02
              0.910087883445266E+02
              0.485203131468964E+02
              0.831129140631235E+02
             -0.115300558602864E+02
              0.143087589401744E+02
              0.541945312187887E+02
             -0.110265695879748E+02
             -0.737224819544606E+02
             -0.385251703471016E+02
             -0.522750125295394E+02
             -0.277227926587810E+02
              0.327821752428204E+02
             -0.117025992598371E+03
             -0.187303143656743E+02
              0.415119860281466E+02
             -0.387086207465197E+02
             -0.365670154731851E+02
              0.545667260537296E+02
              0.401598817180491E+02
             -0.354437177954441E+02
              0.138829267556841E+02
             -0.273781142284346E+02
              0.343898544323812E+02
              0.446332290545479E+01
              0.211155314071495E+02
             -0.886176540920919E+02
             -0.480998356428466E+02
             -0.997472179630472E+01
              0.321009407187564E+01
             -0.367674428057483E+02
              0.106251854181757E+03
             -0.230873637859881E+02
             -0.399111382991866E+02
              0.389455711421588E+02
             -0.494947676969883E+02
             -0.364330940087907E+02
              0.325625322420451E+02
              0.124868022661086E+02
              0.164958298919727E+02
              0.117130910009021E+02
             -0.133062201791432E+02
              0.225093698024189E+02
              0.591141933106033E+02
             -0.311929802123905E+02
              0.162989001497658E+02
              0.936091838111516E+02
              0.341373638103188E+02
             -0.728375639585045E+01
             -0.189164195166627E+02
              0.153652896412255E+03
             -0.164835046048973E+02
              0.364173930957531E+02
              0.195267283401299E+02
              0.361778913833475E+02
              0.893722646804939E+02
              0.543781607123755E+02
             -0.241021771237397E+01
              0.228397246585859E+02
              0.486027464256204E+02
              0.364151881191543E+02
             -0.526792306400816E+02
              0.937851549171288E+02
             -0.827234919201494E+02
             -0.197996332798857E+02
              0.583778159914989E+02
              0.683962371817109E+01
              0.791375090434678E+01
              0.341111369864404E+02
              0.299337685911937E+02
              0.354141384752338E+02
             -0.638731587012948E+02
              0.286435837184308E+01
             -0.297999615651648E+02
             -0.869161452296611E+01
             -0.147142692362536E+01
             -0.727356405314407E+01
             -0.416442691601276E+01
              0.860917259703501E+02
             -0.101122786134724E+02
             -0.276830923231824E+02
             -0.496096483443775E+01
              0.140375263886544E+02
             -0.565311150482195E+02
             -0.408749395245538E+02
             -0.382678919271995E+02
             -0.631503269778103E+02
             -0.170147895421368E+02
             -0.448261282704530E+02
              0.163572244791660E+02
             -0.237186051681522E+01
             -0.104741191395512E+02
             -0.935324773307781E+01
              0.807848806702862E+01
             -0.242612220839005E+02
              0.690656029569460E+02
             -0.809066208117899E+02
             -0.141302370984575E+02
             -0.174180622075590E+02
              0.182157103792940E+02
              0.215278407585274E+02
             -0.464879921705203E+02
             -0.201948891828194E+02
              0.441815926997329E+02
             -0.276407967379223E+02
              0.187368827480392E+02
              0.383283871181587E+02
             -0.322237838298793E+01
              0.114354971555274E+03
             -0.229880763152712E+02
             -0.341532796998731E+02
              0.576509961737554E+01
             -0.228912186172842E+02
              0.528811381472992E+02
             -0.338537338503353E+02
              0.106981427565316E+02
              0.641090627647416E+02
             -0.126428122545826E+02
              0.120455664255332E+03
              0.126108183086913E+03
             -0.651193454122558E+02
              0.591701258510328E+02
              0.167270202903654E+02
             -0.518927282711417E+02
              0.216361350504634E+02
              0.355101035079561E+02
              0.363893750281825E+02
              0.135042240090146E+01
              0.160389018170969E+02
              0.697404490277053E+02
             -0.247443572479983E+02
              0.181392561483604E+02
              0.739926975516237E+02
             -0.373141805601899E+02
             -0.130526478220235E+02
              0.509960715714853E+02
              0.298128335879652E+02
              0.781678662194414E+02
              0.223607971001669E+02
              0.630637519504427E+01
              0.280902970545833E+02
              0.384180558021389E+02
             -0.473201258922519E+02
              0.336025582974821E+01
              0.130745384703226E+02
              0.114037044427769E+02
              0.221133488276190E+02
             -0.576193309338345E+02
              0.366546030558244E+02
             -0.444621558456784E+02
             -0.348120753706739E+02
              0.178642446775253E+02
             -0.181368469053972E+02
              0.556496039820211E+02
             -0.255799254879017E+02
              0.267371220969312E+02
              0.368827561300817E+02
              0.830608121925718E+02
              0.575559458041673E+02
              0.462784920713464E+02
             -0.105087221397386E+02
             -0.395208392216733E+01
             -0.332634742598887E+02
              0.752443340264299E+02
              0.798819245113444E+02
              0.362757465367202E+02
             -0.192697493598466E+02
              0.512768382583451E+02
             -0.162493488194806E+02
              0.214760713164223E+02
              0.616037407243776E+02
              0.213043332741114E+01
             -0.104619281111002E+02
             -0.283072638676916E+02
             -0.513239890789435E+02
              0.947179945307515E+02
              0.441135658200576E+02
             -0.560603462636611E+02
             -0.968667777442795E+01
              0.250165846227790E+02
             -0.996880754843914E+01
              0.593487455220377E+02
              0.152460198887591E+02
              0.800853707188966E+02
              0.280341374927646E+02
             -0.264073995775079E+02
              0.248999332997912E+02
             -0.503982339301166E+01
             -0.323841851164681E+02
              0.133370453387584E+02
              0.205754070773468E+02
              0.934846303568308E+02
              0.798775209221312E+02
              0.552308620057257E+02
              0.731794441780467E+02
              0.802143621123992E+01
             -0.274109442669035E+02
              0.163423679683619E+02
             -0.368591738969054E+02
             -0.477643543679356E+02
             -0.564529742555751E+02
             -0.267344876032540E+02
             -0.109906291896868E+03
             -0.292380700223516E+02
             -0.839122639756636E+02
              0.210604649871249E+02
             -0.477886071841150E+02
              0.398163421865268E+02
             -0.943614511572675E+02
             -0.330605550541266E+02
              0.548819049519785E+02
              0.208052963058323E+02
             -0.832633296151203E+02
              0.631736911596691E+02
             -0.257500997180215E+02
              0.513601634276802E+02
             -0.242883019475923E+02
             -0.752862277812940E+02
              0.112339989165642E+02
             -0.612731454721967E+02
             -0.167823304012904E+02
             -0.151022179879971E+01
              0.418901319734150E+02
              0.127267174112024E+03
             -0.462407744187167E+02
             -0.363392735759830E+02
             -0.100325075078808E+01
             -0.130212276466926E+02
             -0.824184429167536E+02
             -0.597827296059964E+02
              0.518042024462884E+02
             -0.289102960746393E+02
              0.170046268973373E+02
             -0.490377689064256E+02
             -0.132361936106027E+02
             -0.438099476393115E+02
              0.566490719612663E+02
              0.150954293414969E+02
             -0.232191630801761E+02
             -0.127601483689841E+02
              0.671037663773171E+01
             -0.620314965692074E+01
              0.442308418042974E+02
             -0.252490714255749E+02
              0.282922081561753E+01
              0.340051726350000E+02
              0.171263890056365E+02
             -0.160545879383662E+02
              0.156569444578872E+03
              0.539495359941154E+02
              0.120497712284487E+01
              0.161711758341928E+02
             -0.616004772408023E+02
              0.315805406766463E+02
             -0.723446003006776E+02
             -0.252969327126183E+02
             -0.523880473009174E+02
             -0.220515096122468E+02
              0.570524514587026E+02
             -0.538150393509927E+02
              0.161762663371185E+02
             -0.410605225820143E+01
              0.387034563636118E+01
             -0.434396161614432E+02
             -0.479087966115385E+02
             -0.405683355566430E+01
             -0.425072438285158E+02
             -0.217479245177879E+02
             -0.439417509819017E+02
             -0.119270633579613E+02
             -0.359563767938885E+02
             -0.517410818763802E+02
              0.212969567248000E+02
             -0.209297895788170E+02
              0.188442433333560E+02
              0.974984207988062E+01
             -0.739636046873757E+02
             -0.548918471432870E+02
             -0.399617380709026E+02
              0.354615330470756E+02
              0.267417435949849E+01
             -0.627716709571811E+02
              0.586943906161818E+02
             -0.401997270838543E+02
              0.546327157036255E+02
             -0.290313361614361E+02
             -0.446840178196750E+02
              0.298797787349087E+02
             -0.659212918180044E+02
             -0.380296055207330E+02
              0.673655449495959E+02
              0.204472522482143E+02
             -0.361307134891060E+02
              0.490610584550075E+02
             -0.174384691340271E+02
             -0.323585775093532E+02
             -0.302321037805396E+02
             -0.501779066751498E+02
              0.250174552684772E+02
             -0.934760110195523E+02
             -0.841501325829541E+02
             -0.735946100632475E+01
             -0.307398261602403E+02
             -0.577053893115794E+02
              0.723512984043313E+02
              0.131823568289266E+03
             -0.360973904694005E+02
             -0.257507989580927E+01
             -0.638120309812960E+02
              0.651941157095480E+02
              0.171263683356503E+02
             -0.182346184897784E+02
             -0.410675242855767E+02
              0.148861582378336E+02
             -0.587201455947210E+02
             -0.197869685537840E+02
             -0.906273417616852E+02
              0.337757067868772E+02
              0.169017089119208E+02
              0.181362878024947E+01
             -0.711252086867501E+01
             -0.330872056265946E+02
             -0.762458918146717E+01
              0.125823988548997E+03
             -0.199275626776512E+02
             -0.438568252789244E+02
             -0.685504370389631E+02
              0.109570540630657E+02
             -0.343110758658975E+02
              0.594411694854804E+01
              0.262248082572503E+02
              0.102300109935468E+02
              0.278794106349679E+02
              0.120473705717662E+02
              0.630815728602046E+02
              0.316990843860859E+02
             -0.327432975290409E+02
              0.357172017198592E+02
              0.380186955257579E+02
              0.121160716068247E+02
              0.487601708680515E+02
             -0.225764472275926E+02
              0.767232935606039E+02
              0.173209107914229E+02
             -0.272983870969797E+02
             -0.724003068727389E+01
             -0.186674509769268E+02
              0.261920990999502E+02
             -0.234752102269868E+02
             -0.184242707839417E+00
             -0.852170582040935E+01
              0.811313784518130E+02
              0.501304985478615E+02
             -0.688066214768464E+02
             -0.480231929300595E+01
             -0.556246003252463E+02
             -0.159554041698776E+02
             -0.268741563029685E+02
              0.378835696973726E+01
              0.592869376944071E+00
             -0.258284538229481E+02
              0.819733803745197E+01
             -0.605420988250430E+01
             -0.128521795471699E+02
              0.860803433189685E+02
              0.181955067510465E+02
             -0.808860291467359E+02
             -0.458886102534973E+02
              0.947192489409855E+02
              0.278311808796161E+02
             -0.107051696820608E+02
              0.104785098495342E+03
             -0.194949986700490E+02
             -0.123081843303834E+02
             -0.543272437136625E+01
              0.107773212446838E+02
              0.273374626481362E+02
              0.781443300215605E+01
              0.306016744669805E+02
             -0.188019037855754E+02
             -0.304993192815381E+02
             -0.418656839294158E+02
             -0.477808065550975E+02
              0.464637254139544E+02
              0.127152033290948E+02
              0.388413445717696E+02
              0.133808495095387E+02
              0.857547910142124E+02
              0.157019179815661E+02
             -0.847651641227051E+02
             -0.335074088478153E+02
              0.133600938177884E+02
             -0.303423435920041E+02
              0.628013328224289E+02
             -0.889951579225408E+01
              0.149060959912587E+02
              0.498563532105331E+02
             -0.709131638426309E+02
              0.150041568574156E+03
              0.209116001870862E+02
              0.271908716408116E+02
              0.348498587539636E+02
              0.103672991683289E+02
             -0.156523475056326E+01
              0.358979935709933E+02
             -0.357941312937646E+02
              0.775232972386659E+02
              0.686564722967570E+02
             -0.406812237180093E+02
              0.149861620139272E+02
              0.671778563142090E+02
             -0.224316736631819E+02
              0.154968619116571E+02
              0.435433659859683E+02
              0.422918350990036E+02
             -0.786252649598444E+02
             -0.152606185574978E+02
             -0.356398401694334E+02
             -0.149563764064777E+01
             -0.769023120805006E+01
             -0.539650695160606E+01
             -0.180635505554803E+02
             -0.294646729633384E+02
              0.640539147310938E+01
              0.111673935744751E+02
              0.536748530728735E+02
             -0.391421543685729E+02
              0.375768246103243E+02
              0.439684604252569E+02
             -0.186475178007415E+02
              0.873459093307463E+02
             -0.699348124573342E+02
             -0.103393799602968E+03
             -0.663230491467771E+01
             -0.269417099748227E+01
              0.384576779987253E+01
              0.791246113169892E+02
             -0.106948152490179E+02
              0.417691406503506E+02
              0.445268944500256E+02
              0.386088686019914E+02
             -0.997172488398121E+01
              0.628522835620245E+02
             -0.133941449740270E+02
             -0.308471177283225E+02
             -0.479699208713977E+02
              0.592931522822342E+01
              0.369979045183086E+02
             -0.602002916703091E+01
              0.393500710018581E+02
             -0.174843738056319E+01
              0.656190014684035E+02
              0.187457608683647E+02
              0.100032792472149E+02
             -0.121547870251463E+02
              0.332645512136262E+02
              0.363505224294401E+02
              0.232858042323384E+02
             -0.524825850752620E+00
             -0.551845287766950E+02
              0.261392384530582E+02
              0.175660521845090E+02
              0.403156795525135E+02
              0.272768354103672E+02
              0.373375185116940E+02
             -0.607834472169864E+01
              0.252060628683509E+02
             -0.299371384833030E+02
             -0.197986903198091E+01
             -0.570229832991137E+02
             -0.308698643327887E+02
              0.379741654677197E+02
             -0.937439503693896E+02
              0.294738136885043E+02
              0.184257080246687E+02
              0.842164037153812E+02
             -0.300267475402087E+02
              0.330308926723510E+02
             -0.137901613967940E+02
             -0.465040437248885E+02
             -0.762777889160374E+02
             -0.531880483782986E+01
             -0.861938689380333E+02
              0.199636290576971E+02
             -0.247932626204772E+02
              0.306639207204218E+02
              0.237698440558679E+02
             -0.241913062598399E+02
             -0.266269211164014E+02
              0.391894894926754E+02
             -0.589637166978271E+02
             -0.117049196649456E+02
             -0.196348231541789E+02
              0.213491793901288E+02
             -0.885577660333109E+01
              0.362066699092006E+01
             -0.200732103595083E+02
              0.559844858268947E+02
             -0.441268446016213E+02
              0.786975079607589E+01
              0.586752719034824E+02
             -0.324326891680898E+02
              0.362540006609032E+01
             -0.878793182826246E+01
             -0.670535316446902E+02
             -0.482924820986087E+02
             -0.859263761788228E+01
              0.241566014807102E+02
              0.303230441825805E+02
              0.860928309986571E+01
             -0.418924192777126E+01
              0.151971081242818E+02
             -0.440535061835275E+02
              0.329892924868915E+01
             -0.532357727153756E+02
             -0.325482055747462E+02
              0.475918454294663E+02
             -0.295842491720637E+02
              0.624171551309647E+02
             -0.215381581941144E+02
              0.354241992405629E+02
              0.242261944479382E+02
             -0.645380504119331E+02
             -0.280759607009333E+02
              0.935894320026355E+01
             -0.372864183359616E+02
             -0.340553300557428E+02
             -0.832010365523006E+02
             -0.540395225256593E+02
             -0.511426609672393E+02
             -0.416678942968383E+02
             -0.995871408809279E+00
              0.100371560255683E+02
              0.109958545204742E+01
              0.154092191827568E+02
             -0.550576647067744E+02
              0.142192321622621E+02
              0.257779304319774E+02
             -0.668329763676199E+02
             -0.703093253313275E+02
             -0.432257431968955E+02
             -0.173021640541592E+02
              0.178562972332714E+02
              0.453342915276733E+01
             -0.426729444513070E+02
              0.366536083141693E+02
             -0.216918485840833E+02
              0.518593956675234E+02
             -0.889198424959687E+02
              0.599381381170108E+02
             -0.218926572719042E+01
             -0.369519340536167E+02
             -0.216904260055897E+02
              0.471237717652929E+01
              0.375931390144732E+02
             -0.757718480328056E+02
             -0.120985980890447E+02
             -0.216995043807179E+02
              0.511730308815734E+02
              0.866598754899458E+02
             -0.967574622733723E+02
              0.945953164587582E+02
              0.468336657960220E+02
             -0.727115600516351E+02
             -0.367098773174835E+02
              0.753800672780976E+02
              0.633157294262279E+02
             -0.181714275895558E+02
             -0.466267193198973E+01
              0.738642085597400E+01
              0.651017218809826E+02
             -0.509950811345359E+02
              0.158454192868910E+02
             -0.474690480194599E+01
              0.348129318151439E+02
             -0.748438320016672E+02
             -0.646616806996671E+01
             -0.351385446835720E+02
              0.461846846986526E+02
              0.469578957986993E+02
             -0.863920815892698E+02
             -0.487988005796009E+02
             -0.256598599250702E+02
             -0.340676397885596E+02
             -0.109412109002023E+02
[...]
              0.283961951813715E+02
              0.142049877963172E+03
              0.243196154655757E+02
              0.122944724144514E+02
             -0.465186601503465E+02
             -0.638516080184794E+02
             -0.189177546210976E+02
              0.330304677192649E+02
             -0.428609497302295E+01
              0.190686368014769E+02
              0.336866529132285E+02
             -0.587516332537685E+02
              0.223011836442331E+02
              0.582128533802319E+02
              0.553807810761070E+02
             -0.422426922567820E+01
             -0.133563933539347E+01
             -0.994647079941225E+01
             -0.482942443777458E+02
             -0.676577753605781E+02
              0.786669254805428E+02
             -0.526181687865798E+01
             -0.588690202201065E+02
              0.175825312860908E+01
             -0.206052727334567E+02
              0.939996222394797E+02
             -0.217016952865595E+02
             -0.354471626665868E+02
              0.336202556302429E+02
             -0.146182279470988E+02
              0.390559414715820E+02
             -0.232551563998624E+01
              0.101237073345432E+03
              0.490944499007731E+02
             -0.503436690991639E+01
             -0.322806643497601E+02
              0.233006345723963E+02
             -0.529498317209878E+02
             -0.127801004406460E+02
              0.586968340940241E+02
             -0.288154997241766E+02
             -0.439012315809333E+02
             -0.223773146653965E+02
              0.519582081309595E+02
              0.124878636515958E+02
             -0.850343125275115E+02
              0.304599821612594E+02
              0.151840334572718E+02
              0.580806123892305E+01
             -0.514350907870839E+02
             -0.374553563183855E+01
              0.323667885108537E+02
              0.513400557661108E+02
              0.634074739650208E+02
              0.229844574454532E+02
              0.777098548203497E+00
             -0.499319883179006E+02
             -0.510785776082689E+02
             -0.748705612088201E+02
             -0.620400238290745E+01
              0.309677919834041E+02
             -0.377426975669977E+01
              0.547757218785052E+02
             -0.318674789356849E+02
              0.166723346680715E+02
             -0.103449988371579E+02
             -0.290060727136761E+02
              0.586838471588186E+02
              0.792631770922344E+01
              0.605638800491497E+02
              0.511351909121788E+01
              0.265155535242733E+02
             -0.192953914511611E+02
              0.587186621062142E+02
             -0.112048790263227E+02
             -0.116743823532165E+00
             -0.791631312769403E+02
             -0.128354894837251E+02
              0.720256375645515E+02
              0.674179612387571E+02
              0.252469624512783E+02
             -0.130815825689232E+02
              0.346885188116616E+01
             -0.174228601284244E+02
             -0.215304303006818E+01
              0.909693580787537E+02
              0.128184670822702E+01
             -0.191174419857473E+02
             -0.110935032032385E+03
             -0.552943901769490E+02
             -0.375790947950145E+02
             -0.659546398766350E+02
             -0.556749645304855E+02
             -0.683799838390564E+02
             -0.447915058443175E+02
             -0.411074884696844E+02
             -0.452916449396974E+02
              0.484305762305299E+02
             -0.294145996087967E+02
             -0.996298174292720E+02
              0.419699907108832E+02
             -0.260749192620758E+02
             -0.792246069849269E+02
              0.945747878185851E+02
             -0.220229680574549E+02
              0.228189129058798E+02
              0.455676711023785E+02
             -0.127154765808200E+01
              0.254997901122870E+02
              0.471791773727421E+01
              0.426369844639012E+00
             -0.150930089476586E+02
             -0.717234443823636E+02
              0.133446708016600E+02
             -0.129568494156911E+03
              0.625882716812104E+02
             -0.441334741400958E+02
             -0.163582000727404E+02
             -0.158689765008498E+02
              0.721512389167643E+01
             -0.227854631826744E+02
              0.297539563770967E+02
             -0.521811941260835E+02
              0.367653981436773E+02
              0.371898098366961E+02
              0.168193023001728E+02
              0.100755687209862E+02
              0.198310403607555E+02
              0.625595179346010E+01
              0.310730294821676E+02
             -0.797846583680519E+01
             -0.594251763105931E+02
              0.758671164363210E+01
             -0.153428304480821E+02
             -0.194344557748610E+01
              0.507639735514036E+02
             -0.828210232808078E+02
             -0.148456732403179E+01
              0.593508391716398E+00
              0.997987261220089E+01
              0.318902532792961E+02
             -0.123699371531725E+02
              0.837257681061150E+02
              0.487905351195680E+02
             -0.183409983226235E+02
             -0.955464462353711E+01
              0.109025196699551E+01
              0.770942783635606E+02
             -0.586968415771212E+02
             -0.105943718383064E+03
              0.309781809824225E+02
             -0.163359415224415E+02
             -0.139936104227112E+02
              0.130960150958915E+02
              0.769806114264034E+02
              0.464761340666303E+02
             -0.153646431192473E+02
             -0.504162208697616E+02
             -0.553922404329937E+01
              0.306867832234261E+02
             -0.112064836211658E+02
             -0.757256332143168E+02
             -0.275572851752958E+01
             -0.891948691101391E+02
             -0.476749377685178E+02
              0.770398739341836E+02
             -0.484565131724773E+02
             -0.638020963136503E+02
             -0.515234571657510E+02
             -0.350643742615525E+02
              0.341698389350765E+02
              0.823331036714331E+02
             -0.361024662282682E+01
              0.277025901448790E+02
             -0.184363816992141E+02
             -0.695276385238600E+02
              0.466013490317237E+02
             -0.446058191765719E+02
              0.321980767788457E+02
              0.376529839525323E+02
             -0.661257472461114E+01
              0.390840238933019E+02
              0.438835490653307E+02
              0.100936442389338E+03
             -0.155902642153294E+02
             -0.457634641337851E+02
             -0.614005230837815E+02
             -0.124450267932208E+02
             -0.234223811220105E+02
              0.103144674933924E+03
             -0.449817839429892E+02
              0.105458927236370E+02
              0.969967893092610E+01
             -0.264729269540683E+02
             -0.800727299017213E+02
             -0.700509593158597E+01
              0.981810599297280E+02
              0.946491833250678E+01
              0.809805478671205E+01
             -0.528442252166703E+02
             -0.606376911398538E+02
             -0.569727937028681E+01
              0.501120284107376E+02
             -0.222500469753884E+02
              0.108137391771646E+03
             -0.436763245251332E+02
              0.146813389672776E+02
             -0.223994950492624E+02
             -0.719516322014558E+02
              0.170397677160668E+01
             -0.502809420338310E+02
             -0.762016591938068E+02
              0.620316817006221E+01
              0.236563698467154E+01
              0.515039948306110E+02
              0.187947469416578E+02
             -0.324242500543059E+02
              0.230335416811415E+02
             -0.812981632684677E+02
             -0.522359386108634E+02
              0.903454014747145E+02
              0.142099062149213E+02
             -0.187740535445199E+02
             -0.352658672233993E+02
             -0.269748657861339E+01
             -0.591027878892646E+01
              0.832240548861672E+02
              0.418514565724999E+02
             -0.165914778920954E+02
             -0.121539730938071E+02
             -0.428223316735208E+02
             -0.200607556274030E+02
             -0.670901555958187E+02
              0.460658572093834E+02
              0.547540326211012E+01
              0.144793144638236E+02
              0.156699191735581E+02
             -0.611278724351603E+00
             -0.168998143284328E+02
             -0.301527992669326E+01
             -0.100657876815323E+03
             -0.229825006048106E+02
             -0.768341623257197E+01
             -0.948334261422116E+01
              0.546908478045665E+02
              0.625146326978975E+02
              0.165242982675235E+02
             -0.972233831397249E+02
              0.648615880464440E+02
             -0.215469457986883E+02
             -0.377670648797069E+02
             -0.865825608503504E+02
             -0.387137025822528E+02
              0.565997440811224E+02
              0.245071710465585E+02
              0.518139920620280E+01
              0.293088090703586E+02
             -0.565874474601538E+02
             -0.423448743058286E+02
              0.516546546439776E+02
              0.388031164782667E+02
              0.519537507473308E+02
             -0.115812486126850E+01
              0.688412562355762E+01
              0.570417507310426E+02
              0.964463998929122E+02
             -0.300263578638850E+02
              0.323715980440518E+02
             -0.119804840056391E+02
             -0.412982126074691E+02
             -0.314995495497101E+02
             -0.301056158260240E+02
             -0.131590833992485E+02
             -0.524170682522387E+02
             -0.217268129664193E+02
             -0.141378140503641E+03
              0.369391214171794E+02
              0.207514699255367E+02
             -0.395570100583668E+01
             -0.380548365035326E+02
             -0.204336399170204E+02
             -0.527993069832178E+02
              0.151107834696813E+02
              0.821355942611991E+02
             -0.252558699865376E+02
             -0.163393972353778E+02
              0.238489162183132E+02
             -0.490427949095468E+02
              0.881896874260536E+02
              0.154510791182716E+02
              0.226043267859627E+02
              0.491047914827440E+02
              0.316199501883790E+01
              0.543156674224947E+02
              0.143519180389105E+02
             -0.106204158127225E+02
              0.734211670299214E+01
              0.741815833917940E+00
              0.728129200182789E+02
              0.101245177840675E+02
              0.121163666333782E+02
             -0.130324509582411E+02
              0.132536981679922E+02
             -0.912859092657195E+02
             -0.326295331079846E+02
             -0.458435577961123E+02
              0.485908674957172E+02
             -0.291895542845324E+02
             -0.659142104847936E+02
              0.539575393836960E+02
             -0.122200916601684E+02
              0.440620406391743E+02
             -0.900223015583883E+02
              0.231905008189341E+02
              0.856761226514752E+01
              0.585180247269489E+01
             -0.836558111620531E+01
             -0.905738913619894E+01
              0.480362026500350E+02
              0.201073997854320E+01
             -0.476263131420511E+02
             -0.176677203725353E+02
              0.276726881030571E+02
             -0.118123474567432E+03
             -0.931017082498578E+02
              0.395852377485488E+01
              0.118160653612601E+02
             -0.414382985981141E+02
             -0.386584517041734E+01
              0.112266382437733E+03
              0.306749487507677E+02
             -0.572420586209188E+02
              0.926654302949831E+01
             -0.967414397572401E+01
              0.105969842294439E+02
             -0.338428117093397E+02
              0.196081377421652E+02
              0.284914244477158E+02
             -0.301169755510034E+01
              0.108379840471927E+03
             -0.140102672922262E+02
             -0.316489646573307E+02
              0.143919831927648E+02
              0.467401129396845E+02
             -0.356228049413822E+02
             -0.317344210188588E+01
              0.966624209751930E+02
             -0.464466258794323E+01
              0.622555324397158E+02
              0.135744905191229E+02
             -0.901107528274511E+01
             -0.305370044335427E+02
              0.567118100427534E+02
             -0.515438773278498E+02
             -0.220128089210482E+01
             -0.170581161262403E+02
             -0.405768397257014E+02
              0.185075270437326E+02
              0.239872364482705E+02
              0.115770235339088E+02
              0.727619452520003E+00
             -0.385425996495957E+02
              0.215511569479639E+02
             -0.674610633907594E+01
             -0.246751388095780E+02
             -0.210837515438707E+02
              0.203337333406620E+02
             -0.595541060124299E+01
             -0.349924100425143E+02
             -0.106835225848469E+03
              0.103133198290930E+02
              0.248603868278204E+02
             -0.388274901610332E+02
             -0.211467037307432E+02
              0.808525214901277E+02
              0.656534196511717E+01
              0.311909566277202E+02
              0.394727708116469E+01
              0.322746835259187E+02
              0.646290033774244E+01
             -0.373638015213466E+02
             -0.239044120866740E+01
              0.875890124909824E+01
              0.274652524296021E+02
              0.782908318877030E+02
              0.508338648464993E+02
              0.196425882821643E+00
              0.169349932131180E+02
              0.614301168484716E+02
              0.236504255772802E+02
             -0.753877174412283E+02
             -0.274285362006873E+02
              0.151026729509219E+02
              0.564061404673987E+01
              0.255409273240375E+02
             -0.548622676765459E+02
              0.897106098031861E+01
              0.386859271293340E+02
              0.498848138784998E+02
             -0.435593996569476E+02
             -0.686002025218448E+01
             -0.208905358892844E+01
             -0.134373716250637E+02
             -0.365750852930907E+02
             -0.215214002702919E+02
             -0.209305243177310E+01
              0.796310694906242E+01
              0.422163488564643E+02
             -0.308967580243559E+02
              0.827614794674988E+02
              0.328032650130081E+02
              0.220339848971003E+02
              0.333851647994911E+02
              0.323319948142462E+02
              0.347044314455532E+02
              0.538176379982084E+02
             -0.434788304150765E+02
              0.620681295065137E+02
             -0.112489465573460E+03
              0.307925518960569E+02
             -0.106704795623506E+03
              0.856079649230729E+02
              0.692189607659656E+02
             -0.109935657364528E+02
             -0.493958847960276E+02
             -0.430355616417299E+02
             -0.624318347118392E+02
             -0.630032944453855E+02
              0.552800358489630E+02
              0.406183687592967E+02
              0.237259414234583E+02
              0.374009862087519E+02
              0.404276933021983E+02
             -0.382934097759326E+02
             -0.198006831376095E+02
              0.587317111647115E+02
             -0.116254295696621E+02
              0.552662315251684E+02
              0.700945968020060E+02
             -0.556055803901773E+01
             -0.707726280062835E+02
             -0.864676495125877E+00
             -0.247261944623508E+01
             -0.884860466997588E+01
             -0.179409608572229E+01
             -0.653962924346093E+02
             -0.210472570989408E+02
              0.543890989829027E+01
              0.904425613519268E+01
              0.469904037177963E+02
             -0.398683859546976E+02
              0.657861715273843E+02
             -0.425954303670360E+02
              0.211119642404858E+02
              0.351226385636787E+02
 
 BEEF-vdW xc energy contributions
           1 :   -784.080840773012     
           2 :    720.183540710824     
           3 :   -609.543028262737     
           4 :    479.283240585426     
           5 :   -356.983535699339     
           6 :    262.542863317123     
           7 :   -203.660636107955     
           8 :    175.799771931958     
           9 :   -166.215553297629     
          10 :    160.151455513225     
          11 :   -146.671940190874     
          12 :    121.933270730056     
          13 :   -89.0364037239744     
          14 :    55.0924278026217     
          15 :   -27.1938338359250     
          16 :    9.11633024495654     
          17 :  -3.142711834698275E-002
          18 :   -4.51345483189777     
          19 :    10.0679687583785     
          20 :   -20.5427795611437     
          21 :    36.5239056877098     
          22 :   -55.2992440664847     
          23 :    72.4096670783875     
          24 :   -83.8779986591454     
          25 :    88.0213392815729     
          26 :   -86.0486651155763     
          27 :    81.2681635738260     
          28 :   -77.3858209518463     
          29 :    76.7489690841378     
          30 :   -79.3631415005825     
          31 :   -86.0879368938234     
          32 :   -65.9577262905793     

     Writing output data file ./pwscf.save/
 
     init_run     :    321.13s CPU    325.72s WALL (       1 calls)
     electrons    :  12720.96s CPU  12850.62s WALL (       1 calls)
     forces       :    101.32s CPU    102.56s WALL (       1 calls)

     Called by init_run:
     wfcinit      :    273.70s CPU    277.22s WALL (       1 calls)
     potinit      :     44.50s CPU     44.83s WALL (       1 calls)
     hinit0       :      1.15s CPU      1.26s WALL (       1 calls)

     Called by electrons:
     c_bands      :  10697.72s CPU  10798.88s WALL (      20 calls)
     sum_band     :   1409.08s CPU   1421.20s WALL (      20 calls)
     v_of_rho     :    110.72s CPU    115.19s WALL (      21 calls)
     newd         :     30.88s CPU     42.95s WALL (      21 calls)
     PAW_pot      :    144.72s CPU    144.73s WALL (      21 calls)
     mix_rho      :    372.99s CPU    373.64s WALL (      20 calls)
     vdW_kernel   :     33.58s CPU     33.58s WALL (       1 calls)

     Called by c_bands:
     init_us_2    :     79.81s CPU     80.09s WALL (     546 calls)
     cegterg      :   9901.14s CPU  10002.00s WALL (     260 calls)

     Called by *egterg:
     cdiaghg      :    115.73s CPU    115.78s WALL (    1786 calls)
     h_psi        :   6100.13s CPU   6134.09s WALL (    1799 calls)
     s_psi        :   1133.11s CPU   1133.14s WALL (    1799 calls)
     g_psi        :     17.30s CPU     17.31s WALL (    1526 calls)

     Called by h_psi:
     h_psi:calbec :   1046.11s CPU   1046.23s WALL (    1799 calls)
     vloc_psi     :   3894.26s CPU   3895.17s WALL (    1799 calls)
     add_vuspsi   :   1133.00s CPU   1133.06s WALL (    1799 calls)

     General routines
     calbec       :   1526.24s CPU   1526.40s WALL (    2111 calls)
     fft          :     49.81s CPU     49.90s WALL (    3280 calls)
     ffts         :    119.54s CPU    119.56s WALL (    8871 calls)
     fftw         :   4065.75s CPU   4066.27s WALL (  336464 calls)
 
     Parallel routines
 
     PWSCF        :      3h40m CPU      3h43m WALL

 
   This run was terminated on:  14: 2:23   4Jan2023            

=------------------------------------------------------------------------------=
   JOB DONE.
=------------------------------------------------------------------------------=
