
     Program PWSCF v.6.7MaX starts on 26Sep2022 at 14:14: 7 

     This program is part of the open-source Quantum ESPRESSO suite
     for quantum simulation of materials; please cite
         "P. Giannozzi et al., J. Phys.:Condens. Matter 21 395502 (2009);
         "P. Giannozzi et al., J. Phys.:Condens. Matter 29 465901 (2017);
          URL http://www.quantum-espresso.org", 
     in publications or presentations arising from this work. More details at
     http://www.quantum-espresso.org/quote

     Parallel version (MPI), running on     1 processors

     MPI processes distributed on     1 nodes
     Reading input from chch2-ensemble.in
Warning: card &CELL ignored
Warning: card / ignored

     Current dimensions of program PWSCF are:
     Max number of different atomic species (ntypx) = 10
     Max number of k-points (npk) =  40000
     Max angular momentum in pseudopotentials (lmaxx) =  3
     file Pt.pbe-n-kjpaw_psl.1.0.0.UPF: wavefunction(s)  6S 5D renormalized
     file C.pbe-n-kjpaw_psl.1.0.0.UPF: wavefunction(s)  2S 2P renormalized
     file H.pbe-kjpaw_psl.1.0.0.UPF: wavefunction(s)  1S renormalized

     **************************************************************************
     Initializing libbeef V0.1.2 with the BEEF-vdW functional.
     Citation: Wellendorff et al., PRB 85, 235149 (2012).
     **************************************************************************


     IMPORTANT: XC functional enforced from input :
     Exchange-correlation= BEEF-VDW
                           (   1   4  43  14   2   0   0)
     Any further DFT definition will be discarded
     Please, verify this is what you really want


     Subspace diagonalization in iterative solution of the eigenvalue problem:
     a serial algorithm will be used

 
     G-vector sticks info
     --------------------
     sticks:   dense  smooth     PW     G-vecs:    dense   smooth      PW
     Sum        4267    4267   1159               735589   735589  103677
 


     bravais-lattice index     =            0
     lattice parameter (alat)  =      16.0349  a.u.
     unit-cell volume          =   11707.4595 (a.u.)^3
     number of atoms/cell      =           41
     number of atomic types    =            3
     number of electrons       =       371.00
     number of Kohn-Sham states=          223
     kinetic-energy cutoff     =      60.0000  Ry
     charge density cutoff     =     240.0000  Ry
     scf convergence threshold =      1.0E-06
     mixing beta               =       0.7000
     number of iterations used =            8  local-TF  mixing
     Exchange-correlation= BEEF-VDW
                           (   1   4  43  14   2   0   0)

     celldm(1)=  16.034858  celldm(2)=   0.000000  celldm(3)=   0.000000
     celldm(4)=   0.000000  celldm(5)=   0.000000  celldm(6)=   0.000000

     crystal axes: (cart. coord. in units of alat)
               a(1) = (   1.000000   0.000000   0.000000 )  
               a(2) = (   0.500000   0.866025   0.000000 )  
               a(3) = (   0.000000   0.000000   3.278964 )  

     reciprocal axes: (cart. coord. in units 2 pi/alat)
               b(1) = (  1.000000 -0.577350  0.000000 )  
               b(2) = (  0.000000  1.154701  0.000000 )  
               b(3) = (  0.000000  0.000000  0.304974 )  


     PseudoPot. # 1 for Pt read from file:
     /users/bkreitz1/quantum-espresso/potentials/Pt.pbe-n-kjpaw_psl.1.0.0.UPF
     MD5 check sum: 04dc8a03c51ece93fc7b5889c2958091
     Pseudo is Projector augmented-wave + core cor, Zval = 10.0
     Generated using 'atomic' code by A. Dal Corso  v.6.7MaX
     Shape of augmentation charge: PSQ
     Using radial grid of 1277 points,  6 beta functions with: 
                l(1) =   0
                l(2) =   0
                l(3) =   1
                l(4) =   1
                l(5) =   2
                l(6) =   2
     Q(r) pseudized with 0 coefficients 


     PseudoPot. # 2 for C  read from file:
     /users/bkreitz1/quantum-espresso/potentials/C.pbe-n-kjpaw_psl.1.0.0.UPF
     MD5 check sum: a169b0ebad56f5ec0d79c4633f80bf22
     Pseudo is Projector augmented-wave + core cor, Zval =  4.0
     Generated using 'atomic' code by A. Dal Corso  v.6.7MaX
     Shape of augmentation charge: PSQ
     Using radial grid of 1073 points,  4 beta functions with: 
                l(1) =   0
                l(2) =   0
                l(3) =   1
                l(4) =   1
     Q(r) pseudized with 0 coefficients 


     PseudoPot. # 3 for H  read from file:
     /users/bkreitz1/quantum-espresso/potentials/H.pbe-kjpaw_psl.1.0.0.UPF
     MD5 check sum: ae98473e6dc62675f0d0baffdab24f65
     Pseudo is Projector augmented-wave, Zval =  1.0
     Generated using 'atomic' code by A. Dal Corso  v.6.7MaX
     Shape of augmentation charge: PSQ
     Using radial grid of  929 points,  2 beta functions with: 
                l(1) =   0
                l(2) =   0
     Q(r) pseudized with 0 coefficients 


     atomic species   valence    mass     pseudopotential
        Pt            10.00   195.08400     Pt( 1.00)
        C              4.00    12.01100     C ( 1.00)
        H              1.00     1.00800     H ( 1.00)

     No symmetry found



   Cartesian axes

     site n.     atom                  positions (alat units)
         1           Pt  tau(   1) = (   0.0000000   0.0000000   1.0017346  )
         2           Pt  tau(   2) = (   0.3333333   0.0000000   1.0017346  )
         3           Pt  tau(   3) = (   0.6666667   0.0000000   1.0017346  )
         4           Pt  tau(   4) = (   0.1666667   0.2886751   1.0017346  )
         5           Pt  tau(   5) = (   0.5000000   0.2886751   1.0017346  )
         6           Pt  tau(   6) = (   0.8333333   0.2886751   1.0017346  )
         7           Pt  tau(   7) = (   0.3333333   0.5773503   1.0017346  )
         8           Pt  tau(   8) = (   0.6666667   0.5773503   1.0017346  )
         9           Pt  tau(   9) = (   1.0000000   0.5773503   1.0017346  )
        10           Pt  tau(  10) = (   0.1666667   0.0962250   1.2739001  )
        11           Pt  tau(  11) = (   0.5000000   0.0962250   1.2739001  )
        12           Pt  tau(  12) = (   0.8333333   0.0962250   1.2739001  )
        13           Pt  tau(  13) = (   0.3333333   0.3849002   1.2739001  )
        14           Pt  tau(  14) = (   0.6666667   0.3849002   1.2739001  )
        15           Pt  tau(  15) = (   1.0000000   0.3849002   1.2739001  )
        16           Pt  tau(  16) = (   0.5000000   0.6735753   1.2739001  )
        17           Pt  tau(  17) = (   0.8333333   0.6735753   1.2739001  )
        18           Pt  tau(  18) = (   1.1666667   0.6735753   1.2739001  )
        19           Pt  tau(  19) = (   0.0004241   0.1925074   1.5407577  )
        20           Pt  tau(  20) = (   0.3361380   0.1939755   1.5469827  )
        21           Pt  tau(  21) = (   0.6649952   0.1938631   1.5467703  )
        22           Pt  tau(  22) = (   0.1672696   0.4815631   1.5422322  )
        23           Pt  tau(  23) = (   0.5005695   0.4794271   1.5469034  )
        24           Pt  tau(  24) = (   0.8336390   0.4815274   1.5422269  )
        25           Pt  tau(  25) = (   0.3336048   0.7700104   1.5418881  )
        26           Pt  tau(  26) = (   0.6675010   0.7702461   1.5420102  )
        27           Pt  tau(  27) = (   1.0004577   0.7704431   1.5426683  )
        28           Pt  tau(  28) = (   0.0011673   0.0007125   1.8163213  )
        29           Pt  tau(  29) = (   0.3342605   0.0008095   1.8170870  )
        30           Pt  tau(  30) = (   0.6681677   0.0006676   1.8166583  )
        31           Pt  tau(  31) = (   0.1670064   0.2889276   1.8145249  )
        32           Pt  tau(  32) = (   0.5008764   0.2902052   1.8452952  )
        33           Pt  tau(  33) = (   0.8353534   0.2891542   1.8146975  )
        34           Pt  tau(  34) = (   0.3345839   0.5789009   1.8163735  )
        35           Pt  tau(  35) = (   0.6679960   0.5788497   1.8163502  )
        36           Pt  tau(  36) = (   1.0011447   0.5783374   1.8163037  )
        37           C   tau(  37) = (   0.5098530   0.2985660   2.0823241  )
        38           C   tau(  38) = (   0.3883779   0.3116179   2.1810522  )
        39           H   tau(  39) = (   0.6303406   0.2912874   2.1253776  )
        40           H   tau(  40) = (   0.4102639   0.3150132   2.3072870  )
        41           H   tau(  41) = (   0.2664700   0.3192179   2.1451666  )

     number of k points=    13  Marzari-Vanderbilt smearing, width (Ry)=  0.0200
                       cart. coord. in units 2pi/alat
        k(    1) = (   0.0000000   0.0000000   0.0000000), wk =   0.0800000
        k(    2) = (   0.0000000   0.2309401   0.0000000), wk =   0.1600000
        k(    3) = (   0.0000000   0.4618802   0.0000000), wk =   0.1600000
        k(    4) = (   0.2000000  -0.1154701   0.0000000), wk =   0.1600000
        k(    5) = (   0.2000000   0.1154701   0.0000000), wk =   0.1600000
        k(    6) = (   0.2000000   0.3464102   0.0000000), wk =   0.1600000
        k(    7) = (   0.2000000  -0.5773503   0.0000000), wk =   0.1600000
        k(    8) = (   0.2000000  -0.3464102   0.0000000), wk =   0.1600000
        k(    9) = (   0.4000000  -0.2309401   0.0000000), wk =   0.1600000
        k(   10) = (   0.4000000  -0.0000000   0.0000000), wk =   0.1600000
        k(   11) = (   0.4000000   0.2309401   0.0000000), wk =   0.1600000
        k(   12) = (   0.4000000  -0.6928203   0.0000000), wk =   0.1600000
        k(   13) = (   0.4000000  -0.4618802   0.0000000), wk =   0.1600000

     Dense  grid:   735589 G-vectors     FFT dimensions: (  80,  80, 270)

     Estimated max dynamical RAM per process >       8.86 GB

     Check: negative core charge=   -0.000002

     Initial potential from superposition of free atoms

     starting charge  370.99378, renormalised to  371.00000

     negative rho (up, down):  1.147E-02 0.000E+00


     %%%%%%%%%%%%%%%%%%%%%%%%%%%%%%%%%%%%%%%%%%%%%%%%%%%%%%%%%%%%%%%%%%%%%%%%
     %                                                                      %
     % You are using vdW-DF, which was implemented by the Thonhauser group. %
     % Please cite the following two papers that made this development      %
     % possible and the two reviews that describe the various versions:     %
     %                                                                      %
     %   T. Thonhauser et al., PRL 115, 136402 (2015).                      %
     %   T. Thonhauser et al., PRB 76, 125112 (2007).                       %
     %   K. Berland et al., Rep. Prog. Phys. 78, 066501 (2015).             %
     %   D.C. Langreth et al., J. Phys.: Condens. Matter 21, 084203 (2009). %
     %                                                                      %
     %                                                                      %
     % If you are calculating the stress with vdW-DF, please also cite:     %
     %                                                                      %
     %   R. Sabatini et al., J. Phys.: Condens. Matter 24, 424209 (2012).   %
     %                                                                      %
     %%%%%%%%%%%%%%%%%%%%%%%%%%%%%%%%%%%%%%%%%%%%%%%%%%%%%%%%%%%%%%%%%%%%%%%%


     Starting wfcs are  335 randomized atomic wfcs
     Checking if some PAW data can be deallocated... 

     total cpu time spent up to now is      352.6 secs

     Self-consistent Calculation

     iteration #  1     ecut=    60.00 Ry     beta= 0.70
     Davidson diagonalization with overlap
     ethr =  1.00E-02,  avg # of iterations =  2.0

     Threshold (ethr) on eigenvalues was too large:
     Diagonalizing with lowered threshold

     Davidson diagonalization with overlap
     ethr =  8.01E-04,  avg # of iterations =  2.7

     negative rho (up, down):  1.165E-02 0.000E+00

     total cpu time spent up to now is     1698.0 secs

     total energy              =  -27795.59582110 Ry
     estimated scf accuracy    <       3.19519934 Ry

     iteration #  2     ecut=    60.00 Ry     beta= 0.70
     Davidson diagonalization with overlap
     ethr =  8.61E-04,  avg # of iterations =  2.0

     negative rho (up, down):  9.758E-03 0.000E+00

     total cpu time spent up to now is     2324.3 secs

     total energy              =  -27795.75828816 Ry
     estimated scf accuracy    <       1.16948587 Ry

     iteration #  3     ecut=    60.00 Ry     beta= 0.70
     Davidson diagonalization with overlap
     ethr =  3.15E-04,  avg # of iterations =  2.0

     negative rho (up, down):  6.643E-03 0.000E+00

     total cpu time spent up to now is     2967.1 secs

     total energy              =  -27795.80733168 Ry
     estimated scf accuracy    <       0.41359896 Ry

     iteration #  4     ecut=    60.00 Ry     beta= 0.70
     Davidson diagonalization with overlap
     ethr =  1.11E-04,  avg # of iterations = 10.5

     negative rho (up, down):  5.267E-03 0.000E+00

     total cpu time spent up to now is     3806.0 secs

     total energy              =  -27795.86939739 Ry
     estimated scf accuracy    <       0.26161972 Ry

     iteration #  5     ecut=    60.00 Ry     beta= 0.70
     Davidson diagonalization with overlap
     ethr =  7.05E-05,  avg # of iterations =  2.0

     negative rho (up, down):  3.986E-03 0.000E+00

     total cpu time spent up to now is     4431.4 secs

     total energy              =  -27795.87625313 Ry
     estimated scf accuracy    <       0.04191027 Ry

     iteration #  6     ecut=    60.00 Ry     beta= 0.70
     Davidson diagonalization with overlap
     c_bands:  2 eigenvalues not converged
     c_bands:  1 eigenvalues not converged
     c_bands:  1 eigenvalues not converged
     ethr =  1.13E-05,  avg # of iterations = 13.5

     negative rho (up, down):  3.492E-03 0.000E+00

     total cpu time spent up to now is     5392.2 secs

     total energy              =  -27795.88438170 Ry
     estimated scf accuracy    <       0.02632138 Ry

     iteration #  7     ecut=    60.00 Ry     beta= 0.70
     Davidson diagonalization with overlap
     c_bands:  1 eigenvalues not converged
     ethr =  7.09E-06,  avg # of iterations =  8.7

     negative rho (up, down):  3.976E-03 0.000E+00

     total cpu time spent up to now is     6077.6 secs

     total energy              =  -27795.88537663 Ry
     estimated scf accuracy    <       0.01412631 Ry

     iteration #  8     ecut=    60.00 Ry     beta= 0.70
     Davidson diagonalization with overlap
     ethr =  3.81E-06,  avg # of iterations =  7.1

     negative rho (up, down):  5.148E-03 0.000E+00

     total cpu time spent up to now is     6748.4 secs

     total energy              =  -27795.88583269 Ry
     estimated scf accuracy    <       0.00847450 Ry

     iteration #  9     ecut=    60.00 Ry     beta= 0.70
     Davidson diagonalization with overlap
     c_bands:  2 eigenvalues not converged
     c_bands:  2 eigenvalues not converged
     c_bands:  2 eigenvalues not converged
     ethr =  2.28E-06,  avg # of iterations = 11.1

     negative rho (up, down):  7.731E-03 0.000E+00

     total cpu time spent up to now is     7456.1 secs

     total energy              =  -27795.88611327 Ry
     estimated scf accuracy    <       0.00220855 Ry

     iteration # 10     ecut=    60.00 Ry     beta= 0.70
     Davidson diagonalization with overlap
     c_bands:  2 eigenvalues not converged
     c_bands:  2 eigenvalues not converged
     ethr =  5.95E-07,  avg # of iterations =  8.0

     negative rho (up, down):  8.706E-03 0.000E+00

     total cpu time spent up to now is     8144.6 secs

     total energy              =  -27795.88626072 Ry
     estimated scf accuracy    <       0.00089890 Ry

     iteration # 11     ecut=    60.00 Ry     beta= 0.70
     Davidson diagonalization with overlap
     ethr =  2.42E-07,  avg # of iterations =  2.8

     negative rho (up, down):  9.268E-03 0.000E+00

     total cpu time spent up to now is     8787.4 secs

     total energy              =  -27795.88635037 Ry
     estimated scf accuracy    <       0.00040081 Ry

     iteration # 12     ecut=    60.00 Ry     beta= 0.70
     Davidson diagonalization with overlap
     ethr =  1.08E-07,  avg # of iterations =  3.4

     negative rho (up, down):  9.437E-03 0.000E+00

     total cpu time spent up to now is     9474.3 secs

     total energy              =  -27795.88640474 Ry
     estimated scf accuracy    <       0.00020022 Ry

     iteration # 13     ecut=    60.00 Ry     beta= 0.70
     Davidson diagonalization with overlap
     ethr =  5.40E-08,  avg # of iterations =  2.0

     negative rho (up, down):  1.064E-02 0.000E+00

     total cpu time spent up to now is    10110.3 secs

     total energy              =  -27795.88641837 Ry
     estimated scf accuracy    <       0.00013518 Ry

     iteration # 14     ecut=    60.00 Ry     beta= 0.70
     Davidson diagonalization with overlap
     ethr =  3.64E-08,  avg # of iterations =  2.0

     negative rho (up, down):  1.011E-02 0.000E+00

     total cpu time spent up to now is    10747.3 secs

     total energy              =  -27795.88643060 Ry
     estimated scf accuracy    <       0.00009571 Ry

     iteration # 15     ecut=    60.00 Ry     beta= 0.70
     Davidson diagonalization with overlap
     ethr =  2.58E-08,  avg # of iterations =  1.0

     negative rho (up, down):  1.082E-02 0.000E+00

     total cpu time spent up to now is    11313.3 secs

     total energy              =  -27795.88643153 Ry
     estimated scf accuracy    <       0.00002751 Ry

     iteration # 16     ecut=    60.00 Ry     beta= 0.70
     Davidson diagonalization with overlap
     ethr =  7.41E-09,  avg # of iterations =  4.9

     negative rho (up, down):  1.152E-02 0.000E+00

     total cpu time spent up to now is    12125.8 secs

     total energy              =  -27795.88643506 Ry
     estimated scf accuracy    <       0.00001237 Ry

     iteration # 17     ecut=    60.00 Ry     beta= 0.70
     Davidson diagonalization with overlap
     ethr =  3.33E-09,  avg # of iterations =  2.0

     negative rho (up, down):  1.176E-02 0.000E+00

     total cpu time spent up to now is    12752.2 secs

     total energy              =  -27795.88643536 Ry
     estimated scf accuracy    <       0.00000816 Ry

     iteration # 18     ecut=    60.00 Ry     beta= 0.70
     Davidson diagonalization with overlap
     ethr =  2.20E-09,  avg # of iterations =  2.0

     negative rho (up, down):  1.205E-02 0.000E+00

     total cpu time spent up to now is    13363.0 secs

     total energy              =  -27795.88643496 Ry
     estimated scf accuracy    <       0.00000381 Ry

     iteration # 19     ecut=    60.00 Ry     beta= 0.70
     Davidson diagonalization with overlap
     ethr =  1.03E-09,  avg # of iterations =  2.0

     negative rho (up, down):  1.241E-02 0.000E+00

     total cpu time spent up to now is    13984.1 secs

     total energy              =  -27795.88643396 Ry
     estimated scf accuracy    <       0.00000209 Ry

     iteration # 20     ecut=    60.00 Ry     beta= 0.70
     Davidson diagonalization with overlap
     ethr =  5.65E-10,  avg # of iterations =  2.2

     negative rho (up, down):  1.259E-02 0.000E+00

     total cpu time spent up to now is    14601.6 secs

     End of self-consistent calculation

          k = 0.0000 0.0000 0.0000 ( 91953 PWs)   bands (ev):

   -12.3180  -7.6308  -7.2007  -5.9208  -4.8947  -4.8215  -4.8080  -4.8024
    -4.7987  -4.7879  -4.7667  -4.7630  -4.6756  -4.2505  -4.2448  -4.2403
    -4.2372  -4.2247  -4.2235  -3.9111  -3.7783  -3.7761  -3.7654  -3.7569
    -3.7542  -3.7026  -3.5570  -3.5541  -3.5497  -3.5457  -3.5422  -3.4569
    -3.3331  -3.3232  -3.3207  -3.3161  -3.3130  -3.3108  -3.3066  -3.3058
    -3.2798  -3.2706  -3.2565  -3.2524  -2.7166  -2.7118  -2.7053  -2.6867
    -2.6722  -2.6494  -2.6222  -2.6175  -2.6140  -2.5970  -2.4817  -2.4774
    -2.4209  -2.3951  -2.0650  -2.0069  -1.8942  -1.8862  -1.8755  -1.8574
    -1.8352  -1.7742  -1.7566  -1.7174  -1.7101  -1.7078  -1.6883  -1.6807
    -1.6634  -1.6606  -1.6570  -1.6403  -1.6306  -1.6283  -1.6072  -1.5981
    -1.5602  -1.5129  -1.4784  -1.4709  -1.4649  -1.4603  -1.3142  -1.3095
    -1.3001  -1.2880  -1.2716  -1.2573  -1.2231  -1.2211  -1.2022  -1.1740
    -1.1655  -1.1273  -1.1017  -1.0976  -1.0453  -1.0448  -1.0060  -1.0047
    -0.9392  -0.9236  -0.8616  -0.8467  -0.8398  -0.8295  -0.8048  -0.5210
    -0.4635  -0.4061  -0.3948  -0.3596  -0.3466  -0.3462  -0.3394  -0.3253
    -0.2795  -0.2788  -0.2696  -0.2051  -0.1907  -0.1835  -0.1286  -0.0691
    -0.0426  -0.0390   0.0237   0.0359   0.0700   0.0961   0.1281   0.1378
     0.1435   0.1463   0.2863   0.3623   0.3834   0.3888   0.3897   0.4158
     0.4496   0.4578   0.5966   0.6375   0.6436   0.6475   0.6582   0.6707
     0.7153   0.8023   0.8053   0.8167   0.8231   0.8249   0.8447   0.8484
     0.8579   0.8615   0.8654   0.9149   0.9450   0.9670   0.9764   0.9884
     0.9945   1.0135   1.0386   1.0402   1.0804   1.0835   1.0953   1.0985
     1.1178   1.1263   1.1363   1.1463   1.2047   1.2058   1.2247   1.2275
     1.2289   1.2324   1.2506   1.3258   1.3293   1.3299   1.3340   1.3548
     1.3564   1.5291   1.5378   1.6258   1.6298   1.6643   1.6672   1.6704
     1.6813   1.9922   2.5016   2.5382   2.5509   2.5569   2.5672   2.6000
     3.8930   4.8108   4.8281   4.8670   4.8778   4.8944   5.8049   5.8693
     6.0734   6.4290   6.4552   6.4705   6.4741   6.4873   6.5334

          k = 0.0000 0.2309 0.0000 ( 91828 PWs)   bands (ev):

   -12.3179  -7.6280  -7.0565  -5.7779  -5.3058  -4.9244  -4.9004  -4.7871
    -4.6800  -4.6487  -4.5914  -4.5501  -4.5429  -4.3608  -4.3263  -4.1815
    -4.1697  -4.1625  -4.1514  -3.9058  -3.8493  -3.7417  -3.7376  -3.7181
    -3.6827  -3.6469  -3.6332  -3.5857  -3.5734  -3.5569  -3.5405  -3.4959
    -3.4593  -3.4402  -3.3524  -3.3425  -3.3174  -3.2957  -3.2907  -3.1298
    -3.1150  -3.1109  -3.0841  -3.0703  -2.8371  -2.8310  -2.8139  -2.7511
    -2.7458  -2.7216  -2.6947  -2.5627  -2.5105  -2.4807  -2.4468  -2.4270
    -2.3994  -2.3880  -2.1991  -2.1272  -2.0727  -2.0567  -2.0199  -1.9989
    -1.9626  -1.9019  -1.8778  -1.8635  -1.8484  -1.8370  -1.8122  -1.7773
    -1.7241  -1.6942  -1.6878  -1.6569  -1.6050  -1.5895  -1.5774  -1.5317
    -1.5248  -1.5150  -1.4361  -1.4239  -1.4159  -1.3995  -1.3652  -1.3201
    -1.3143  -1.2997  -1.2931  -1.2817  -1.2494  -1.2386  -1.1725  -1.1580
    -1.1390  -1.1239  -1.1174  -1.0826  -1.0776  -1.0293  -1.0225  -1.0016
    -0.9722  -0.8979  -0.8678  -0.8525  -0.8449  -0.8378  -0.8231  -0.7829
    -0.7635  -0.7478  -0.7455  -0.6545  -0.6382  -0.4915  -0.4355  -0.4098
    -0.3864  -0.3454  -0.3122  -0.3044  -0.2840  -0.2702  -0.1588  -0.1356
    -0.0747  -0.0549   0.0108   0.0251   0.0721   0.0744   0.0963   0.1202
     0.1613   0.1851   0.2253   0.2369   0.2736   0.2811   0.2957   0.3246
     0.4626   0.4931   0.4959   0.5202   0.5318   0.5692   0.6074   0.6267
     0.6504   0.6810   0.6983   0.7344   0.7495   0.7652   0.7775   0.7996
     0.8800   0.8823   0.9085   0.9790   1.0104   1.0202   1.0593   1.0670
     1.0749   1.0998   1.1131   1.1670   1.2023   1.2043   1.2505   1.2660
     1.2729   1.3066   1.3121   1.3142   1.3207   1.3376   1.3764   1.3899
     1.5156   1.5173   1.5611   1.5719   1.5756   1.5892   1.6215   1.6480
     1.6541   1.6745   1.7532   1.7755   1.7990   1.8251   1.9571   1.9643
     1.9788   2.0243   2.2773   2.4229   2.8406   3.1501   3.1632   3.2753
     3.8526   4.2983   4.5672   4.9869   5.2604   5.2941   5.3861   5.6217
     5.7839   6.0488   6.1800   6.2672   6.3713   6.5958   6.6627

          k = 0.0000 0.4619 0.0000 ( 91894 PWs)   bands (ev):

   -12.3179  -7.6248  -6.6372  -6.0043  -5.3789  -4.9578  -4.9332  -4.8599
    -4.7009  -4.5634  -4.4163  -4.3086  -4.2713  -4.2131  -4.2093  -4.0652
    -4.0489  -4.0124  -3.9910  -3.9771  -3.9089  -3.8410  -3.8222  -3.8062
    -3.7727  -3.7564  -3.7242  -3.6724  -3.6385  -3.6360  -3.5794  -3.3765
    -3.3718  -3.3666  -3.3613  -3.3381  -3.3373  -3.1265  -3.1169  -3.0907
    -3.0826  -3.0717  -3.0483  -2.9106  -2.7932  -2.7893  -2.7783  -2.7628
    -2.7215  -2.7080  -2.6550  -2.6381  -2.6267  -2.5708  -2.5681  -2.4418
    -2.4178  -2.4104  -2.3717  -2.2848  -2.2662  -2.2391  -2.1995  -2.1917
    -2.0914  -2.0441  -2.0103  -1.9719  -1.9548  -1.9317  -1.8931  -1.8794
    -1.8585  -1.7499  -1.7329  -1.7110  -1.6890  -1.6164  -1.5936  -1.5860
    -1.5830  -1.5674  -1.5232  -1.5040  -1.4921  -1.4701  -1.4690  -1.4570
    -1.4319  -1.4273  -1.4003  -1.3402  -1.3204  -1.3136  -1.2955  -1.2848
    -1.2701  -1.1545  -1.1420  -1.1122  -1.0768  -1.0634  -1.0404  -1.0319
    -1.0118  -0.9765  -0.9156  -0.8837  -0.8564  -0.8391  -0.7964  -0.7340
    -0.7299  -0.6777  -0.5959  -0.5924  -0.5157  -0.4979  -0.4552  -0.4427
    -0.4148  -0.3807  -0.3737  -0.3602  -0.2963  -0.2946  -0.2791  -0.2599
    -0.2467  -0.2318  -0.2201  -0.1816  -0.1654  -0.0793  -0.0509  -0.0475
     0.0097   0.0553   0.0752   0.1561   0.1596   0.2452   0.2654   0.3123
     0.4069   0.4347   0.4495   0.4688   0.4994   0.5219   0.5477   0.6004
     0.6019   0.6160   0.6461   0.6738   0.6954   0.7667   0.7865   0.8045
     0.8189   0.8402   0.8820   0.9642   1.0161   1.0273   1.0707   1.1051
     1.1109   1.1241   1.1984   1.2261   1.2337   1.3027   1.3205   1.3264
     1.3805   1.3926   1.4056   1.4322   1.5116   1.5200   1.5523   1.5668
     1.5839   1.5970   1.6014   1.6031   1.7769   1.7780   1.8008   1.8243
     1.8291   1.9917   2.0380   2.2144   2.4308   2.5061   2.6362   2.8553
     2.8686   3.1843   3.2546   3.2867   3.5936   3.7097   4.0670   4.0820
     4.0999   4.2828   4.3500   4.3922   4.4674   4.7053   4.7381   5.0535
     5.3531   5.5526   5.8027   5.9283   6.1774   6.4330   6.4843

          k = 0.2000-0.1155 0.0000 ( 91828 PWs)   bands (ev):

   -12.3179  -7.6285  -7.0563  -5.7777  -5.3046  -4.9274  -4.9018  -4.7861
    -4.6791  -4.6471  -4.5952  -4.5513  -4.5383  -4.3563  -4.3233  -4.1827
    -4.1725  -4.1667  -4.1537  -3.8827  -3.8630  -3.7414  -3.7320  -3.7216
    -3.7009  -3.6502  -3.6287  -3.5875  -3.5721  -3.5531  -3.5394  -3.5009
    -3.4604  -3.4347  -3.3515  -3.3467  -3.3138  -3.3001  -3.2803  -3.1261
    -3.1149  -3.1118  -3.0860  -3.0662  -2.8371  -2.8298  -2.8054  -2.7605
    -2.7402  -2.7214  -2.7105  -2.5533  -2.5262  -2.4640  -2.4481  -2.4239
    -2.4000  -2.3915  -2.2020  -2.1188  -2.1041  -2.0398  -2.0239  -1.9811
    -1.9563  -1.9067  -1.8957  -1.8606  -1.8481  -1.8389  -1.7829  -1.7669
    -1.7196  -1.7029  -1.6931  -1.6649  -1.6179  -1.6017  -1.5713  -1.5511
    -1.5244  -1.4997  -1.4484  -1.4276  -1.4139  -1.4006  -1.3698  -1.3461
    -1.3058  -1.3023  -1.2887  -1.2742  -1.2475  -1.2085  -1.1713  -1.1633
    -1.1379  -1.1305  -1.1190  -1.0853  -1.0557  -1.0450  -1.0238  -0.9832
    -0.9701  -0.8940  -0.8670  -0.8556  -0.8501  -0.8309  -0.8221  -0.7835
    -0.7703  -0.7502  -0.7407  -0.7027  -0.6133  -0.4904  -0.4343  -0.4075
    -0.3577  -0.3388  -0.3123  -0.3050  -0.2908  -0.2601  -0.1995  -0.1359
    -0.1238  -0.0200  -0.0020   0.0448   0.0688   0.0740   0.0929   0.1284
     0.1481   0.1771   0.2367   0.2479   0.2653   0.2845   0.2890   0.3847
     0.4558   0.4889   0.5021   0.5147   0.5472   0.5661   0.5746   0.6448
     0.6573   0.6740   0.6955   0.7310   0.7515   0.7653   0.7870   0.7977
     0.8773   0.8965   0.9134   0.9672   1.0019   1.0195   1.0380   1.0735
     1.0907   1.0993   1.1219   1.1661   1.1968   1.2015   1.2509   1.2622
     1.2705   1.3063   1.3118   1.3150   1.3202   1.3261   1.3771   1.3890
     1.5155   1.5169   1.5599   1.5746   1.5765   1.5916   1.6203   1.6505
     1.6544   1.6746   1.7545   1.7771   1.7989   1.8171   1.9553   1.9638
     1.9783   2.0119   2.2946   2.4342   2.8230   3.1507   3.1608   3.2783
     3.8339   4.3275   4.5719   4.9687   5.2720   5.2929   5.3923   5.5776
     5.8528   5.9902   6.1550   6.2889   6.3183   6.5670   6.6351

          k = 0.2000 0.1155 0.0000 ( 91828 PWs)   bands (ev):

   -12.3179  -7.6284  -7.0564  -5.7778  -5.3073  -4.9234  -4.8999  -4.7886
    -4.6803  -4.6487  -4.5885  -4.5500  -4.5445  -4.3531  -4.3258  -4.1883
    -4.1733  -4.1620  -4.1537  -3.9081  -3.8304  -3.7395  -3.7383  -3.7218
    -3.7006  -3.6483  -3.6296  -3.5869  -3.5707  -3.5541  -3.5447  -3.5032
    -3.4585  -3.4327  -3.3539  -3.3461  -3.3179  -3.2984  -3.2813  -3.1257
    -3.1157  -3.1116  -3.0850  -3.0627  -2.8347  -2.8283  -2.8016  -2.7598
    -2.7435  -2.7212  -2.7094  -2.5586  -2.5230  -2.4692  -2.4489  -2.4235
    -2.4003  -2.3899  -2.1973  -2.1195  -2.1004  -2.0389  -2.0222  -1.9860
    -1.9519  -1.9067  -1.8933  -1.8601  -1.8488  -1.8396  -1.7875  -1.7752
    -1.7170  -1.7028  -1.6879  -1.6630  -1.6187  -1.6017  -1.5770  -1.5554
    -1.5249  -1.4970  -1.4440  -1.4257  -1.4090  -1.4042  -1.3654  -1.3385
    -1.3072  -1.3049  -1.2874  -1.2735  -1.2462  -1.2133  -1.1737  -1.1641
    -1.1376  -1.1276  -1.1175  -1.0839  -1.0596  -1.0430  -1.0234  -0.9882
    -0.9743  -0.8974  -0.8659  -0.8575  -0.8488  -0.8358  -0.8218  -0.7819
    -0.7670  -0.7536  -0.7414  -0.7015  -0.6161  -0.4897  -0.4305  -0.4063
    -0.3591  -0.3412  -0.3147  -0.3051  -0.2897  -0.2645  -0.1939  -0.1373
    -0.1178  -0.0233  -0.0037   0.0474   0.0648   0.0735   0.0915   0.1260
     0.1513   0.1763   0.2367   0.2458   0.2686   0.2853   0.2905   0.3752
     0.4519   0.4883   0.5002   0.5165   0.5425   0.5656   0.5798   0.6464
     0.6571   0.6766   0.7058   0.7292   0.7500   0.7670   0.7857   0.7970
     0.8773   0.8974   0.9127   0.9700   1.0008   1.0170   1.0393   1.0732
     1.0909   1.0973   1.1198   1.1612   1.1950   1.2024   1.2502   1.2643
     1.2706   1.3077   1.3119   1.3152   1.3211   1.3287   1.3755   1.3865
     1.5130   1.5200   1.5601   1.5750   1.5773   1.5938   1.6239   1.6529
     1.6561   1.6766   1.7526   1.7761   1.7989   1.8182   1.9556   1.9646
     1.9798   2.0087   2.2966   2.4368   2.8234   3.1486   3.1630   3.2744
     3.8324   4.3210   4.5758   4.9712   5.2785   5.2926   5.4129   5.5617
     5.8288   5.9988   6.1640   6.2800   6.3122   6.5669   6.6377

          k = 0.2000 0.3464 0.0000 ( 91860 PWs)   bands (ev):

   -12.3179  -7.6257  -6.7737  -5.5607  -5.5446  -5.5048  -4.7873  -4.4813
    -4.4745  -4.4648  -4.4352  -4.4176  -4.4111  -4.3906  -4.3801  -4.2884
    -4.2793  -3.9528  -3.9096  -3.8984  -3.8882  -3.8340  -3.8161  -3.7614
    -3.6593  -3.6436  -3.6387  -3.6205  -3.6029  -3.5283  -3.5018  -3.4734
    -3.4671  -3.4572  -3.4046  -3.3709  -3.3587  -3.3256  -3.2885  -3.2309
    -2.9819  -2.8950  -2.8878  -2.8679  -2.8579  -2.8388  -2.8295  -2.8165
    -2.7644  -2.7477  -2.6076  -2.5952  -2.5897  -2.5022  -2.4747  -2.4263
    -2.4211  -2.4053  -2.3594  -2.3190  -2.2020  -2.1625  -2.1395  -2.1026
    -2.0754  -2.0291  -2.0236  -1.9988  -1.9521  -1.9284  -1.8970  -1.8064
    -1.7912  -1.7551  -1.7312  -1.6972  -1.6827  -1.6424  -1.6283  -1.6136
    -1.5873  -1.5281  -1.4830  -1.4593  -1.4495  -1.4356  -1.4306  -1.4033
    -1.3734  -1.3605  -1.3387  -1.3136  -1.2916  -1.2202  -1.2096  -1.1964
    -1.1799  -1.1364  -1.1150  -1.1049  -1.0787  -1.0699  -1.0445  -1.0281
    -1.0167  -1.0027  -0.9909  -0.9533  -0.9245  -0.9136  -0.8419  -0.8217
    -0.7894  -0.7760  -0.7340  -0.6993  -0.6759  -0.5858  -0.5177  -0.4904
    -0.4411  -0.3621  -0.3453  -0.3110  -0.3009  -0.2752  -0.2486  -0.2383
    -0.2143  -0.2034  -0.1521  -0.1092  -0.0896  -0.0367   0.0364   0.0815
     0.1149   0.1370   0.1594   0.1756   0.2118   0.2558   0.3109   0.3384
     0.3729   0.3936   0.4113   0.4761   0.5264   0.5370   0.5618   0.5741
     0.6128   0.6366   0.6411   0.6577   0.6701   0.6810   0.7042   0.7271
     0.7862   0.8677   0.9152   0.9671   1.0095   1.0284   1.1083   1.1909
     1.2031   1.2112   1.2444   1.3155   1.3277   1.3386   1.3559   1.3759
     1.4023   1.4073   1.4112   1.4268   1.4600   1.4819   1.4900   1.5542
     1.5860   1.5944   1.6277   1.6374   1.6785   1.7655   1.8338   1.8742
     1.8916   1.9347   1.9530   1.9593   2.0901   2.0944   2.3826   2.6159
     2.6338   2.9471   3.1548   3.1725   3.2025   3.4919   3.8643   3.8939
     4.0877   4.0936   4.1405   4.6598   4.8226   5.2741   5.3086   5.4959
     5.5540   5.7755   6.0004   6.0830   6.1045   6.1281   6.2590

          k = 0.2000-0.5774 0.0000 ( 91856 PWs)   bands (ev):

   -12.3179  -7.6246  -6.2497  -6.2322  -5.6345  -5.0519  -5.0025  -4.7346
    -4.4782  -4.4583  -4.3360  -4.2995  -4.1977  -4.1877  -4.0902  -4.0792
    -4.0145  -3.9766  -3.9594  -3.9427  -3.9261  -3.9086  -3.8908  -3.8256
    -3.7586  -3.7524  -3.7294  -3.7030  -3.6596  -3.6109  -3.5184  -3.4951
    -3.4368  -3.3573  -3.3408  -3.3377  -3.3164  -3.2886  -3.2111  -3.2066
    -3.1099  -3.0866  -2.9252  -2.9131  -2.8917  -2.7884  -2.7613  -2.7171
    -2.7089  -2.5974  -2.5670  -2.5229  -2.5099  -2.4922  -2.4550  -2.4362
    -2.4056  -2.3234  -2.3115  -2.2928  -2.2685  -2.2648  -2.2626  -2.2507
    -2.2024  -2.1653  -2.1312  -2.0546  -2.0007  -1.9936  -1.9640  -1.8809
    -1.8572  -1.8366  -1.8137  -1.7793  -1.7631  -1.7362  -1.6509  -1.6441
    -1.6385  -1.6047  -1.5834  -1.5690  -1.5416  -1.5002  -1.4656  -1.4388
    -1.4079  -1.3910  -1.3262  -1.2821  -1.2574  -1.2224  -1.2045  -1.1957
    -1.1676  -1.1604  -1.1344  -1.1086  -1.1020  -1.0803  -1.0578  -1.0507
    -1.0065  -0.9950  -0.9925  -0.9821  -0.9733  -0.9488  -0.9130  -0.8986
    -0.8696  -0.8112  -0.6853  -0.6498  -0.5996  -0.5672  -0.5560  -0.4736
    -0.4548  -0.4191  -0.3925  -0.3713  -0.3470  -0.3381  -0.2996  -0.2703
    -0.2428  -0.2064  -0.1875  -0.1570  -0.0993  -0.0787  -0.0292   0.0465
     0.0890   0.1512   0.1603   0.2043   0.2182   0.2369   0.2948   0.3179
     0.3282   0.3421   0.3770   0.3969   0.4240   0.4663   0.4996   0.5190
     0.5500   0.5824   0.5928   0.6047   0.6315   0.6628   0.7481   0.7713
     0.8790   0.8903   0.9507   0.9956   1.0325   1.0440   1.1413   1.1667
     1.1708   1.2105   1.2822   1.3137   1.3435   1.3657   1.3892   1.3923
     1.4147   1.4446   1.4627   1.5413   1.5489   1.5601   1.5825   1.6042
     1.6145   1.6197   1.6747   1.7795   1.7890   1.8170   1.8232   1.8339
     1.8887   1.9242   2.0091   2.1376   2.7404   2.9702   2.9737   3.1756
     3.2463   3.3489   3.3598   3.3899   3.6008   3.9681   3.9860   4.1551
     4.4064   4.4594   4.5627   4.5822   4.6140   4.7816   4.8750   4.9804
     5.1630   5.3651   5.3941   5.6049   5.9640   6.0391   6.1232

          k = 0.2000-0.3464 0.0000 ( 91860 PWs)   bands (ev):

   -12.3179  -7.6259  -6.7734  -5.5625  -5.5421  -5.5041  -4.7893  -4.4788
    -4.4727  -4.4623  -4.4446  -4.4193  -4.4136  -4.3952  -4.3705  -4.2880
    -4.2752  -3.9513  -3.9099  -3.8933  -3.8847  -3.8516  -3.7992  -3.7664
    -3.6622  -3.6423  -3.6386  -3.6237  -3.6043  -3.5350  -3.4983  -3.4756
    -3.4660  -3.4571  -3.4034  -3.3710  -3.3591  -3.3277  -3.2825  -3.2264
    -2.9811  -2.8954  -2.8876  -2.8680  -2.8607  -2.8370  -2.8324  -2.8242
    -2.7651  -2.7465  -2.6096  -2.5938  -2.5846  -2.5050  -2.4739  -2.4249
    -2.4224  -2.4064  -2.3604  -2.3195  -2.2034  -2.1607  -2.1452  -2.0995
    -2.0712  -2.0338  -2.0253  -2.0012  -1.9515  -1.9286  -1.8944  -1.8046
    -1.7904  -1.7539  -1.7301  -1.6938  -1.6847  -1.6468  -1.6346  -1.6100
    -1.5902  -1.5317  -1.4814  -1.4616  -1.4511  -1.4367  -1.4272  -1.4101
    -1.3747  -1.3609  -1.3355  -1.3063  -1.2851  -1.2294  -1.2107  -1.1964
    -1.1854  -1.1348  -1.1111  -1.1002  -1.0792  -1.0643  -1.0455  -1.0279
    -1.0179  -1.0014  -0.9905  -0.9574  -0.9222  -0.9112  -0.8376  -0.8210
    -0.7907  -0.7762  -0.7279  -0.6969  -0.6651  -0.5849  -0.5193  -0.4896
    -0.4433  -0.3577  -0.3481  -0.3123  -0.3018  -0.2752  -0.2549  -0.2393
    -0.2135  -0.2072  -0.1539  -0.1101  -0.0957  -0.0240   0.0378   0.0810
     0.1169   0.1358   0.1622   0.1780   0.2134   0.2594   0.3114   0.3365
     0.3754   0.3931   0.4112   0.4689   0.5295   0.5343   0.5577   0.5800
     0.6124   0.6359   0.6416   0.6567   0.6695   0.6754   0.7033   0.7254
     0.7891   0.8761   0.9073   0.9670   1.0142   1.0274   1.1083   1.1904
     1.2034   1.2111   1.2436   1.3090   1.3261   1.3400   1.3555   1.3754
     1.4036   1.4084   1.4143   1.4291   1.4594   1.4828   1.4875   1.5556
     1.5893   1.5930   1.6275   1.6371   1.6795   1.7634   1.8290   1.8700
     1.8913   1.9352   1.9531   1.9557   2.0908   2.0956   2.3845   2.6190
     2.6344   2.9487   3.1529   3.1686   3.2012   3.4891   3.8691   3.8944
     4.0868   4.0950   4.1422   4.6572   4.8201   5.2727   5.3079   5.4822
     5.5559   5.7926   6.0174   6.0724   6.1087   6.1204   6.2623

          k = 0.4000-0.2309 0.0000 ( 91894 PWs)   bands (ev):

   -12.3179  -7.6261  -6.6369  -6.0037  -5.3780  -4.9603  -4.9348  -4.8584
    -4.6956  -4.5699  -4.4159  -4.3022  -4.2696  -4.2132  -4.2066  -4.0795
    -4.0512  -4.0101  -3.9880  -3.9777  -3.8934  -3.8408  -3.8244  -3.8102
    -3.7715  -3.7419  -3.7315  -3.6807  -3.6392  -3.6316  -3.6032  -3.3763
    -3.3723  -3.3681  -3.3606  -3.3390  -3.3275  -3.1284  -3.1095  -3.0883
    -3.0839  -3.0597  -3.0522  -2.8921  -2.7966  -2.7880  -2.7746  -2.7659
    -2.7272  -2.7108  -2.6493  -2.6348  -2.6310  -2.5836  -2.5673  -2.4360
    -2.4256  -2.4086  -2.3804  -2.2871  -2.2651  -2.2314  -2.2082  -2.1962
    -2.0675  -2.0333  -2.0025  -1.9721  -1.9659  -1.9325  -1.8906  -1.8669
    -1.8478  -1.7526  -1.7373  -1.7181  -1.6826  -1.6376  -1.6105  -1.5956
    -1.5846  -1.5687  -1.5504  -1.5098  -1.4913  -1.4779  -1.4693  -1.4628
    -1.4464  -1.4276  -1.3909  -1.3652  -1.3219  -1.3008  -1.2926  -1.2887
    -1.2424  -1.1571  -1.1537  -1.1378  -1.1093  -1.0450  -1.0420  -1.0142
    -1.0055  -0.9820  -0.8980  -0.8587  -0.8418  -0.8302  -0.7597  -0.7411
    -0.6944  -0.6649  -0.5949  -0.5768  -0.5379  -0.5023  -0.4647  -0.4381
    -0.4093  -0.3759  -0.3703  -0.3595  -0.3079  -0.2951  -0.2903  -0.2771
    -0.2488  -0.2427  -0.2170  -0.1867  -0.1636  -0.0737  -0.0633  -0.0433
    -0.0075   0.0394   0.1223   0.1500   0.1612   0.2419   0.2723   0.3277
     0.3767   0.4085   0.4603   0.4766   0.4938   0.5262   0.5405   0.5517
     0.6025   0.6408   0.6575   0.6749   0.7218   0.7675   0.7845   0.8053
     0.8236   0.8491   0.8607   0.9524   1.0244   1.0636   1.0710   1.0968
     1.1130   1.1368   1.1973   1.2256   1.2315   1.3040   1.3171   1.3259
     1.3782   1.3886   1.4085   1.4312   1.5055   1.5218   1.5514   1.5668
     1.5824   1.5876   1.5976   1.6040   1.7772   1.7813   1.7999   1.8244
     1.8283   1.9912   2.0379   2.2334   2.4410   2.4964   2.6135   2.8567
     2.8678   3.1663   3.2502   3.2828   3.5965   3.7164   4.0709   4.0796
     4.1167   4.2797   4.3370   4.4130   4.4707   4.7122   4.7344   5.0115
     5.3677   5.5719   5.7440   5.9999   6.1180   6.4343   6.4554

          k = 0.4000-0.0000 0.0000 ( 91860 PWs)   bands (ev):

   -12.3179  -7.6266  -6.7734  -5.5584  -5.5473  -5.5035  -4.7911  -4.4815
    -4.4752  -4.4606  -4.4407  -4.4128  -4.4073  -4.3919  -4.3807  -4.2866
    -4.2759  -3.9634  -3.9100  -3.8973  -3.8857  -3.8413  -3.8114  -3.7530
    -3.6609  -3.6420  -3.6392  -3.6237  -3.6102  -3.5298  -3.4961  -3.4749
    -3.4663  -3.4634  -3.4027  -3.3733  -3.3628  -3.3255  -3.2759  -3.2253
    -2.9865  -2.8996  -2.8855  -2.8662  -2.8473  -2.8344  -2.8253  -2.8046
    -2.7645  -2.7516  -2.6340  -2.5988  -2.5864  -2.5101  -2.4684  -2.4274
    -2.4200  -2.4076  -2.3602  -2.3173  -2.2127  -2.1769  -2.1344  -2.0707
    -2.0517  -2.0435  -2.0181  -1.9966  -1.9479  -1.9282  -1.8896  -1.7950
    -1.7762  -1.7655  -1.7432  -1.7135  -1.6930  -1.6607  -1.6384  -1.6084
    -1.5957  -1.5384  -1.4701  -1.4629  -1.4517  -1.4340  -1.4291  -1.4039
    -1.3749  -1.3649  -1.3346  -1.3080  -1.2743  -1.2540  -1.2124  -1.1937
    -1.1907  -1.1360  -1.1095  -1.1052  -1.0793  -1.0587  -1.0488  -1.0283
    -1.0055  -0.9967  -0.9902  -0.9734  -0.9170  -0.8949  -0.8482  -0.8281
    -0.8046  -0.7738  -0.7103  -0.6956  -0.6721  -0.5764  -0.5193  -0.4739
    -0.4481  -0.3692  -0.3505  -0.3252  -0.3046  -0.2767  -0.2621  -0.2400
    -0.2110  -0.1994  -0.1678  -0.1064  -0.0932   0.0019   0.0268   0.0890
     0.1130   0.1284   0.1637   0.1923   0.2110   0.2771   0.3099   0.3288
     0.3809   0.3958   0.4199   0.4521   0.5330   0.5423   0.5612   0.5963
     0.6140   0.6399   0.6423   0.6547   0.6655   0.6809   0.7010   0.7117
     0.7860   0.8655   0.9016   0.9546   1.0203   1.0254   1.1051   1.1877
     1.2048   1.2250   1.2385   1.3102   1.3296   1.3407   1.3559   1.3753
     1.3995   1.4061   1.4107   1.4270   1.4574   1.4786   1.4936   1.5534
     1.5869   1.5933   1.6275   1.6382   1.6791   1.7652   1.8326   1.8728
     1.8942   1.9388   1.9525   1.9610   2.0930   2.0967   2.3677   2.6137
     2.6308   2.9746   3.1567   3.1698   3.2097   3.4549   3.8669   3.8780
     4.0902   4.1101   4.1324   4.6818   4.8530   5.2582   5.3039   5.4739
     5.5179   5.7614   5.9867   6.0766   6.1065   6.1330   6.3384

          k = 0.4000 0.2309 0.0000 ( 91894 PWs)   bands (ev):

   -12.3179  -7.6259  -6.6373  -6.0045  -5.3787  -4.9590  -4.9330  -4.8590
    -4.7041  -4.5582  -4.4154  -4.3060  -4.2694  -4.2149  -4.2088  -4.0834
    -4.0519  -4.0092  -3.9905  -3.9786  -3.8970  -3.8413  -3.8231  -3.8017
    -3.7713  -3.7448  -3.7297  -3.6692  -3.6376  -3.6284  -3.6199  -3.3755
    -3.3717  -3.3664  -3.3600  -3.3374  -3.3283  -3.1276  -3.1128  -3.0880
    -3.0828  -3.0581  -3.0490  -2.8878  -2.7970  -2.7886  -2.7734  -2.7648
    -2.7265  -2.7165  -2.6456  -2.6359  -2.6306  -2.5817  -2.5716  -2.4353
    -2.4220  -2.4112  -2.3778  -2.2827  -2.2641  -2.2282  -2.2050  -2.1865
    -2.0723  -2.0403  -2.0027  -1.9731  -1.9672  -1.9344  -1.8938  -1.8659
    -1.8493  -1.7559  -1.7452  -1.7224  -1.6861  -1.6288  -1.6067  -1.5945
    -1.5812  -1.5682  -1.5475  -1.5092  -1.4871  -1.4765  -1.4728  -1.4633
    -1.4438  -1.4247  -1.3914  -1.3486  -1.3228  -1.2974  -1.2908  -1.2855
    -1.2442  -1.1583  -1.1496  -1.1413  -1.1065  -1.0523  -1.0446  -1.0184
    -1.0092  -0.9885  -0.8994  -0.8594  -0.8449  -0.8334  -0.7774  -0.7399
    -0.7055  -0.6680  -0.5970  -0.5794  -0.5322  -0.5016  -0.4626  -0.4393
    -0.4082  -0.3746  -0.3697  -0.3574  -0.3065  -0.2955  -0.2924  -0.2747
    -0.2523  -0.2433  -0.2209  -0.1865  -0.1556  -0.0761  -0.0642  -0.0469
    -0.0014   0.0397   0.1150   0.1460   0.1623   0.2393   0.2731   0.3247
     0.3926   0.4128   0.4611   0.4768   0.4912   0.5276   0.5412   0.5548
     0.6061   0.6405   0.6587   0.6764   0.7116   0.7718   0.7849   0.8034
     0.8250   0.8442   0.8655   0.9500   1.0252   1.0587   1.0712   1.0958
     1.1119   1.1337   1.1977   1.2237   1.2324   1.3039   1.3166   1.3271
     1.3763   1.3873   1.4064   1.4293   1.5057   1.5232   1.5517   1.5665
     1.5860   1.5880   1.6005   1.6082   1.7773   1.7843   1.8034   1.8282
     1.8313   1.9907   2.0378   2.2303   2.4419   2.4947   2.6135   2.8576
     2.8670   3.1651   3.2524   3.2810   3.6005   3.7160   4.0724   4.0791
     4.1138   4.2710   4.3503   4.4088   4.4711   4.7180   4.7333   5.0081
     5.3655   5.5631   5.7874   5.9909   6.1086   6.4059   6.4570

          k = 0.4000-0.6928 0.0000 ( 91856 PWs)   bands (ev):

   -12.3178  -7.6252  -6.2546  -6.2274  -5.6345  -5.0529  -5.0013  -4.7340
    -4.4868  -4.4515  -4.3342  -4.3003  -4.2014  -4.1878  -4.0878  -4.0776
    -4.0149  -3.9796  -3.9524  -3.9445  -3.9283  -3.9091  -3.8879  -3.8303
    -3.7592  -3.7505  -3.7254  -3.7022  -3.6543  -3.6191  -3.5353  -3.4939
    -3.4349  -3.3529  -3.3412  -3.3389  -3.3180  -3.2850  -3.2101  -3.1952
    -3.1126  -3.0811  -2.9262  -2.9096  -2.8700  -2.7955  -2.7727  -2.7196
    -2.7054  -2.5996  -2.5714  -2.5290  -2.5164  -2.4920  -2.4480  -2.4311
    -2.4051  -2.3292  -2.3055  -2.2878  -2.2740  -2.2658  -2.2583  -2.2469
    -2.2083  -2.1624  -2.1050  -2.0531  -2.0124  -1.9983  -1.9474  -1.8839
    -1.8515  -1.8375  -1.8168  -1.7933  -1.7655  -1.7373  -1.6629  -1.6404
    -1.6365  -1.6271  -1.6053  -1.5712  -1.5295  -1.4920  -1.4712  -1.4426
    -1.4059  -1.3941  -1.3247  -1.2734  -1.2356  -1.2177  -1.2041  -1.1977
    -1.1780  -1.1546  -1.1403  -1.1105  -1.1021  -1.0831  -1.0670  -1.0529
    -1.0196  -1.0054  -0.9886  -0.9745  -0.9677  -0.9476  -0.9234  -0.9136
    -0.8810  -0.7824  -0.7134  -0.6039  -0.5809  -0.5661  -0.5312  -0.4728
    -0.4529  -0.4215  -0.4007  -0.3674  -0.3453  -0.3323  -0.3038  -0.2794
    -0.2333  -0.2078  -0.1840  -0.1526  -0.0991  -0.0822  -0.0318  -0.0061
     0.1022   0.1223   0.1546   0.2019   0.2232   0.2559   0.2927   0.3106
     0.3302   0.3416   0.3641   0.3935   0.4111   0.4674   0.5001   0.5335
     0.5583   0.5858   0.5954   0.6174   0.6287   0.7006   0.7315   0.7800
     0.8539   0.9156   0.9491   1.0033   1.0316   1.0448   1.1252   1.1649
     1.1719   1.2145   1.2746   1.3172   1.3446   1.3633   1.3863   1.3919
     1.4099   1.4419   1.4652   1.5438   1.5471   1.5583   1.5780   1.6026
     1.6081   1.6192   1.6738   1.7812   1.7944   1.8178   1.8263   1.8358
     1.8880   1.9397   2.0096   2.1407   2.7320   2.9695   2.9738   3.1566
     3.2396   3.3482   3.3650   3.3807   3.6292   3.9749   3.9826   4.1304
     4.4301   4.4615   4.5576   4.5823   4.6273   4.7980   4.8795   4.9580
     5.1406   5.3567   5.4180   5.5920   5.9144   6.0618   6.0746

          k = 0.4000-0.4619 0.0000 ( 91856 PWs)   bands (ev):

   -12.3178  -7.6254  -6.2530  -6.2281  -5.6352  -5.0500  -5.0036  -4.7323
    -4.4762  -4.4690  -4.3350  -4.2988  -4.1961  -4.1864  -4.0927  -4.0783
    -3.9951  -3.9786  -3.9568  -3.9421  -3.9289  -3.9093  -3.8870  -3.8433
    -3.7623  -3.7519  -3.7277  -3.7029  -3.6443  -3.6241  -3.5317  -3.4954
    -3.4354  -3.3534  -3.3433  -3.3370  -3.3194  -3.2807  -3.2105  -3.1969
    -3.1139  -3.0878  -2.9225  -2.9098  -2.8756  -2.7969  -2.7680  -2.7187
    -2.7024  -2.5952  -2.5699  -2.5286  -2.5156  -2.4937  -2.4518  -2.4356
    -2.4062  -2.3291  -2.3062  -2.2941  -2.2795  -2.2688  -2.2568  -2.2461
    -2.2086  -2.1630  -2.0869  -2.0546  -2.0158  -1.9994  -1.9472  -1.8828
    -1.8539  -1.8389  -1.8153  -1.7986  -1.7596  -1.7334  -1.6689  -1.6420
    -1.6372  -1.6269  -1.6043  -1.5707  -1.5306  -1.4955  -1.4649  -1.4439
    -1.4104  -1.3937  -1.3255  -1.2796  -1.2328  -1.2154  -1.2065  -1.1998
    -1.1790  -1.1549  -1.1416  -1.1064  -1.0949  -1.0824  -1.0640  -1.0553
    -1.0217  -1.0065  -0.9892  -0.9735  -0.9654  -0.9521  -0.9229  -0.9149
    -0.8797  -0.7705  -0.6966  -0.6131  -0.5755  -0.5659  -0.5214  -0.4732
    -0.4527  -0.4195  -0.3987  -0.3700  -0.3483  -0.3377  -0.3061  -0.2815
    -0.2343  -0.2045  -0.1751  -0.1575  -0.0999  -0.0822  -0.0298  -0.0148
     0.1055   0.1240   0.1537   0.2005   0.2231   0.2632   0.2919   0.3093
     0.3288   0.3413   0.3592   0.3818   0.4123   0.4673   0.4989   0.5293
     0.5572   0.5849   0.5935   0.6206   0.6276   0.7110   0.7385   0.7821
     0.8558   0.9170   0.9483   0.9983   1.0310   1.0452   1.1258   1.1634
     1.1737   1.2144   1.2739   1.3176   1.3445   1.3648   1.3875   1.3917
     1.4098   1.4412   1.4629   1.5416   1.5474   1.5603   1.5814   1.6027
     1.6059   1.6194   1.6743   1.7802   1.7922   1.8167   1.8231   1.8331
     1.8874   1.9391   2.0091   2.1424   2.7330   2.9698   2.9738   3.1598
     3.2390   3.3503   3.3605   3.3872   3.6266   3.9712   3.9821   4.1301
     4.4333   4.4614   4.5538   4.5823   4.6258   4.7923   4.8814   4.9579
     5.1554   5.3371   5.4217   5.5882   5.9137   6.0572   6.0849

     the Fermi energy is     1.5901 ev

!    total energy              =  -27795.88643343 Ry

     total all-electron energy =  -1326798.180036 Ry
     estimated scf accuracy    <       0.00000053 Ry
     smearing contrib. (-TS)   =       0.00312335 Ry
     internal energy E=F+TS    =  -27795.88955679 Ry

     The total energy is F=E-TS. E is the sum of the following terms:
     one-electron contribution =  -28620.18366462 Ry
     hartree contribution      =   14608.81425260 Ry
     xc contribution           =    -901.76286139 Ry
     ewald contribution        =   12604.29715367 Ry
     one-center paw contrib.   =  -25487.05443704 Ry

     convergence has been achieved in  20 iterations

     negative rho (up, down):  1.259E-02 0.000E+00

     Forces acting on atoms (cartesian axes, Ry/au):

     atom    1 type  1   force =    -0.00005608   -0.00035471   -0.00682108
     atom    2 type  1   force =    -0.00077135   -0.00007715   -0.00315662
     atom    3 type  1   force =     0.00059027    0.00001963   -0.00321471
     atom    4 type  1   force =    -0.00048415   -0.00046587   -0.00329141
     atom    5 type  1   force =    -0.00003256    0.00002150   -0.00318234
     atom    6 type  1   force =     0.00028706   -0.00043255   -0.00343063
     atom    7 type  1   force =     0.00021223    0.00057455   -0.00353723
     atom    8 type  1   force =    -0.00042559    0.00047395   -0.00337078
     atom    9 type  1   force =    -0.00007355   -0.00018457   -0.00306253
     atom   10 type  1   force =     0.00060858   -0.00026620   -0.00093456
     atom   11 type  1   force =    -0.00000001    0.00227668    0.01005408
     atom   12 type  1   force =    -0.00003257   -0.00014614   -0.00093986
     atom   13 type  1   force =     0.00216352   -0.00090958    0.00984595
     atom   14 type  1   force =    -0.00176522   -0.00098690    0.00980698
     atom   15 type  1   force =     0.00012655    0.00034753    0.00146811
     atom   16 type  1   force =     0.00019393    0.00010700    0.00007006
     atom   17 type  1   force =     0.00000414    0.00032797    0.00229499
     atom   18 type  1   force =     0.00027393    0.00018985    0.00228935
     atom   19 type  1   force =     0.00004653    0.00031939    0.00066398
     atom   20 type  1   force =    -0.00001191    0.00005618   -0.00032610
     atom   21 type  1   force =     0.00007481    0.00003966   -0.00030229
     atom   22 type  1   force =     0.00007232   -0.00000546    0.00023266
     atom   23 type  1   force =    -0.00002817    0.00013512   -0.00030804
     atom   24 type  1   force =    -0.00005427   -0.00000841    0.00029645
     atom   25 type  1   force =    -0.00008942    0.00002842    0.00028417
     atom   26 type  1   force =     0.00009551    0.00002616    0.00030583
     atom   27 type  1   force =    -0.00000821    0.00021221    0.00012598
     atom   28 type  1   force =    -0.00006562    0.00022886   -0.00052549
     atom   29 type  1   force =    -0.00031013   -0.00033581   -0.00001779
     atom   30 type  1   force =     0.00009332   -0.00030065   -0.00005935
     atom   31 type  1   force =    -0.00058901    0.00021190    0.00028732
     atom   32 type  1   force =    -0.00003319    0.00008809   -0.00040348
     atom   33 type  1   force =     0.00040594    0.00000251    0.00009919
     atom   34 type  1   force =    -0.00038309    0.00036420   -0.00014275
     atom   35 type  1   force =     0.00007729    0.00044743   -0.00002566
     atom   36 type  1   force =    -0.00003981    0.00002522   -0.00043961
     atom   37 type  2   force =    -0.00051751   -0.00109238   -0.00117809
     atom   38 type  2   force =     0.00312355   -0.00090799    0.00235168
     atom   39 type  3   force =    -0.00045457   -0.00004157    0.00060455
     atom   40 type  3   force =     0.00117334   -0.00026540    0.00053326
     atom   41 type  3   force =    -0.00339685    0.00025729   -0.00294418

     Total force =     0.006707     Total SCF correction =     0.002056
     SCF correction compared to forces is large: reduce conv_thr to get better values

     negative rho (up, down):  1.259E-02 0.000E+00

     negative rho (up, down):  1.259E-02 0.000E+00

     negative rho (up, down):  1.259E-02 0.000E+00

     negative rho (up, down):  1.259E-02 0.000E+00

     negative rho (up, down):  1.259E-02 0.000E+00

     negative rho (up, down):  1.259E-02 0.000E+00

     negative rho (up, down):  1.259E-02 0.000E+00

     negative rho (up, down):  1.259E-02 0.000E+00

     negative rho (up, down):  1.259E-02 0.000E+00

     negative rho (up, down):  1.259E-02 0.000E+00

     negative rho (up, down):  1.259E-02 0.000E+00

     negative rho (up, down):  1.259E-02 0.000E+00

     negative rho (up, down):  1.259E-02 0.000E+00

     negative rho (up, down):  1.259E-02 0.000E+00

     negative rho (up, down):  1.259E-02 0.000E+00

     negative rho (up, down):  1.259E-02 0.000E+00

     negative rho (up, down):  1.259E-02 0.000E+00

     negative rho (up, down):  1.259E-02 0.000E+00

     negative rho (up, down):  1.259E-02 0.000E+00

     negative rho (up, down):  1.259E-02 0.000E+00

     negative rho (up, down):  1.259E-02 0.000E+00

     negative rho (up, down):  1.259E-02 0.000E+00

     negative rho (up, down):  1.259E-02 0.000E+00

     negative rho (up, down):  1.259E-02 0.000E+00

     negative rho (up, down):  1.259E-02 0.000E+00

     negative rho (up, down):  1.259E-02 0.000E+00

     negative rho (up, down):  1.259E-02 0.000E+00

     negative rho (up, down):  1.259E-02 0.000E+00

     negative rho (up, down):  1.259E-02 0.000E+00

     negative rho (up, down):  1.259E-02 0.000E+00

     negative rho (up, down):  1.259E-02 0.000E+00

     negative rho (up, down):  1.259E-02 0.000E+00

     negative rho (up, down):  1.259E-02 0.000E+00

     negative rho (up, down):  1.259E-02 0.000E+00
 BEEFens 2000 ensemble energies
             -0.603390934259948E+02
             -0.359352869351278E+01
             -0.157521528205494E+02
              0.427097408061090E+02
             -0.220145775315071E+02
             -0.204359801887366E+02
             -0.349903921958245E+02
             -0.859811323527307E+02
             -0.462966680761478E+02
             -0.470553625971842E+02
             -0.367362248829018E+02
              0.226070044682105E+01
              0.404402669566230E+01
              0.763610505375695E+01
              0.263123026346142E+01
              0.472436655665977E+02
             -0.207639708301959E+02
             -0.229323169059216E+02
              0.191799832698932E+02
             -0.111796203713761E+03
              0.533300315399985E+02
             -0.288758027004105E+02
             -0.331036387030176E+01
             -0.113649579928228E+02
             -0.882568835300333E+01
             -0.458322838406579E+01
              0.878057502822657E+02
             -0.186209398201071E+02
             -0.893977389191514E+01
             -0.515390440959694E+02
              0.811522253234850E+02
             -0.186718599170378E+02
             -0.372683852496120E+02
              0.248031397573528E+02
             -0.283303546105185E+01
              0.162745543257473E+02
             -0.485976667050244E+01
              0.107980994834655E+02
              0.286677246570527E+02
             -0.102712322342993E+03
              0.555591046882737E+02
              0.141756326229045E+02
             -0.168260708260357E+01
             -0.359661238767387E+02
              0.122614584171603E+02
             -0.146075700583941E+02
              0.395764607635962E+02
              0.362902619165559E+02
             -0.306926640410943E+02
             -0.273333848377951E+02
             -0.326842387710440E+02
             -0.350295298287459E+02
              0.135547251800756E+02
             -0.487912092368744E+02
              0.114798494736198E+02
              0.619850983939872E+02
              0.631513774498960E+02
              0.354233692760786E+02
              0.153054427696787E+02
              0.268981911475124E+02
              0.886831765515941E+02
              0.211457158617384E+02
             -0.545579798121377E+02
             -0.156498720650540E+02
             -0.234459188069457E+02
              0.626314288700829E+02
             -0.769324894167059E+02
             -0.668724731657924E+02
             -0.258032472149068E+02
             -0.641731204637392E+01
             -0.468320519882191E+02
              0.269297663015765E+02
              0.794746592673596E+01
              0.859133544866728E+01
             -0.395403583774180E+02
             -0.344916107965642E+02
             -0.538851167595455E+02
              0.388455989055427E+02
             -0.294306495591108E+02
              0.263902079849682E+02
             -0.713615842458962E+01
             -0.316397773048971E+02
             -0.573203089678241E+02
             -0.175703913184987E+02
             -0.895542849714445E+01
             -0.123668365548651E+02
              0.410290486322812E+02
              0.678978762403617E+02
             -0.383189653970320E+02
             -0.790181665177301E+02
             -0.218597943664039E+02
              0.110908052398542E+03
             -0.589717882859812E+02
              0.354469637488406E+02
             -0.950382308783310E+01
             -0.659828913866080E+02
              0.252866873436102E+02
              0.396196546207042E+02
             -0.198097167821800E+02
              0.398705956801540E+02
             -0.294537766627466E+02
             -0.475117226227543E+02
              0.860728736102687E+02
              0.451356586400775E+02
              0.335202713317519E+02
              0.145608721165649E+02
              0.204534085700290E+02
              0.852047203830303E+02
             -0.255392985852149E+02
              0.787098840751887E+01
             -0.141641284264278E+03
              0.180024372415513E+02
             -0.712582369664293E+02
              0.150379462333163E+02
              0.203491097122235E+02
             -0.330944031933096E+02
             -0.554479738952642E+02
              0.650677833369093E+01
             -0.302660051143529E+02
              0.305594205882451E+02
             -0.527448013733314E+02
              0.174329995027335E+01
             -0.354867050672900E+02
             -0.420536474296392E+01
             -0.105226242801697E+01
              0.180266832622801E+02
              0.143453977717115E+01
             -0.647664507178126E+01
              0.587063875506939E+02
              0.903409005419448E+02
              0.481582546627536E+02
              0.826522749089163E+02
             -0.114400676249427E+02
              0.142398471735302E+02
              0.538274026377671E+02
             -0.110857566025168E+02
             -0.731884006082797E+02
             -0.382065940566478E+02
             -0.519321590807787E+02
             -0.275161425183133E+02
              0.325974621986571E+02
             -0.116125772841939E+03
             -0.186628986628349E+02
              0.411539170024874E+02
             -0.384063008628977E+02
             -0.363849620395260E+02
              0.541271680626154E+02
              0.398068378606180E+02
             -0.352621504456624E+02
              0.136353216061465E+02
             -0.272067137880597E+02
              0.341128036899143E+02
              0.439586243209561E+01
              0.210320146089518E+02
             -0.880399408131590E+02
             -0.477529799589607E+02
             -0.992110233058202E+01
              0.320216740222227E+01
             -0.364469538551112E+02
              0.105442036395124E+03
             -0.230168757758023E+02
             -0.397329174855333E+02
              0.386482514262352E+02
             -0.491629853572911E+02
             -0.361395656751830E+02
              0.323118470373670E+02
              0.123882696841618E+02
              0.164137960839015E+02
              0.115864101970681E+02
             -0.132257196229119E+02
              0.224539743652381E+02
              0.586844643099109E+02
             -0.309983783971452E+02
              0.161200515964848E+02
              0.929774827451396E+02
              0.339152041635394E+02
             -0.725701011181263E+01
             -0.187602683655707E+02
              0.152514079281057E+03
             -0.162917837703816E+02
              0.361340550045515E+02
              0.192931644754682E+02
              0.359824125019691E+02
              0.886862505490047E+02
              0.540319329224915E+02
             -0.234921594867754E+01
              0.226465699889898E+02
              0.482172357249194E+02
              0.361281022390750E+02
             -0.522340467773680E+02
              0.931042921861980E+02
             -0.821225389140710E+02
             -0.197295661069251E+02
              0.579630414738351E+02
              0.670352826044804E+01
              0.785558576177118E+01
              0.339122634440287E+02
              0.298345586833527E+02
              0.351798643324966E+02
             -0.634106556960285E+02
              0.284442468499776E+01
             -0.296347220705508E+02
             -0.864342680820563E+01
             -0.144939057423039E+01
             -0.718002448802508E+01
             -0.412129156944678E+01
              0.854953747456406E+02
             -0.100748815323355E+02
             -0.274760951412681E+02
             -0.495628255141306E+01
              0.139170753761027E+02
             -0.560503978825128E+02
             -0.404670094790982E+02
             -0.380136214365807E+02
             -0.626927709829575E+02
             -0.168575412649765E+02
             -0.445255270373778E+02
              0.162271895893904E+02
             -0.239763718038731E+01
             -0.103779911861517E+02
             -0.929324419423205E+01
              0.804841050150253E+01
             -0.241734059659748E+02
              0.686012374673984E+02
             -0.802696196110515E+02
             -0.140359506086101E+02
             -0.173159821156667E+02
              0.181121615892653E+02
              0.213588125732707E+02
             -0.460981492444425E+02
             -0.201044595532122E+02
              0.438547654151720E+02
             -0.275052722717966E+02
              0.186391183458398E+02
              0.380951540486086E+02
             -0.322044390706424E+01
              0.113503517816516E+03
             -0.229063523199043E+02
             -0.339051906089709E+02
              0.576512876270527E+01
             -0.226887245948119E+02
              0.524536519503691E+02
             -0.334960768401750E+02
              0.105893729487824E+02
              0.637470933549165E+02
             -0.125562207749311E+02
              0.119610446487111E+03
              0.125185580077261E+03
             -0.646189643564155E+02
              0.587587748584674E+02
              0.165396526278470E+02
             -0.514831114771862E+02
              0.215017731575670E+02
              0.351966748723591E+02
              0.360341645385552E+02
              0.131343758576253E+01
              0.159069090607621E+02
              0.692048457259073E+02
             -0.245728467708239E+02
              0.180886955750809E+02
              0.735106114031313E+02
             -0.370478378834684E+02
             -0.128683025575993E+02
              0.505647920516545E+02
              0.295793259642873E+02
              0.775877903090949E+02
              0.221149738255917E+02
              0.620138283973739E+01
              0.278915000459093E+02
              0.381128405447026E+02
             -0.469431615216922E+02
              0.329242346767961E+01
              0.128826995435427E+02
              0.113144016147082E+02
              0.219391302769866E+02
             -0.571799765524368E+02
              0.364195117501831E+02
             -0.441458886825812E+02
             -0.345904154764798E+02
              0.177290303612239E+02
             -0.180811917306792E+02
              0.552008466480042E+02
             -0.254966584250654E+02
              0.265230897673853E+02
              0.366489836021918E+02
              0.824969369929204E+02
              0.571898145260479E+02
              0.459161186895598E+02
             -0.104991577446913E+02
             -0.386327106666556E+01
             -0.330640144668271E+02
              0.746448815878153E+02
              0.792662506009747E+02
              0.359812274207478E+02
             -0.190600358491363E+02
              0.509109542477261E+02
             -0.162550281409113E+02
              0.213677257009846E+02
              0.610897184046802E+02
              0.214440332407952E+01
             -0.103822998738127E+02
             -0.281629334956340E+02
             -0.508812488542460E+02
              0.940295842695583E+02
              0.437389575994815E+02
             -0.555771443155613E+02
             -0.952220756271663E+01
              0.248342117022153E+02
             -0.990318606942407E+01
              0.588590686194301E+02
              0.151196703662805E+02
              0.794746804891777E+02
              0.278190960366749E+02
             -0.262320674760198E+02
              0.247638162058878E+02
             -0.497730979063067E+01
             -0.321973948482406E+02
              0.132190747401107E+02
              0.204589366419646E+02
              0.928347006319649E+02
              0.793249345456159E+02
              0.548118031807854E+02
              0.726940796367680E+02
              0.799049042803892E+01
             -0.272431674526006E+02
              0.162421316130564E+02
             -0.366039002896941E+02
             -0.473516141657161E+02
             -0.560372489834971E+02
             -0.264893973934467E+02
             -0.109124730097488E+03
             -0.289654973601068E+02
             -0.832806997263292E+02
              0.209125603697271E+02
             -0.474643045347996E+02
              0.394321132948002E+02
             -0.936382094312575E+02
             -0.328519934690585E+02
              0.546005488222810E+02
              0.206418317425696E+02
             -0.825983454167476E+02
              0.627867467652131E+02
             -0.255353892069793E+02
              0.509486200848839E+02
             -0.240760016718856E+02
             -0.747119322618411E+02
              0.110856550772791E+02
             -0.607714537975297E+02
             -0.167680496441096E+02
             -0.150054051355830E+01
              0.415821273659394E+02
              0.126342853245344E+03
             -0.459303151490587E+02
             -0.360423942553874E+02
             -0.956911739029351E+00
             -0.129828881686046E+02
             -0.818241751353313E+02
             -0.593693027426860E+02
              0.514428734738568E+02
             -0.287791609404392E+02
              0.168256695373076E+02
             -0.486656281132977E+02
             -0.131096105890598E+02
             -0.434940782898938E+02
              0.562927420219072E+02
              0.149982067292847E+02
             -0.230427510338019E+02
             -0.126188810481092E+02
              0.661881359682879E+01
             -0.614586819035918E+01
              0.439250496581823E+02
             -0.250562181538700E+02
              0.275369120584526E+01
              0.337816819094569E+02
              0.170343497046889E+02
             -0.158837937337429E+02
              0.155435914509317E+03
              0.535201345220139E+02
              0.111521827969753E+01
              0.161049880648224E+02
             -0.611732087354108E+02
              0.313278991796366E+02
             -0.717634920174494E+02
             -0.250316333210434E+02
             -0.519628035988273E+02
             -0.219197732148987E+02
              0.566237610836874E+02
             -0.534039590756358E+02
              0.159723066948276E+02
             -0.408557746090617E+01
              0.385104868275732E+01
             -0.432062353884312E+02
             -0.476058963062369E+02
             -0.401401147793047E+01
             -0.422778609799507E+02
             -0.215707670874543E+02
             -0.436368319203880E+02
             -0.118893232833825E+02
             -0.357249452023563E+02
             -0.513857533825123E+02
              0.211496323208836E+02
             -0.208299347168714E+02
              0.186727658230902E+02
              0.970219899730277E+01
             -0.734131777329459E+02
             -0.545255556064981E+02
             -0.395896787967853E+02
              0.352261064082250E+02
              0.272892463263938E+01
             -0.623162182904675E+02
              0.582927916696376E+02
             -0.398913449017665E+02
              0.541921524016400E+02
             -0.288112638721644E+02
             -0.443318198383913E+02
              0.296804597941923E+02
             -0.653740313246445E+02
             -0.378232786266441E+02
              0.669545174290442E+02
              0.203099641532854E+02
             -0.358235591746718E+02
              0.486783337378896E+02
             -0.173230411672724E+02
             -0.321078644594172E+02
             -0.300160008221181E+02
             -0.497960913586072E+02
              0.248322636881063E+02
             -0.928585455627009E+02
             -0.836060583289704E+02
             -0.730779641738775E+01
             -0.305277595412117E+02
             -0.572611791629891E+02
              0.717760680914288E+02
              0.130810410508195E+03
             -0.359564253638778E+02
             -0.254187525776609E+01
             -0.633874666948086E+02
              0.647075786392063E+02
              0.169628083568488E+02
             -0.180876149585055E+02
             -0.408053313792519E+02
              0.147760936469937E+02
             -0.582789058022615E+02
             -0.197262767232338E+02
             -0.899875368841196E+02
              0.335206019606701E+02
              0.168214716416745E+02
              0.187603368663360E+01
             -0.702856293547063E+01
             -0.327770025848586E+02
             -0.754066182462577E+01
              0.124837490148177E+03
             -0.198085673613737E+02
             -0.435220075991286E+02
             -0.680375868197659E+02
              0.108664918056670E+02
             -0.340341888638256E+02
              0.587284194754346E+01
              0.259783463068025E+02
              0.102005603045861E+02
              0.276176754988935E+02
              0.119133230844528E+02
              0.626509068364375E+02
              0.315222122292553E+02
             -0.324803719600090E+02
              0.353131952852654E+02
              0.377629557291706E+02
              0.120153357258981E+02
              0.485147698941970E+02
             -0.223382740690986E+02
              0.761881899355358E+02
              0.171125679671677E+02
             -0.270376319577654E+02
             -0.721570731797427E+01
             -0.185613946330293E+02
              0.260887620095154E+02
             -0.232805259557160E+02
             -0.909058178188502E-01
             -0.843050162227894E+01
              0.805329358318861E+02
              0.497082529602025E+02
             -0.683291107547706E+02
             -0.473975931855560E+01
             -0.552593769232678E+02
             -0.158578183151799E+02
             -0.267254932252054E+02
              0.370641834875335E+01
              0.626812744954965E+00
             -0.256280380890775E+02
              0.806962386458522E+01
             -0.598043849963554E+01
             -0.128039829294754E+02
              0.854279971700503E+02
              0.180864723720217E+02
             -0.802903397437938E+02
             -0.456364646332066E+02
              0.940137913322127E+02
              0.276619846550379E+02
             -0.106391042614615E+02
              0.103989576869003E+03
             -0.193578366311953E+02
             -0.122588518060161E+02
             -0.535069606413026E+01
              0.106680493366001E+02
              0.270964106589198E+02
              0.779122545345388E+01
              0.303828378559183E+02
             -0.187188333272445E+02
             -0.302020483482967E+02
             -0.415985246113396E+02
             -0.474297733452049E+02
              0.461871402064743E+02
              0.125995367501986E+02
              0.385685684246099E+02
              0.132741483275753E+02
              0.850998454844483E+02
              0.155351955496795E+02
             -0.842076440759254E+02
             -0.332773784069732E+02
              0.133331924519282E+02
             -0.301292910424204E+02
              0.623283759789038E+02
             -0.877400460125341E+01
              0.147692377839677E+02
              0.494363784757525E+02
             -0.703114439213551E+02
              0.148954370200639E+03
              0.207762029391536E+02
              0.270022707810889E+02
              0.345736052121159E+02
              0.103455500460143E+02
             -0.154095801801827E+01
              0.356565772869565E+02
             -0.355537851110931E+02
              0.768962453535434E+02
              0.681127174779138E+02
             -0.404080019395308E+02
              0.148693142560421E+02
              0.666352711011120E+02
             -0.222635633152405E+02
              0.153434928598509E+02
              0.433121309332767E+02
              0.419879979701446E+02
             -0.780901072966210E+02
             -0.152301586695417E+02
             -0.354425392602897E+02
             -0.145659837331209E+01
             -0.764361098991438E+01
             -0.543878663467046E+01
             -0.179769824146959E+02
             -0.292489370479450E+02
              0.628595195941804E+01
              0.111283330742262E+02
              0.532891642216027E+02
             -0.388051120628301E+02
              0.372390137236811E+02
              0.436082504138151E+02
             -0.185693426160067E+02
              0.868047974688587E+02
             -0.694341557754286E+02
             -0.102644469859740E+03
             -0.656686552439694E+01
             -0.265965587383505E+01
              0.384980903480209E+01
              0.785648737502923E+02
             -0.106831778965842E+02
              0.414562973383436E+02
              0.440820559318870E+02
              0.383241754667471E+02
             -0.993259102004322E+01
              0.624151170157672E+02
             -0.132798601865565E+02
             -0.305503567166975E+02
             -0.477307088039148E+02
              0.583546564277229E+01
              0.367417524164753E+02
             -0.600269742428839E+01
              0.390979180179327E+02
             -0.175154945372418E+01
              0.652081306555078E+02
              0.186202460154729E+02
              0.994725359548225E+01
             -0.121766046136023E+02
              0.330539361128952E+02
              0.360372253797473E+02
              0.231714448391295E+02
             -0.489255067247171E+00
             -0.547775857965497E+02
              0.259198283007461E+02
              0.174111428560356E+02
              0.400676972461802E+02
              0.270549043848044E+02
              0.370547797378270E+02
             -0.598236984648997E+01
              0.249607050078639E+02
             -0.297210235825894E+02
             -0.196849977848819E+01
             -0.566412905896738E+02
             -0.305932739836481E+02
              0.376485629653851E+02
             -0.931033373445644E+02
              0.293015845977032E+02
              0.183346371063877E+02
              0.835949789544911E+02
             -0.299319762739544E+02
              0.327951284845157E+02
             -0.137090318456918E+02
             -0.461434969933662E+02
             -0.757813215359680E+02
             -0.521235230736944E+01
             -0.855394055544691E+02
              0.199074123515516E+02
             -0.246368458976360E+02
              0.304161721782686E+02
              0.236024203775778E+02
             -0.239876132762752E+02
             -0.264143231304577E+02
              0.388677595173142E+02
             -0.585576362179994E+02
             -0.116190743773608E+02
             -0.195221541304479E+02
              0.211515514733493E+02
             -0.889681358119361E+01
              0.359956894190711E+01
             -0.199731485934169E+02
              0.555980392222785E+02
             -0.437081441528279E+02
              0.783817015113073E+01
              0.582495858205708E+02
             -0.321594108224626E+02
              0.359620907292606E+01
             -0.880538744846046E+01
             -0.665850921111278E+02
             -0.480157258380272E+02
             -0.858179866173715E+01
              0.239338244758860E+02
              0.300707624207953E+02
              0.858275671290488E+01
             -0.409415450159975E+01
              0.150861946946073E+02
             -0.437595288056779E+02
              0.333447075076862E+01
             -0.528449031650993E+02
             -0.323513836830905E+02
              0.472184767753823E+02
             -0.293563064051150E+02
              0.619077590447659E+02
             -0.213798221641464E+02
              0.351694205856564E+02
              0.240510942850619E+02
             -0.640994831281996E+02
             -0.278869207011627E+02
              0.928004138147506E+01
             -0.369917485572740E+02
             -0.337473026235476E+02
             -0.825523905193443E+02
             -0.536384640762546E+02
             -0.507863225909525E+02
             -0.413184510145416E+02
             -0.992292302969787E+00
              0.985001963731122E+01
              0.102101735447320E+01
              0.152077722634069E+02
             -0.546353678568626E+02
              0.141340247214474E+02
              0.255801000311882E+02
             -0.663181716307321E+02
             -0.698882877277977E+02
             -0.429499281913786E+02
             -0.170653597557291E+02
              0.177584448183960E+02
              0.456651548845616E+01
             -0.423357405346504E+02
              0.364496972256309E+02
             -0.215092594878626E+02
              0.514730153262639E+02
             -0.882699502082090E+02
              0.594710168845882E+02
             -0.210341309101328E+01
             -0.366406525284860E+02
             -0.214726054512440E+02
              0.470874248753745E+01
              0.372096048704794E+02
             -0.752704048698326E+02
             -0.119990936036117E+02
             -0.215906060999262E+02
              0.508815978760288E+02
              0.860739220546800E+02
             -0.960362671589379E+02
              0.939178399545820E+02
              0.465316500197394E+02
             -0.721487854501810E+02
             -0.364790578418593E+02
              0.748009165248793E+02
              0.629002636459359E+02
             -0.180364268102193E+02
             -0.459418133331724E+01
              0.724632089043710E+01
              0.645312689226207E+02
             -0.505492522862785E+02
              0.157601283013978E+02
             -0.469066715177310E+01
              0.346091542016056E+02
             -0.743370970361040E+02
             -0.645626292612670E+01
             -0.349476633407473E+02
              0.458174274129374E+02
              0.466567968118445E+02
             -0.857505789129962E+02
             -0.484600093757408E+02
             -0.255052125081256E+02
             -0.337448162229887E+02
             -0.108572052331276E+02
             -0.241494840524914E+02
              0.425113395420846E+02
              0.398631007168472E+02
             -0.561502990660057E+01
             -0.414177016730452E+02
             -0.846322437555837E+02
              0.440670147280351E+02
             -0.520714127799830E+02
             -0.311350539287932E+02
              0.542830671686521E+01
             -0.320919521914908E+02
             -0.395798209046710E+02
             -0.238817406054036E+02
             -0.383274581639723E+02
             -0.269374707597113E+02
             -0.479919510430930E+02
              0.560890239679205E+02
              0.634829633784097E+02
             -0.167567785552876E+01
             -0.259998401403393E+02
             -0.627435522208725E+01
              0.439140971183124E+02
             -0.863364082614235E+02
             -0.145069152418500E+02
              0.520905907309914E+02
              0.660548693688039E+02
             -0.243748118237478E+02
              0.907552898155961E+01
              0.521105228647098E+02
              0.197440062153246E+02
             -0.823920392826017E+01
[...]
              0.282317575486187E+02
              0.141061635281313E+03
              0.240925149505500E+02
              0.121622524014799E+02
             -0.461606269116274E+02
             -0.634359912313054E+02
             -0.188347768132196E+02
              0.328347617656981E+02
             -0.424662923873689E+01
              0.189065195989472E+02
              0.334424364782135E+02
             -0.582752532773301E+02
              0.221067963928363E+02
              0.579591160590800E+02
              0.549546103002650E+02
             -0.413938399844824E+01
             -0.137864901110231E+01
             -0.989932319812229E+01
             -0.479852250120915E+02
             -0.671026157392114E+02
              0.781157049942845E+02
             -0.517207001911777E+01
             -0.584814635145700E+02
              0.168819714571265E+01
             -0.203784991270371E+02
              0.933830148133943E+02
             -0.215465552561310E+02
             -0.351613534562127E+02
              0.333549482594472E+02
             -0.145029870689759E+02
              0.387111196441043E+02
             -0.233373233184290E+01
              0.100553147478324E+03
              0.486957780367175E+02
             -0.513137680113424E+01
             -0.319920498379936E+02
              0.230827453301310E+02
             -0.525559289814933E+02
             -0.127521085691343E+02
              0.582295561030033E+02
             -0.286361009255256E+02
             -0.435871962965833E+02
             -0.222059219475898E+02
              0.515756709210178E+02
              0.123933422888727E+02
             -0.844255498331896E+02
              0.302120289442635E+02
              0.151540323317292E+02
              0.572979383206157E+01
             -0.510913771282334E+02
             -0.381745517840278E+01
              0.321164941760078E+02
              0.510029904387012E+02
              0.629375511910026E+02
              0.227310617366374E+02
              0.703585866827183E+00
             -0.495267309971198E+02
             -0.507775354495828E+02
             -0.743957252728635E+02
             -0.611318907064742E+01
              0.307282588846748E+02
             -0.378306139260707E+01
              0.544013549620038E+02
             -0.316302805018743E+02
              0.165372139674104E+02
             -0.101813413222910E+02
             -0.288217101916591E+02
              0.582582155926012E+02
              0.789102046300161E+01
              0.601090187079744E+02
              0.506224132018610E+01
              0.263786528458876E+02
             -0.191796104965447E+02
              0.582749607329077E+02
             -0.110958454792192E+02
             -0.100620622734963E+00
             -0.785905320870509E+02
             -0.127862662563623E+02
              0.715177104195484E+02
              0.669395535003023E+02
              0.250671847011831E+02
             -0.129465896138278E+02
              0.344124865881690E+01
             -0.172471481506351E+02
             -0.199626692125446E+01
              0.903082228936181E+02
              0.122605215002909E+01
             -0.188989499611087E+02
             -0.110149635972481E+03
             -0.549803211658734E+02
             -0.373060540065131E+02
             -0.654932424913714E+02
             -0.552468408399984E+02
             -0.678612565430053E+02
             -0.444759431600512E+02
             -0.409151400779284E+02
             -0.449318724916598E+02
              0.481123833179115E+02
             -0.292894451628755E+02
             -0.989954381738793E+02
              0.416650882174933E+02
             -0.258399394722176E+02
             -0.786428219830900E+02
              0.938296520670955E+02
             -0.218431652522535E+02
              0.227050925284633E+02
              0.452861121372857E+02
             -0.136615668774056E+01
              0.253142422102215E+02
              0.469418904319227E+01
              0.406630207918038E+00
             -0.150170891653569E+02
             -0.711991579527925E+02
              0.132594526826386E+02
             -0.128704626611456E+03
              0.620668806684526E+02
             -0.438461719675640E+02
             -0.162013377191129E+02
             -0.157031083818067E+02
              0.705744993533064E+01
             -0.226729940114397E+02
              0.295288608574027E+02
             -0.517360787082103E+02
              0.365118682602213E+02
              0.368906762349342E+02
              0.167518634342049E+02
              0.100276978639887E+02
              0.196676831250691E+02
              0.617837960410952E+01
              0.308486944463374E+02
             -0.795981699154285E+01
             -0.588773020263976E+02
              0.752091728913672E+01
             -0.150941889400663E+02
             -0.192569201697745E+01
              0.503596830054564E+02
             -0.822436302740073E+02
             -0.147505484785853E+01
              0.566167023589799E+00
              0.990958401012659E+01
              0.316676537517097E+02
             -0.122911374739348E+02
              0.830999691793842E+02
              0.485201008833809E+02
             -0.182203609760875E+02
             -0.947911094764299E+01
              0.103541527272313E+01
              0.765096917604070E+02
             -0.583299204402917E+02
             -0.105200504988845E+03
              0.307746810773967E+02
             -0.162858627739995E+02
             -0.138917699016381E+02
              0.129502105884559E+02
              0.764176744807512E+02
              0.461772177182623E+02
             -0.152484661728136E+02
             -0.500186949644621E+02
             -0.543885326113346E+01
              0.304838226776401E+02
             -0.110705309227206E+02
             -0.751661636827012E+02
             -0.268906743639570E+01
             -0.884776472301004E+02
             -0.472805022838659E+02
              0.764076149998318E+02
             -0.480839815742490E+02
             -0.632741870373158E+02
             -0.511464664845916E+02
             -0.347716897015348E+02
              0.339339953414392E+02
              0.816989065570585E+02
             -0.355275085888223E+01
              0.275069765875024E+02
             -0.182830939312188E+02
             -0.690265783050442E+02
              0.462333881362195E+02
             -0.442504958920966E+02
              0.320103314622673E+02
              0.374373459720299E+02
             -0.648054456721019E+01
              0.388040681840417E+02
              0.436001043495180E+02
              0.100051583864033E+03
             -0.155212100803434E+02
             -0.453443479971649E+02
             -0.609111071918999E+02
             -0.122944409406675E+02
             -0.231083155426262E+02
              0.102480944749313E+03
             -0.446725348882144E+02
              0.104564226054947E+02
              0.968051096927655E+01
             -0.263422570647586E+02
             -0.794448332657784E+02
             -0.696008036386166E+01
              0.974436726305434E+02
              0.928585738190840E+01
              0.803383353063452E+01
             -0.524093003517200E+02
             -0.602361615580094E+02
             -0.555397571455673E+01
              0.497877759356869E+02
             -0.220531129593267E+02
              0.107402746692097E+03
             -0.433445469929379E+02
              0.145287512998176E+02
             -0.223010505497248E+02
             -0.715079277890719E+02
              0.164617455675233E+01
             -0.498620343266625E+02
             -0.756517789336890E+02
              0.611928468736215E+01
              0.234922829170290E+01
              0.511462058496787E+02
              0.185850449171281E+02
             -0.321824487504009E+02
              0.228650932965342E+02
             -0.806506516657238E+02
             -0.518901776105023E+02
              0.896601069336131E+02
              0.141735771842705E+02
             -0.187473346236102E+02
             -0.350804003742965E+02
             -0.270402737040934E+01
             -0.581732872628277E+01
              0.825663738399553E+02
              0.415634336419656E+02
             -0.165293143811333E+02
             -0.121527119021214E+02
             -0.425337902605770E+02
             -0.199603324466534E+02
             -0.666330940816162E+02
              0.457046491027453E+02
              0.543920301730017E+01
              0.144337857121924E+02
              0.155282232064169E+02
             -0.509892182083124E+00
             -0.167304279830693E+02
             -0.307950914283693E+01
             -0.998344331306653E+02
             -0.229259421512268E+02
             -0.762396800961284E+01
             -0.944401165290634E+01
              0.543249299474274E+02
              0.620492303958293E+02
              0.163881946463868E+02
             -0.965388562846399E+02
              0.643864821674017E+02
             -0.213593654291894E+02
             -0.374926453143602E+02
             -0.859335302772790E+02
             -0.385151794771322E+02
              0.561422992486795E+02
              0.242755314474823E+02
              0.506252852975081E+01
              0.290412607126542E+02
             -0.561839707443289E+02
             -0.419694580555899E+02
              0.512036062285067E+02
              0.384825418374164E+02
              0.516084476711915E+02
             -0.120635737538686E+01
              0.681516041249046E+01
              0.566491138779386E+02
              0.957160628526680E+02
             -0.298957118767150E+02
              0.320837830204819E+02
             -0.117664334354197E+02
             -0.409730529517413E+02
             -0.312589290586027E+02
             -0.298631135915713E+02
             -0.130612501903288E+02
             -0.520553198038858E+02
             -0.215911257081756E+02
             -0.140438920989626E+03
              0.367294305245114E+02
              0.205209602986323E+02
             -0.393142967555060E+01
             -0.377877655818155E+02
             -0.202941014238219E+02
             -0.523857483474913E+02
              0.150852780007416E+02
              0.815589011405388E+02
             -0.251117636270524E+02
             -0.162050782228115E+02
              0.237065719680977E+02
             -0.486847168331250E+02
              0.875550472916594E+02
              0.153408663477628E+02
              0.225630559629114E+02
              0.487170412795230E+02
              0.320064622114108E+01
              0.538741333706844E+02
              0.142059438414943E+02
             -0.106205527798502E+02
              0.723500280904483E+01
              0.797123303572391E+00
              0.723137169300218E+02
              0.100835213179063E+02
              0.119603051982544E+02
             -0.129710155346963E+02
              0.131804363454788E+02
             -0.905888515336089E+02
             -0.323744586844642E+02
             -0.454712037371987E+02
              0.482143195787687E+02
             -0.289208624445691E+02
             -0.655086449282687E+02
              0.535172324633430E+02
             -0.121102537176962E+02
              0.437676049995260E+02
             -0.893553996214140E+02
              0.230818386455384E+02
              0.852816995427557E+01
              0.580962439869290E+01
             -0.826069419737655E+01
             -0.900556396415323E+01
              0.476680083918258E+02
              0.197383932144913E+01
             -0.472344727386205E+02
             -0.175115645038090E+02
              0.275257049653995E+02
             -0.117288849982327E+03
             -0.924705866605187E+02
              0.394826704781826E+01
              0.116875083574390E+02
             -0.410767991709879E+02
             -0.388505289452661E+01
              0.111512218895042E+03
              0.304458969175543E+02
             -0.568559019729802E+02
              0.920140761847901E+01
             -0.957753967924980E+01
              0.105151828835351E+02
             -0.335929770360295E+02
              0.194365055805457E+02
              0.283266807169734E+02
             -0.293456182137987E+01
              0.107552376673851E+03
             -0.139926393236383E+02
             -0.314113771516193E+02
              0.141357196134287E+02
              0.464144664288349E+02
             -0.353941985693393E+02
             -0.316654522895002E+01
              0.959496624758426E+02
             -0.462315275586536E+01
              0.618747860074879E+02
              0.134559717549133E+02
             -0.895625641856908E+01
             -0.304344516545304E+02
              0.563600497025457E+02
             -0.510846867699849E+02
             -0.218762052088715E+01
             -0.168959816548108E+02
             -0.402888035558629E+02
              0.184403779635150E+02
              0.238201291385025E+02
              0.116006063630534E+02
              0.731897477538269E+00
             -0.382305822092404E+02
              0.214208632971115E+02
             -0.673424812744898E+01
             -0.245059005468360E+02
             -0.209358704807745E+02
              0.201984110127541E+02
             -0.597747988097819E+01
             -0.347081608298983E+02
             -0.106050674951851E+03
              0.102693034035824E+02
              0.247659073920584E+02
             -0.384769145029976E+02
             -0.209701405273868E+02
              0.802588879667157E+02
              0.646702227596180E+01
              0.308527581434452E+02
              0.386325637386605E+01
              0.319717515308583E+02
              0.645525066500653E+01
             -0.370686213014608E+02
             -0.230437559776635E+01
              0.872757373267524E+01
              0.272219988970497E+02
              0.777354545375682E+02
              0.504615419826654E+02
              0.171929205234846E+00
              0.168804338032572E+02
              0.609905446250014E+02
              0.234379857989631E+02
             -0.748733976575809E+02
             -0.272161336737810E+02
              0.150304650391304E+02
              0.556494845421855E+01
              0.253530240034088E+02
             -0.544782042816915E+02
              0.894062551196363E+01
              0.383927701148764E+02
              0.495160339239579E+02
             -0.432441142051368E+02
             -0.689815721814762E+01
             -0.206464748465925E+01
             -0.132578766257927E+02
             -0.363792581094375E+02
             -0.214457352189191E+02
             -0.199979974988949E+01
              0.787744147335593E+01
              0.419058711219050E+02
             -0.306379368811831E+02
              0.821700757589900E+02
              0.325494760734731E+02
              0.218524083063858E+02
              0.331227947657466E+02
              0.321503498939309E+02
              0.344572329087497E+02
              0.534032335662004E+02
             -0.431254534573591E+02
              0.616152939040541E+02
             -0.111653508790988E+03
              0.305523545520102E+02
             -0.105932508146922E+03
              0.850081646393825E+02
              0.686371096006623E+02
             -0.109354225414837E+02
             -0.490471852837665E+02
             -0.427277654900216E+02
             -0.620326283382684E+02
             -0.625174720538648E+02
              0.548910239941749E+02
              0.403060048957570E+02
              0.235384875228632E+02
              0.372089372908080E+02
              0.400906198176739E+02
             -0.379873122655595E+02
             -0.196977923267819E+02
              0.583668726229269E+02
             -0.115553409571292E+02
              0.549186532570828E+02
              0.695239482736251E+02
             -0.554425238624133E+01
             -0.702198043469834E+02
             -0.883447101372326E+00
             -0.248685110258399E+01
             -0.876455212155918E+01
             -0.183573451063035E+01
             -0.649299084499885E+02
             -0.209857617144051E+02
              0.533520520185293E+01
              0.894625507837657E+01
              0.466210808970329E+02
             -0.395471444048071E+02
              0.654120574737245E+02
             -0.423140433071048E+02
              0.209103762521451E+02
              0.347959666400057E+02
 
 BEEF-vdW xc energy contributions
           1 :   -778.733965725119     
           2 :    715.537343481751     
           3 :   -606.066528091100     
           4 :    477.128454443509     
           5 :   -356.028415463346     
           6 :    262.479855777659     
           7 :   -204.103926930865     
           8 :    176.402585924155     
           9 :   -166.757574220052     
          10 :    160.562521064294     
          11 :   -146.994186524303     
          12 :    122.251121104194     
          13 :   -89.4108491677986     
          14 :    55.5276592330879     
          15 :   -27.6438051314854     
          16 :    9.51735518884664     
          17 :  -0.338454858211549     
          18 :   -4.30566385941722     
          19 :    9.92716878894907     
          20 :   -20.4228178393612     
          21 :    36.3954321833809     
          22 :   -55.1650094563530     
          23 :    72.2962578440522     
          24 :   -83.8134545002754     
          25 :    88.0124795385766     
          26 :   -86.0755306333175     
          27 :    81.2986411004108     
          28 :   -77.3967367481083     
          29 :    76.7435023188891     
          30 :   -79.3752671353054     
          31 :   -85.3494723165487     
          32 :   -65.4362358804827     

     Writing output data file ./pwscf.save/
 
     init_run     :    348.03s CPU    352.42s WALL (       1 calls)
     electrons    :  14112.81s CPU  14249.06s WALL (       1 calls)
     forces       :    101.47s CPU    102.67s WALL (       1 calls)

     Called by init_run:
     wfcinit      :    300.71s CPU    304.13s WALL (       1 calls)
     potinit      :     44.30s CPU     44.64s WALL (       1 calls)
     hinit0       :      1.14s CPU      1.17s WALL (       1 calls)

     Called by electrons:
     c_bands      :  11705.37s CPU  11811.71s WALL (      21 calls)
     sum_band     :   1712.99s CPU   1726.27s WALL (      21 calls)
     v_of_rho     :    112.68s CPU    117.28s WALL (      21 calls)
     newd         :     31.76s CPU     43.77s WALL (      21 calls)
     PAW_pot      :    139.56s CPU    139.59s WALL (      21 calls)
     mix_rho      :    455.48s CPU    456.31s WALL (      21 calls)
     vdW_kernel   :     33.46s CPU     33.47s WALL (       1 calls)

     Called by c_bands:
     init_us_2    :     81.12s CPU     81.48s WALL (     572 calls)
     cegterg      :  10851.45s CPU  10956.45s WALL (     273 calls)

     Called by *egterg:
     cdiaghg      :     93.27s CPU     93.33s WALL (    1480 calls)
     h_psi        :   7088.97s CPU   7125.83s WALL (    1506 calls)
     s_psi        :   1122.46s CPU   1122.59s WALL (    1506 calls)
     g_psi        :     16.42s CPU     16.42s WALL (    1220 calls)

     Called by h_psi:
     h_psi:calbec :   1050.71s CPU   1051.00s WALL (    1506 calls)
     vloc_psi     :   4889.62s CPU   4891.72s WALL (    1506 calls)
     add_vuspsi   :   1121.97s CPU   1122.16s WALL (    1506 calls)

     General routines
     calbec       :   1551.75s CPU   1552.26s WALL (    1831 calls)
     fft          :     51.87s CPU     51.89s WALL (    3281 calls)
     ffts         :    148.17s CPU    148.21s WALL (    9692 calls)
     fftw         :   4995.81s CPU   4997.28s WALL (  341791 calls)
 
     Parallel routines
 
     PWSCF        :      4h 4m CPU      4h 7m WALL

 
   This run was terminated on:  18:21:13  26Sep2022            

=------------------------------------------------------------------------------=
   JOB DONE.
=------------------------------------------------------------------------------=
