
     Program PWSCF v.6.7MaX starts on 20Dec2022 at 15:48:30 

     This program is part of the open-source Quantum ESPRESSO suite
     for quantum simulation of materials; please cite
         "P. Giannozzi et al., J. Phys.:Condens. Matter 21 395502 (2009);
         "P. Giannozzi et al., J. Phys.:Condens. Matter 29 465901 (2017);
          URL http://www.quantum-espresso.org", 
     in publications or presentations arising from this work. More details at
     http://www.quantum-espresso.org/quote

     Parallel version (MPI), running on     1 processors

     MPI processes distributed on     1 nodes
     Reading input from chch2-bi-ensemble.in
Warning: card &CELL ignored
Warning: card / ignored

     Current dimensions of program PWSCF are:
     Max number of different atomic species (ntypx) = 10
     Max number of k-points (npk) =  40000
     Max angular momentum in pseudopotentials (lmaxx) =  3
     file Pt.pbe-n-kjpaw_psl.1.0.0.UPF: wavefunction(s)  6S 5D renormalized
     file C.pbe-n-kjpaw_psl.1.0.0.UPF: wavefunction(s)  2S 2P renormalized
     file H.pbe-kjpaw_psl.1.0.0.UPF: wavefunction(s)  1S renormalized

     **************************************************************************
     Initializing libbeef V0.1.2 with the BEEF-vdW functional.
     Citation: Wellendorff et al., PRB 85, 235149 (2012).
     **************************************************************************


     IMPORTANT: XC functional enforced from input :
     Exchange-correlation= BEEF-VDW
                           (   1   4  43  14   2   0   0)
     Any further DFT definition will be discarded
     Please, verify this is what you really want


     Subspace diagonalization in iterative solution of the eigenvalue problem:
     a serial algorithm will be used

 
     G-vector sticks info
     --------------------
     sticks:   dense  smooth     PW     G-vecs:    dense   smooth      PW
     Sum        4267    4267   1159               699709   699709   98655
 


     bravais-lattice index     =            0
     lattice parameter (alat)  =      16.0349  a.u.
     unit-cell volume          =   11140.1661 (a.u.)^3
     number of atoms/cell      =           41
     number of atomic types    =            3
     number of electrons       =       371.00
     number of Kohn-Sham states=          223
     kinetic-energy cutoff     =      60.0000  Ry
     charge density cutoff     =     240.0000  Ry
     scf convergence threshold =      1.0E-06
     mixing beta               =       0.7000
     number of iterations used =            8  local-TF  mixing
     Exchange-correlation= BEEF-VDW
                           (   1   4  43  14   2   0   0)

     celldm(1)=  16.034858  celldm(2)=   0.000000  celldm(3)=   0.000000
     celldm(4)=   0.000000  celldm(5)=   0.000000  celldm(6)=   0.000000

     crystal axes: (cart. coord. in units of alat)
               a(1) = (   1.000000   0.000000   0.000000 )  
               a(2) = (   0.500000   0.866025   0.000000 )  
               a(3) = (   0.000000   0.000000   3.120080 )  

     reciprocal axes: (cart. coord. in units 2 pi/alat)
               b(1) = (  1.000000 -0.577350  0.000000 )  
               b(2) = (  0.000000  1.154701  0.000000 )  
               b(3) = (  0.000000  0.000000  0.320505 )  


     PseudoPot. # 1 for Pt read from file:
     /users/bkreitz1/quantum-espresso/potentials/Pt.pbe-n-kjpaw_psl.1.0.0.UPF
     MD5 check sum: 04dc8a03c51ece93fc7b5889c2958091
     Pseudo is Projector augmented-wave + core cor, Zval = 10.0
     Generated using 'atomic' code by A. Dal Corso  v.6.7MaX
     Shape of augmentation charge: PSQ
     Using radial grid of 1277 points,  6 beta functions with: 
                l(1) =   0
                l(2) =   0
                l(3) =   1
                l(4) =   1
                l(5) =   2
                l(6) =   2
     Q(r) pseudized with 0 coefficients 


     PseudoPot. # 2 for C  read from file:
     /users/bkreitz1/quantum-espresso/potentials/C.pbe-n-kjpaw_psl.1.0.0.UPF
     MD5 check sum: a169b0ebad56f5ec0d79c4633f80bf22
     Pseudo is Projector augmented-wave + core cor, Zval =  4.0
     Generated using 'atomic' code by A. Dal Corso  v.6.7MaX
     Shape of augmentation charge: PSQ
     Using radial grid of 1073 points,  4 beta functions with: 
                l(1) =   0
                l(2) =   0
                l(3) =   1
                l(4) =   1
     Q(r) pseudized with 0 coefficients 


     PseudoPot. # 3 for H  read from file:
     /users/bkreitz1/quantum-espresso/potentials/H.pbe-kjpaw_psl.1.0.0.UPF
     MD5 check sum: ae98473e6dc62675f0d0baffdab24f65
     Pseudo is Projector augmented-wave, Zval =  1.0
     Generated using 'atomic' code by A. Dal Corso  v.6.7MaX
     Shape of augmentation charge: PSQ
     Using radial grid of  929 points,  2 beta functions with: 
                l(1) =   0
                l(2) =   0
     Q(r) pseudized with 0 coefficients 


     atomic species   valence    mass     pseudopotential
        Pt            10.00   195.08400     Pt( 1.00)
        C              4.00    12.01100     C ( 1.00)
        H              1.00     1.00800     H ( 1.00)

     No symmetry found



   Cartesian axes

     site n.     atom                  positions (alat units)
         1           Pt  tau(   1) = (   0.0000000   0.0000000   1.0017346  )
         2           Pt  tau(   2) = (   0.3333333   0.0000000   1.0017346  )
         3           Pt  tau(   3) = (   0.6666667   0.0000000   1.0017346  )
         4           Pt  tau(   4) = (   0.1666667   0.2886751   1.0017346  )
         5           Pt  tau(   5) = (   0.5000000   0.2886751   1.0017346  )
         6           Pt  tau(   6) = (   0.8333333   0.2886751   1.0017346  )
         7           Pt  tau(   7) = (   0.3333333   0.5773503   1.0017346  )
         8           Pt  tau(   8) = (   0.6666667   0.5773503   1.0017346  )
         9           Pt  tau(   9) = (   1.0000000   0.5773503   1.0017346  )
        10           Pt  tau(  10) = (   0.1666667   0.0962250   1.2739001  )
        11           Pt  tau(  11) = (   0.5000000   0.0962250   1.2739001  )
        12           Pt  tau(  12) = (   0.8333333   0.0962250   1.2739001  )
        13           Pt  tau(  13) = (   0.3333333   0.3849002   1.2739001  )
        14           Pt  tau(  14) = (   0.6666667   0.3849002   1.2739001  )
        15           Pt  tau(  15) = (   1.0000000   0.3849002   1.2739001  )
        16           Pt  tau(  16) = (   0.5000000   0.6735753   1.2739001  )
        17           Pt  tau(  17) = (   0.8333333   0.6735753   1.2739001  )
        18           Pt  tau(  18) = (   1.1666667   0.6735753   1.2739001  )
        19           Pt  tau(  19) = (   0.0013950   0.1933352   1.5452384  )
        20           Pt  tau(  20) = (   0.3337103   0.1921720   1.5456545  )
        21           Pt  tau(  21) = (   0.6659262   0.1932630   1.5448428  )
        22           Pt  tau(  22) = (   0.1665266   0.4793753   1.5452373  )
        23           Pt  tau(  23) = (   0.5009764   0.4785038   1.5469386  )
        24           Pt  tau(  24) = (   0.8334113   0.4809996   1.5438567  )
        25           Pt  tau(  25) = (   0.3345711   0.7690102   1.5387865  )
        26           Pt  tau(  26) = (   0.6693702   0.7701502   1.5469353  )
        27           Pt  tau(  27) = (   0.9988656   0.7699146   1.5448258  )
        28           Pt  tau(  28) = (  -0.0011878  -0.0011143   1.8150995  )
        29           Pt  tau(  29) = (   0.3343090   0.0025057   1.8348070  )
        30           Pt  tau(  30) = (   0.6711778  -0.0027389   1.8129489  )
        31           Pt  tau(  31) = (   0.1599949   0.2924246   1.8307451  )
        32           Pt  tau(  32) = (   0.4982298   0.2864525   1.8348409  )
        33           Pt  tau(  33) = (   0.8313514   0.2888371   1.8183601  )
        34           Pt  tau(  34) = (   0.3335838   0.5787468   1.8151162  )
        35           Pt  tau(  35) = (   0.6660745   0.5775661   1.8193869  )
        36           Pt  tau(  36) = (   0.9987325   0.5787982   1.8183555  )
        37           C   tau(  37) = (   0.3868751   0.1614594   2.0121692  )
        38           C   tau(  38) = (   0.2420405   0.2449616   2.0595483  )
        39           H   tau(  39) = (   0.4677003   0.1147576   2.1010024  )
        40           H   tau(  40) = (   0.2614109   0.3565832   2.1207084  )
        41           H   tau(  41) = (   0.1551084   0.1721360   2.1216708  )

     number of k points=    13  Marzari-Vanderbilt smearing, width (Ry)=  0.0200
                       cart. coord. in units 2pi/alat
        k(    1) = (   0.0000000   0.0000000   0.0000000), wk =   0.0800000
        k(    2) = (   0.0000000   0.2309401   0.0000000), wk =   0.1600000
        k(    3) = (   0.0000000   0.4618802   0.0000000), wk =   0.1600000
        k(    4) = (   0.2000000  -0.1154701   0.0000000), wk =   0.1600000
        k(    5) = (   0.2000000   0.1154701   0.0000000), wk =   0.1600000
        k(    6) = (   0.2000000   0.3464102   0.0000000), wk =   0.1600000
        k(    7) = (   0.2000000  -0.5773503   0.0000000), wk =   0.1600000
        k(    8) = (   0.2000000  -0.3464102   0.0000000), wk =   0.1600000
        k(    9) = (   0.4000000  -0.2309401   0.0000000), wk =   0.1600000
        k(   10) = (   0.4000000  -0.0000000   0.0000000), wk =   0.1600000
        k(   11) = (   0.4000000   0.2309401   0.0000000), wk =   0.1600000
        k(   12) = (   0.4000000  -0.6928203   0.0000000), wk =   0.1600000
        k(   13) = (   0.4000000  -0.4618802   0.0000000), wk =   0.1600000

     Dense  grid:   699709 G-vectors     FFT dimensions: (  80,  80, 250)

     Estimated max dynamical RAM per process >       8.43 GB

     Check: negative core charge=   -0.000001

     Initial potential from superposition of free atoms

     starting charge  370.99378, renormalised to  371.00000

     negative rho (up, down):  1.159E-02 0.000E+00


     %%%%%%%%%%%%%%%%%%%%%%%%%%%%%%%%%%%%%%%%%%%%%%%%%%%%%%%%%%%%%%%%%%%%%%%%
     %                                                                      %
     % You are using vdW-DF, which was implemented by the Thonhauser group. %
     % Please cite the following two papers that made this development      %
     % possible and the two reviews that describe the various versions:     %
     %                                                                      %
     %   T. Thonhauser et al., PRL 115, 136402 (2015).                      %
     %   T. Thonhauser et al., PRB 76, 125112 (2007).                       %
     %   K. Berland et al., Rep. Prog. Phys. 78, 066501 (2015).             %
     %   D.C. Langreth et al., J. Phys.: Condens. Matter 21, 084203 (2009). %
     %                                                                      %
     %                                                                      %
     % If you are calculating the stress with vdW-DF, please also cite:     %
     %                                                                      %
     %   R. Sabatini et al., J. Phys.: Condens. Matter 24, 424209 (2012).   %
     %                                                                      %
     %%%%%%%%%%%%%%%%%%%%%%%%%%%%%%%%%%%%%%%%%%%%%%%%%%%%%%%%%%%%%%%%%%%%%%%%


     Starting wfcs are  335 randomized atomic wfcs
     Checking if some PAW data can be deallocated... 

     total cpu time spent up to now is      315.6 secs

     Self-consistent Calculation

     iteration #  1     ecut=    60.00 Ry     beta= 0.70
     Davidson diagonalization with overlap
     ethr =  1.00E-02,  avg # of iterations =  2.0

     Threshold (ethr) on eigenvalues was too large:
     Diagonalizing with lowered threshold

     Davidson diagonalization with overlap
     ethr =  7.79E-04,  avg # of iterations =  2.6

     negative rho (up, down):  1.255E-02 0.000E+00

     total cpu time spent up to now is     1507.8 secs

     total energy              =  -27795.58389330 Ry
     estimated scf accuracy    <       3.18098300 Ry

     iteration #  2     ecut=    60.00 Ry     beta= 0.70
     Davidson diagonalization with overlap
     ethr =  8.57E-04,  avg # of iterations =  2.0

     negative rho (up, down):  1.052E-02 0.000E+00

     total cpu time spent up to now is     2070.8 secs

     total energy              =  -27795.78126689 Ry
     estimated scf accuracy    <       1.33954700 Ry

     iteration #  3     ecut=    60.00 Ry     beta= 0.70
     Davidson diagonalization with overlap
     ethr =  3.61E-04,  avg # of iterations =  1.9

     negative rho (up, down):  7.953E-03 0.000E+00

     total cpu time spent up to now is     2612.2 secs

     total energy              =  -27795.84570416 Ry
     estimated scf accuracy    <       0.52592857 Ry

     iteration #  4     ecut=    60.00 Ry     beta= 0.70
     Davidson diagonalization with overlap
     ethr =  1.42E-04,  avg # of iterations = 10.5

     negative rho (up, down):  6.194E-03 0.000E+00

     total cpu time spent up to now is     3293.4 secs

     total energy              =  -27795.89314400 Ry
     estimated scf accuracy    <       0.19746765 Ry

     iteration #  5     ecut=    60.00 Ry     beta= 0.70
     Davidson diagonalization with overlap
     c_bands:  2 eigenvalues not converged
     ethr =  5.32E-05,  avg # of iterations =  6.7

     negative rho (up, down):  4.514E-03 0.000E+00

     total cpu time spent up to now is     3944.4 secs

     total energy              =  -27795.91138914 Ry
     estimated scf accuracy    <       0.05168289 Ry

     iteration #  6     ecut=    60.00 Ry     beta= 0.70
     Davidson diagonalization with overlap
     ethr =  1.39E-05,  avg # of iterations = 11.2

     negative rho (up, down):  3.758E-03 0.000E+00

     total cpu time spent up to now is     4749.3 secs

     total energy              =  -27795.92039957 Ry
     estimated scf accuracy    <       0.00769195 Ry

     iteration #  7     ecut=    60.00 Ry     beta= 0.70
     Davidson diagonalization with overlap
     c_bands:  1 eigenvalues not converged
     c_bands:  2 eigenvalues not converged
     c_bands:  1 eigenvalues not converged
     c_bands:  2 eigenvalues not converged
     ethr =  2.07E-06,  avg # of iterations = 13.9

     negative rho (up, down):  3.645E-03 0.000E+00

     total cpu time spent up to now is     5644.0 secs

     total energy              =  -27795.92272539 Ry
     estimated scf accuracy    <       0.00226533 Ry

     iteration #  8     ecut=    60.00 Ry     beta= 0.70
     Davidson diagonalization with overlap
     c_bands:  1 eigenvalues not converged
     c_bands:  2 eigenvalues not converged
     c_bands:  2 eigenvalues not converged
     ethr =  6.11E-07,  avg # of iterations =  7.1

     negative rho (up, down):  3.737E-03 0.000E+00

     total cpu time spent up to now is     6266.1 secs

     total energy              =  -27795.92302169 Ry
     estimated scf accuracy    <       0.00170620 Ry

     iteration #  9     ecut=    60.00 Ry     beta= 0.70
     Davidson diagonalization with overlap
     ethr =  4.60E-07,  avg # of iterations =  4.6

     negative rho (up, down):  4.299E-03 0.000E+00

     total cpu time spent up to now is     6785.3 secs

     total energy              =  -27795.92313769 Ry
     estimated scf accuracy    <       0.00104928 Ry

     iteration # 10     ecut=    60.00 Ry     beta= 0.70
     Davidson diagonalization with overlap
     ethr =  2.83E-07,  avg # of iterations =  4.8

     negative rho (up, down):  5.186E-03 0.000E+00

     total cpu time spent up to now is     7329.5 secs

     total energy              =  -27795.92316266 Ry
     estimated scf accuracy    <       0.00091601 Ry

     iteration # 11     ecut=    60.00 Ry     beta= 0.70
     Davidson diagonalization with overlap
     c_bands:  1 eigenvalues not converged
     ethr =  2.47E-07,  avg # of iterations =  5.4

     negative rho (up, down):  8.492E-03 0.000E+00

     total cpu time spent up to now is     7891.3 secs

     total energy              =  -27795.92312030 Ry
     estimated scf accuracy    <       0.00062876 Ry

     iteration # 12     ecut=    60.00 Ry     beta= 0.70
     Davidson diagonalization with overlap
     ethr =  1.69E-07,  avg # of iterations =  3.6

     negative rho (up, down):  1.023E-02 0.000E+00

     total cpu time spent up to now is     8506.9 secs

     total energy              =  -27795.92314084 Ry
     estimated scf accuracy    <       0.00018674 Ry

     iteration # 13     ecut=    60.00 Ry     beta= 0.70
     Davidson diagonalization with overlap
     ethr =  5.03E-08,  avg # of iterations =  2.0

     negative rho (up, down):  1.116E-02 0.000E+00

     total cpu time spent up to now is     9059.4 secs

     total energy              =  -27795.92315874 Ry
     estimated scf accuracy    <       0.00008250 Ry

     iteration # 14     ecut=    60.00 Ry     beta= 0.70
     Davidson diagonalization with overlap
     ethr =  2.22E-08,  avg # of iterations =  3.2

     negative rho (up, down):  1.142E-02 0.000E+00

     total cpu time spent up to now is     9659.4 secs

     total energy              =  -27795.92317649 Ry
     estimated scf accuracy    <       0.00004290 Ry

     iteration # 15     ecut=    60.00 Ry     beta= 0.70
     Davidson diagonalization with overlap
     ethr =  1.16E-08,  avg # of iterations =  2.2

     negative rho (up, down):  1.212E-02 0.000E+00

     total cpu time spent up to now is    10221.2 secs

     total energy              =  -27795.92318077 Ry
     estimated scf accuracy    <       0.00001269 Ry

     iteration # 16     ecut=    60.00 Ry     beta= 0.70
     Davidson diagonalization with overlap
     ethr =  3.42E-09,  avg # of iterations =  4.0

     negative rho (up, down):  1.246E-02 0.000E+00

     total cpu time spent up to now is    10908.4 secs

     total energy              =  -27795.92318308 Ry
     estimated scf accuracy    <       0.00000340 Ry

     iteration # 17     ecut=    60.00 Ry     beta= 0.70
     Davidson diagonalization with overlap
     ethr =  9.18E-10,  avg # of iterations =  4.2

     negative rho (up, down):  1.246E-02 0.000E+00

     total cpu time spent up to now is    11640.3 secs

     total energy              =  -27795.92318415 Ry
     estimated scf accuracy    <       0.00000290 Ry

     iteration # 18     ecut=    60.00 Ry     beta= 0.70
     Davidson diagonalization with overlap
     ethr =  7.81E-10,  avg # of iterations =  1.0

     negative rho (up, down):  1.262E-02 0.000E+00

     total cpu time spent up to now is    12110.0 secs

     total energy              =  -27795.92318386 Ry
     estimated scf accuracy    <       0.00000116 Ry

     iteration # 19     ecut=    60.00 Ry     beta= 0.70
     Davidson diagonalization with overlap
     ethr =  3.14E-10,  avg # of iterations =  1.7

     negative rho (up, down):  1.281E-02 0.000E+00

     total cpu time spent up to now is    12612.8 secs

     total energy              =  -27795.92318354 Ry
     estimated scf accuracy    <       0.00000109 Ry

     iteration # 20     ecut=    60.00 Ry     beta= 0.70
     Davidson diagonalization with overlap
     ethr =  2.95E-10,  avg # of iterations =  1.0

     negative rho (up, down):  1.285E-02 0.000E+00

     total cpu time spent up to now is    13064.3 secs

     End of self-consistent calculation

          k = 0.0000 0.0000 0.0000 ( 87531 PWs)   bands (ev):

   -12.6093  -8.3355  -6.6798  -5.5257  -5.1363  -4.5859  -4.3646  -4.2930
    -4.2780  -4.2594  -4.2519  -4.2358  -4.2165  -4.1808  -3.7992  -3.7215
    -3.7126  -3.7006  -3.6994  -3.6958  -3.5601  -3.2784  -3.2600  -3.2557
    -3.2308  -3.2068  -3.1319  -3.0549  -3.0481  -3.0350  -3.0038  -2.9960
    -2.9339  -2.8446  -2.8330  -2.8257  -2.8157  -2.7839  -2.7626  -2.7607
    -2.7549  -2.7446  -2.7262  -2.7158  -2.5151  -2.2995  -2.2532  -2.1938
    -2.1923  -2.1666  -2.1536  -2.1323  -2.1089  -2.0992  -1.9689  -1.9631
    -1.9584  -1.9135  -1.9098  -1.5469  -1.5130  -1.4455  -1.3827  -1.3762
    -1.3702  -1.3193  -1.2728  -1.2420  -1.2218  -1.1914  -1.1784  -1.1739
    -1.1701  -1.1695  -1.1485  -1.1455  -1.1320  -1.1193  -1.1076  -1.0906
    -1.0714  -1.0493  -1.0456  -0.9862  -0.9772  -0.9701  -0.9208  -0.8218
    -0.7869  -0.7829  -0.7718  -0.7479  -0.7303  -0.7130  -0.7103  -0.6750
    -0.6442  -0.6382  -0.6052  -0.5850  -0.5722  -0.5672  -0.5388  -0.5337
    -0.4993  -0.4973  -0.4907  -0.3667  -0.3395  -0.3198  -0.3034  -0.2356
    -0.1756  -0.0779   0.1130   0.1139   0.1290   0.1571   0.1586   0.1605
     0.1655   0.2427   0.2686   0.2876   0.3142   0.3363   0.3489   0.3983
     0.4146   0.4419   0.4520   0.4675   0.5057   0.5412   0.6091   0.6406
     0.6479   0.6715   0.6792   0.8569   0.8624   0.8710   0.9021   0.9034
     0.9260   0.9501   0.9515   1.0087   1.1410   1.1490   1.1513   1.1975
     1.2024   1.2523   1.2542   1.2975   1.3014   1.3238   1.3259   1.3404
     1.3445   1.3597   1.3597   1.3815   1.3848   1.3947   1.4289   1.4361
     1.4586   1.4659   1.4746   1.5273   1.5291   1.5730   1.5791   1.5797
     1.6075   1.6182   1.6488   1.6550   1.7015   1.7020   1.7164   1.7210
     1.7266   1.7463   1.7682   1.7841   1.8228   1.8431   1.8584   1.8608
     1.9937   2.0124   2.1141   2.1261   2.1307   2.1487   2.1503   2.1775
     2.4828   2.5356   2.7397   2.9557   3.0100   3.0494   3.0616   3.9217
     4.2508   4.7653   5.3063   5.3275   5.3279   5.8402   5.9734   6.1382
     6.6935   6.8330   6.9573   6.9686   6.9778   6.9946   7.0328

          k = 0.0000 0.2309 0.0000 ( 87396 PWs)   bands (ev):

   -12.6090  -8.3345  -6.5344  -5.4265  -5.0913  -4.7856  -4.5483  -4.3779
    -4.3445  -4.2194  -4.1407  -4.0496  -4.0227  -4.0005  -3.8351  -3.7937
    -3.7314  -3.6481  -3.6349  -3.6327  -3.4868  -3.3341  -3.2316  -3.2087
    -3.1937  -3.1780  -3.1235  -3.1057  -3.0792  -3.0257  -3.0177  -2.9953
    -2.9692  -2.9240  -2.9145  -2.8461  -2.8250  -2.8138  -2.7861  -2.7038
    -2.6149  -2.5876  -2.5764  -2.5673  -2.4928  -2.3610  -2.3166  -2.2963
    -2.2486  -2.2287  -2.2144  -2.1388  -2.0562  -2.0054  -1.9939  -1.9568
    -1.9232  -1.8933  -1.8651  -1.6911  -1.6180  -1.5646  -1.5322  -1.5185
    -1.4766  -1.4512  -1.4199  -1.3931  -1.3461  -1.3382  -1.3335  -1.2753
    -1.2565  -1.2414  -1.2014  -1.1815  -1.1422  -1.1110  -1.0792  -1.0603
    -1.0327  -1.0026  -0.9869  -0.9652  -0.9490  -0.9168  -0.8793  -0.8649
    -0.8305  -0.8081  -0.7894  -0.7757  -0.7631  -0.7332  -0.7116  -0.6808
    -0.6684  -0.6438  -0.6136  -0.6051  -0.5856  -0.5740  -0.5402  -0.5245
    -0.4769  -0.4731  -0.4510  -0.4044  -0.3846  -0.3493  -0.3184  -0.2923
    -0.2654  -0.2569  -0.2463  -0.2339  -0.1677  -0.1029   0.0117   0.0820
     0.1106   0.1316   0.1632   0.1804   0.1841   0.2267   0.3065   0.3366
     0.3946   0.4195   0.4512   0.4928   0.5117   0.5579   0.5823   0.5932
     0.6277   0.6580   0.6710   0.7313   0.7539   0.7779   0.7896   0.7973
     0.8675   0.9574   0.9624   0.9764   1.0021   1.0255   1.0419   1.0934
     1.1170   1.1576   1.1676   1.1995   1.2472   1.2574   1.2817   1.3073
     1.3439   1.3775   1.4051   1.4268   1.4607   1.4887   1.5005   1.5415
     1.5749   1.5840   1.6505   1.6612   1.6772   1.6988   1.7272   1.7480
     1.7698   1.7892   1.8043   1.8170   1.8380   1.8712   1.8741   1.9787
     1.9939   2.0267   2.0391   2.0636   2.0773   2.1014   2.1245   2.1268
     2.1438   2.1683   2.2601   2.2724   2.2896   2.3429   2.4231   2.4548
     2.4741   2.6954   2.8071   3.0725   3.3760   3.5984   3.6593   3.9121
     4.2939   4.7481   4.9918   5.3541   5.6109   5.7985   5.8536   6.0948
     6.2168   6.3563   6.7292   6.7987   6.8924   6.9412   7.1442

          k = 0.0000 0.4619 0.0000 ( 87406 PWs)   bands (ev):

   -12.6085  -8.3330  -6.1165  -5.4997  -5.2582  -4.8410  -4.5573  -4.4095
    -4.3848  -4.2600  -4.0180  -3.8833  -3.8760  -3.7627  -3.6853  -3.6740
    -3.6119  -3.5413  -3.4808  -3.4624  -3.4475  -3.4085  -3.3068  -3.2914
    -3.2733  -3.2431  -3.2340  -3.2134  -3.1489  -3.1122  -3.0949  -3.0703
    -2.8801  -2.8742  -2.8372  -2.8314  -2.8128  -2.7762  -2.6203  -2.6090
    -2.5890  -2.5770  -2.5515  -2.5461  -2.3916  -2.3203  -2.3014  -2.2603
    -2.2503  -2.2156  -2.1812  -2.1495  -2.1145  -2.1023  -2.0763  -2.0095
    -1.9331  -1.9139  -1.8868  -1.8519  -1.7817  -1.7467  -1.7075  -1.7062
    -1.6339  -1.5569  -1.5257  -1.4946  -1.4839  -1.4503  -1.4131  -1.4001
    -1.3592  -1.3371  -1.2953  -1.2462  -1.2285  -1.1824  -1.1644  -1.1266
    -1.0998  -1.0759  -1.0574  -1.0296  -1.0164  -0.9834  -0.9719  -0.9611
    -0.9327  -0.9222  -0.8988  -0.8710  -0.8528  -0.8053  -0.7865  -0.7756
    -0.7602  -0.7180  -0.6843  -0.6594  -0.6113  -0.5904  -0.5657  -0.5432
    -0.5257  -0.4953  -0.4390  -0.4034  -0.3887  -0.3394  -0.2971  -0.2637
    -0.2394  -0.2054  -0.1734  -0.1187  -0.0839  -0.0144   0.0014   0.0274
     0.0480   0.0866   0.1065   0.1244   0.1594   0.1810   0.1912   0.2021
     0.2140   0.2633   0.2765   0.2950   0.3488   0.3691   0.4048   0.4484
     0.4710   0.5039   0.5325   0.5994   0.6609   0.6867   0.7153   0.7736
     0.8478   0.8586   0.9281   0.9431   0.9655   0.9935   1.0299   1.0500
     1.0731   1.1102   1.1432   1.1562   1.1986   1.2424   1.2895   1.3018
     1.3094   1.3231   1.3616   1.4270   1.4709   1.5147   1.5718   1.5831
     1.6062   1.6514   1.6841   1.7112   1.7223   1.7647   1.8096   1.8314
     1.8774   1.8893   1.9041   1.9640   2.0039   2.0294   2.0394   2.0568
     2.0625   2.0921   2.1252   2.2601   2.2724   2.2881   2.3148   2.3226
     2.4142   2.5403   2.5594   2.7373   2.8235   3.0038   3.3205   3.3601
     3.4169   3.5865   3.6887   3.8964   3.9754   4.1541   4.3882   4.5851
     4.5982   4.6884   4.7571   4.8752   4.9857   5.1829   5.2829   5.4966
     5.7188   5.9330   6.2136   6.4626   6.6026   6.8664   7.0218

          k = 0.2000-0.1155 0.0000 ( 87396 PWs)   bands (ev):

   -12.6090  -8.3366  -6.5333  -5.4265  -5.0835  -4.7690  -4.5829  -4.3756
    -4.3258  -4.2273  -4.1416  -4.0654  -4.0143  -3.9900  -3.9024  -3.7948
    -3.6515  -3.6478  -3.6339  -3.6313  -3.5557  -3.3251  -3.2304  -3.2137
    -3.2086  -3.1433  -3.1218  -3.0922  -3.0843  -3.0521  -3.0212  -3.0206
    -2.9290  -2.9129  -2.9069  -2.8486  -2.8211  -2.7954  -2.7788  -2.6380
    -2.6233  -2.5947  -2.5798  -2.5706  -2.4727  -2.3610  -2.3241  -2.2889
    -2.2635  -2.2542  -2.2172  -2.1445  -2.0487  -2.0422  -1.9506  -1.9482
    -1.9146  -1.9105  -1.8676  -1.6670  -1.6030  -1.6026  -1.5170  -1.5164
    -1.4773  -1.4502  -1.4216  -1.3947  -1.3453  -1.3390  -1.3237  -1.2905
    -1.2492  -1.2355  -1.2189  -1.1737  -1.1349  -1.1278  -1.0797  -1.0489
    -1.0444  -0.9941  -0.9818  -0.9535  -0.9529  -0.9093  -0.8792  -0.8572
    -0.8206  -0.8125  -0.7845  -0.7713  -0.7446  -0.7353  -0.7178  -0.6927
    -0.6579  -0.6312  -0.6302  -0.6033  -0.5969  -0.5868  -0.5594  -0.5423
    -0.5095  -0.4644  -0.4599  -0.3953  -0.3821  -0.3459  -0.3171  -0.3049
    -0.2691  -0.2517  -0.2513  -0.2276  -0.2052  -0.1138   0.0644   0.0776
     0.0827   0.1270   0.1594   0.1863   0.1880   0.2179   0.2776   0.3300
     0.3580   0.4282   0.4300   0.4898   0.5048   0.5577   0.5798   0.5898
     0.6329   0.6660   0.6681   0.7150   0.7600   0.7615   0.7920   0.7971
     0.9180   0.9463   0.9468   0.9601   0.9925   1.0110   1.0707   1.0851
     1.1236   1.1584   1.1619   1.1985   1.2302   1.2563   1.2893   1.3002
     1.3432   1.3815   1.4064   1.4260   1.4811   1.4999   1.5124   1.5331
     1.5752   1.5909   1.6629   1.6667   1.6918   1.6966   1.7456   1.7472
     1.7786   1.7859   1.8089   1.8181   1.8354   1.8769   1.8777   1.9899
     2.0104   2.0205   2.0478   2.0555   2.0788   2.1009   2.1102   2.1341
     2.1431   2.1619   2.2633   2.2867   2.2896   2.4055   2.4452   2.4454
     2.4777   2.6444   2.7301   3.1810   3.3267   3.5885   3.6935   4.0695
     4.1165   4.6789   5.0840   5.3017   5.6550   5.7977   5.8957   6.1446
     6.1465   6.3334   6.7627   6.7816   6.8861   6.9436   7.0948

          k = 0.2000 0.1155 0.0000 ( 87396 PWs)   bands (ev):

   -12.6090  -8.3345  -6.5344  -5.4265  -5.0914  -4.7853  -4.5484  -4.3778
    -4.3451  -4.2190  -4.1406  -4.0493  -4.0227  -4.0008  -3.8355  -3.7938
    -3.7315  -3.6476  -3.6346  -3.6326  -3.4869  -3.3342  -3.2316  -3.2086
    -3.1937  -3.1784  -3.1236  -3.1056  -3.0788  -3.0255  -3.0178  -2.9952
    -2.9695  -2.9242  -2.9145  -2.8460  -2.8251  -2.8138  -2.7860  -2.7038
    -2.6150  -2.5875  -2.5765  -2.5674  -2.4927  -2.3610  -2.3167  -2.2963
    -2.2485  -2.2289  -2.2144  -2.1388  -2.0563  -2.0057  -1.9939  -1.9566
    -1.9229  -1.8933  -1.8653  -1.6915  -1.6180  -1.5646  -1.5328  -1.5186
    -1.4769  -1.4512  -1.4197  -1.3929  -1.3458  -1.3383  -1.3331  -1.2756
    -1.2566  -1.2413  -1.2016  -1.1815  -1.1418  -1.1106  -1.0791  -1.0602
    -1.0324  -1.0027  -0.9870  -0.9654  -0.9488  -0.9173  -0.8795  -0.8648
    -0.8306  -0.8081  -0.7894  -0.7755  -0.7629  -0.7332  -0.7117  -0.6806
    -0.6683  -0.6442  -0.6132  -0.6048  -0.5855  -0.5740  -0.5402  -0.5245
    -0.4769  -0.4732  -0.4512  -0.4046  -0.3846  -0.3492  -0.3185  -0.2922
    -0.2653  -0.2570  -0.2463  -0.2335  -0.1683  -0.1028   0.0116   0.0817
     0.1106   0.1316   0.1633   0.1806   0.1841   0.2265   0.3065   0.3369
     0.3947   0.4199   0.4510   0.4930   0.5118   0.5580   0.5825   0.5932
     0.6277   0.6581   0.6714   0.7315   0.7539   0.7781   0.7895   0.7973
     0.8674   0.9575   0.9625   0.9764   1.0020   1.0252   1.0420   1.0934
     1.1169   1.1574   1.1675   1.1994   1.2473   1.2574   1.2816   1.3072
     1.3438   1.3775   1.4052   1.4269   1.4607   1.4887   1.5005   1.5414
     1.5750   1.5842   1.6506   1.6613   1.6772   1.6989   1.7272   1.7480
     1.7698   1.7891   1.8043   1.8171   1.8379   1.8714   1.8743   1.9787
     1.9940   2.0268   2.0391   2.0635   2.0772   2.1013   2.1243   2.1267
     2.1436   2.1682   2.2601   2.2723   2.2896   2.3429   2.4233   2.4547
     2.4739   2.6958   2.8069   3.0716   3.3767   3.5983   3.6590   3.9122
     4.2952   4.7477   4.9906   5.3545   5.6109   5.7985   5.8536   6.0953
     6.2174   6.3559   6.7292   6.7989   6.8929   6.9416   7.1443

          k = 0.2000 0.3464 0.0000 ( 87418 PWs)   bands (ev):

   -12.6086  -8.3326  -6.2528  -5.3192  -5.0437  -5.0294  -4.8971  -4.5171
    -4.0218  -3.9628  -3.9420  -3.9197  -3.8979  -3.8802  -3.8716  -3.8429
    -3.7534  -3.7470  -3.5216  -3.3886  -3.3673  -3.3590  -3.3036  -3.2763
    -3.2629  -3.1430  -3.1394  -3.1320  -3.0880  -3.0665  -3.0203  -2.9781
    -2.9678  -2.9298  -2.9049  -2.8811  -2.8623  -2.8286  -2.8064  -2.7664
    -2.7113  -2.4936  -2.4418  -2.4076  -2.3996  -2.3538  -2.3208  -2.3118
    -2.2609  -2.2364  -2.1986  -2.1018  -2.0857  -2.0472  -1.9957  -1.9658
    -1.9145  -1.8880  -1.8700  -1.8637  -1.8117  -1.6808  -1.6552  -1.6357
    -1.5782  -1.5499  -1.5060  -1.4817  -1.4608  -1.4344  -1.4292  -1.4041
    -1.3617  -1.2762  -1.2527  -1.2391  -1.2189  -1.2038  -1.1522  -1.1227
    -1.0906  -1.0649  -1.0310  -0.9974  -0.9908  -0.9654  -0.9439  -0.8990
    -0.8821  -0.8775  -0.8433  -0.8274  -0.8013  -0.7550  -0.7487  -0.7183
    -0.6806  -0.6679  -0.6514  -0.6351  -0.6113  -0.5846  -0.5601  -0.5350
    -0.5178  -0.5080  -0.4946  -0.4593  -0.4506  -0.4274  -0.4025  -0.3686
    -0.3265  -0.2838  -0.2300  -0.2123  -0.1833  -0.1237  -0.0741   0.0064
     0.0322   0.0633   0.1345   0.1395   0.1838   0.2104   0.2130   0.2407
     0.2529   0.2981   0.3361   0.3753   0.4172   0.4448   0.4910   0.5479
     0.5729   0.5941   0.6051   0.6431   0.6915   0.7054   0.7330   0.8033
     0.8317   0.8605   0.8779   0.9186   0.9486   1.0029   1.0289   1.0587
     1.0774   1.1090   1.1147   1.1477   1.1550   1.1681   1.2042   1.2488
     1.2819   1.3550   1.3680   1.4144   1.4677   1.5782   1.6117   1.6265
     1.6834   1.7151   1.7477   1.8015   1.8133   1.8409   1.8451   1.8732
     1.8978   1.9105   1.9153   1.9471   1.9629   1.9802   2.0274   2.0598
     2.0852   2.0996   2.1258   2.1703   2.2341   2.2670   2.3275   2.3615
     2.3672   2.4179   2.4480   2.5481   2.5636   2.6457   3.0335   3.1110
     3.2167   3.4676   3.5511   3.6501   3.6806   3.9111   4.2054   4.4159
     4.5457   4.5680   4.8027   4.9488   5.2755   5.6022   5.7819   5.9360
     6.0317   6.2848   6.4453   6.5153   6.5346   6.6399   6.6533

          k = 0.2000-0.5774 0.0000 ( 87468 PWs)   bands (ev):

   -12.6083  -8.3335  -5.7327  -5.7178  -5.2578  -5.0798  -4.6488  -4.4680
    -4.3721  -4.0063  -3.9174  -3.8002  -3.7739  -3.7262  -3.6473  -3.6215
    -3.5593  -3.5298  -3.4570  -3.4297  -3.4252  -3.4011  -3.3857  -3.3577
    -3.2979  -3.2318  -3.2182  -3.2019  -3.1873  -3.1500  -3.1084  -3.0094
    -2.9614  -2.9152  -2.8689  -2.8225  -2.8105  -2.7821  -2.7635  -2.7052
    -2.6516  -2.5978  -2.5830  -2.4084  -2.3837  -2.3660  -2.3056  -2.2351
    -2.2104  -2.1571  -2.1136  -2.0593  -2.0320  -1.9975  -1.9912  -1.9412
    -1.9130  -1.8811  -1.8302  -1.8006  -1.7802  -1.7697  -1.7490  -1.7260
    -1.7100  -1.6652  -1.6475  -1.5851  -1.5481  -1.5064  -1.4606  -1.4550
    -1.3930  -1.3542  -1.3241  -1.3098  -1.2680  -1.2560  -1.2348  -1.2074
    -1.1875  -1.1511  -1.1231  -1.0921  -1.0753  -1.0546  -1.0083  -0.9322
    -0.9222  -0.9013  -0.8936  -0.8731  -0.7960  -0.7546  -0.7249  -0.7060
    -0.6880  -0.6613  -0.6383  -0.6242  -0.6009  -0.5936  -0.5739  -0.5617
    -0.5441  -0.5114  -0.4805  -0.4687  -0.4614  -0.4430  -0.4356  -0.4209
    -0.3703  -0.3380  -0.2481  -0.1953  -0.1317  -0.0954  -0.0726  -0.0198
     0.0216   0.0306   0.0759   0.0914   0.1218   0.1360   0.1644   0.2132
     0.2278   0.2644   0.2895   0.3173   0.3524   0.4072   0.4368   0.5003
     0.5197   0.5870   0.6085   0.6661   0.6993   0.7182   0.7396   0.7673
     0.8014   0.8376   0.8599   0.8812   0.8885   0.9110   0.9542   0.9840
     1.0325   1.0528   1.0656   1.1013   1.1214   1.1494   1.2238   1.2546
     1.3463   1.3851   1.4311   1.4968   1.5352   1.5610   1.5950   1.6370
     1.6609   1.7333   1.7513   1.8174   1.8343   1.8520   1.8711   1.8930
     1.9171   1.9404   2.0105   2.0249   2.0350   2.0557   2.0677   2.0876
     2.0947   2.1784   2.2258   2.2699   2.3040   2.3199   2.3305   2.3686
     2.3851   2.4903   2.5976   3.0359   3.0831   3.3830   3.4767   3.5334
     3.7284   3.8174   3.8421   3.9642   4.1348   4.4161   4.4984   4.5374
     4.6405   4.9549   5.0286   5.0674   5.1525   5.2495   5.3639   5.4201
     5.5829   5.8111   5.8858   5.9516   6.3538   6.5119   6.5722

          k = 0.2000-0.3464 0.0000 ( 87418 PWs)   bands (ev):

   -12.6086  -8.3360  -6.2501  -5.3190  -5.0406  -5.0171  -4.8954  -4.5297
    -4.0467  -3.9668  -3.9564  -3.9286  -3.9056  -3.8808  -3.8696  -3.8337
    -3.7588  -3.7373  -3.5116  -3.3948  -3.3810  -3.3572  -3.3391  -3.2777
    -3.2595  -3.1490  -3.1408  -3.1179  -3.0948  -3.0384  -3.0186  -2.9747
    -2.9642  -2.9405  -2.9066  -2.8744  -2.8668  -2.8318  -2.7881  -2.7158
    -2.6311  -2.4792  -2.4103  -2.4007  -2.3740  -2.3440  -2.3180  -2.3018
    -2.2806  -2.2504  -2.2183  -2.1295  -2.0941  -2.0505  -1.9829  -1.9588
    -1.9372  -1.8924  -1.8701  -1.8440  -1.8106  -1.7115  -1.6481  -1.6257
    -1.5822  -1.5462  -1.5097  -1.4995  -1.4774  -1.4465  -1.4210  -1.3916
    -1.3292  -1.2712  -1.2549  -1.2377  -1.2230  -1.1885  -1.1550  -1.1335
    -1.0922  -1.0754  -1.0569  -1.0186  -0.9742  -0.9527  -0.9209  -0.9140
    -0.8904  -0.8744  -0.8473  -0.8304  -0.8164  -0.7766  -0.7704  -0.7147
    -0.6799  -0.6660  -0.6468  -0.6182  -0.6123  -0.5981  -0.5531  -0.5385
    -0.5246  -0.5054  -0.4901  -0.4819  -0.4562  -0.4243  -0.3910  -0.3618
    -0.3424  -0.3230  -0.2324  -0.2104  -0.1681  -0.1247  -0.0558  -0.0020
     0.0183   0.0631   0.1104   0.1424   0.1663   0.1961   0.2095   0.2288
     0.2711   0.2997   0.3198   0.3418   0.3912   0.4488   0.4937   0.5431
     0.5642   0.5854   0.5998   0.6507   0.6991   0.7194   0.7775   0.8043
     0.8293   0.8665   0.8916   0.9239   0.9433   0.9914   1.0204   1.0482
     1.0692   1.1066   1.1299   1.1414   1.1567   1.1608   1.1991   1.2273
     1.2884   1.3541   1.3934   1.4275   1.4774   1.5523   1.6232   1.6542
     1.6796   1.7204   1.7561   1.7929   1.8060   1.8369   1.8425   1.8831
     1.8990   1.9093   1.9172   1.9469   1.9606   1.9821   2.0328   2.0668
     2.0833   2.1001   2.1264   2.1673   2.2267   2.2689   2.3172   2.3573
     2.3696   2.4099   2.4423   2.5379   2.5673   2.7178   3.0662   3.1174
     3.1868   3.4735   3.5580   3.6562   3.7011   4.0395   4.1563   4.4491
     4.5039   4.5939   4.6769   5.0169   5.3176   5.5238   5.7762   5.9164
     6.0894   6.1935   6.5058   6.5267   6.5400   6.5983   6.6740

          k = 0.4000-0.2309 0.0000 ( 87406 PWs)   bands (ev):

   -12.6085  -8.3384  -6.1129  -5.4928  -5.2582  -4.8125  -4.5754  -4.4101
    -4.3562  -4.3130  -4.0566  -3.9098  -3.8732  -3.7637  -3.6782  -3.6613
    -3.5975  -3.5327  -3.5274  -3.4576  -3.4571  -3.4372  -3.3363  -3.2864
    -3.2824  -3.2423  -3.2368  -3.2215  -3.1554  -3.1102  -3.1030  -2.8895
    -2.8827  -2.8605  -2.8401  -2.8178  -2.8147  -2.7061  -2.6188  -2.5918
    -2.5772  -2.5743  -2.5598  -2.4831  -2.3905  -2.3013  -2.2992  -2.2645
    -2.2568  -2.2322  -2.2023  -2.1375  -2.1099  -2.0954  -2.0827  -2.0483
    -1.9351  -1.9184  -1.8821  -1.8509  -1.7669  -1.7351  -1.7005  -1.6889
    -1.6586  -1.5683  -1.5325  -1.5166  -1.4761  -1.4410  -1.4195  -1.4101
    -1.3602  -1.3573  -1.3118  -1.2642  -1.2244  -1.1647  -1.1566  -1.1327
    -1.0963  -1.0879  -1.0406  -1.0292  -1.0094  -0.9872  -0.9815  -0.9558
    -0.9312  -0.9260  -0.8954  -0.8545  -0.8507  -0.8033  -0.7851  -0.7782
    -0.7713  -0.7129  -0.7060  -0.6732  -0.6196  -0.6011  -0.5683  -0.5319
    -0.5167  -0.5101  -0.4704  -0.4106  -0.3645  -0.3406  -0.3005  -0.2852
    -0.2600  -0.2285  -0.2244  -0.1300  -0.0631  -0.0143  -0.0125   0.0227
     0.0530   0.0768   0.1012   0.1107   0.1511   0.1628   0.1934   0.2150
     0.2560   0.2574   0.2794   0.2819   0.3139   0.3266   0.4027   0.4507
     0.4564   0.4844   0.5693   0.6075   0.6592   0.6942   0.7456   0.7618
     0.8305   0.8580   0.9070   0.9395   0.9457   0.9988   1.0251   1.0345
     1.0723   1.1093   1.1272   1.1589   1.1960   1.2390   1.2796   1.2931
     1.3158   1.3475   1.3621   1.3829   1.4821   1.5140   1.5689   1.5952
     1.6247   1.6588   1.6898   1.7140   1.7228   1.7744   1.8044   1.8723
     1.8797   1.8961   1.9005   1.9827   1.9966   2.0352   2.0447   2.0554
     2.0646   2.0940   2.1231   2.2546   2.2783   2.2888   2.3144   2.3200
     2.4258   2.5411   2.5586   2.7174   2.9496   3.0285   3.3386   3.3608
     3.5494   3.5923   3.6376   3.7999   4.0574   4.1099   4.3823   4.5824
     4.6233   4.6456   4.7329   4.8849   5.0310   5.1971   5.3624   5.4221
     5.7038   5.9258   6.1674   6.4442   6.6694   6.8564   7.0042

          k = 0.4000-0.0000 0.0000 ( 87418 PWs)   bands (ev):

   -12.6086  -8.3360  -6.2501  -5.3191  -5.0407  -5.0171  -4.8952  -4.5297
    -4.0461  -3.9669  -3.9563  -3.9285  -3.9061  -3.8810  -3.8698  -3.8337
    -3.7589  -3.7372  -3.5112  -3.3945  -3.3806  -3.3572  -3.3391  -3.2776
    -3.2595  -3.1489  -3.1407  -3.1181  -3.0950  -3.0384  -3.0188  -2.9749
    -2.9641  -2.9405  -2.9067  -2.8745  -2.8667  -2.8317  -2.7881  -2.7154
    -2.6310  -2.4794  -2.4104  -2.4007  -2.3741  -2.3439  -2.3181  -2.3017
    -2.2807  -2.2505  -2.2185  -2.1295  -2.0942  -2.0505  -1.9829  -1.9590
    -1.9370  -1.8927  -1.8701  -1.8439  -1.8105  -1.7116  -1.6483  -1.6259
    -1.5826  -1.5462  -1.5099  -1.4996  -1.4775  -1.4468  -1.4215  -1.3916
    -1.3285  -1.2711  -1.2548  -1.2376  -1.2228  -1.1888  -1.1550  -1.1335
    -1.0917  -1.0753  -1.0561  -1.0186  -0.9743  -0.9527  -0.9208  -0.9141
    -0.8903  -0.8744  -0.8473  -0.8304  -0.8161  -0.7767  -0.7702  -0.7148
    -0.6797  -0.6659  -0.6470  -0.6182  -0.6124  -0.5981  -0.5530  -0.5386
    -0.5244  -0.5052  -0.4902  -0.4819  -0.4562  -0.4242  -0.3912  -0.3623
    -0.3424  -0.3230  -0.2325  -0.2103  -0.1680  -0.1243  -0.0560  -0.0017
     0.0182   0.0631   0.1103   0.1427   0.1667   0.1962   0.2094   0.2286
     0.2711   0.3000   0.3199   0.3416   0.3915   0.4486   0.4938   0.5435
     0.5642   0.5853   0.5998   0.6507   0.6993   0.7195   0.7776   0.8043
     0.8295   0.8664   0.8917   0.9238   0.9432   0.9914   1.0204   1.0483
     1.0689   1.1064   1.1298   1.1412   1.1566   1.1607   1.1989   1.2272
     1.2882   1.3541   1.3935   1.4277   1.4776   1.5521   1.6232   1.6542
     1.6796   1.7205   1.7561   1.7929   1.8060   1.8369   1.8425   1.8831
     1.8991   1.9094   1.9173   1.9470   1.9607   1.9820   2.0329   2.0669
     2.0834   2.1001   2.1264   2.1673   2.2264   2.2686   2.3169   2.3568
     2.3695   2.4097   2.4423   2.5379   2.5675   2.7179   3.0665   3.1175
     3.1882   3.4730   3.5560   3.6560   3.7010   4.0397   4.1567   4.4492
     4.5043   4.5939   4.6771   5.0170   5.3167   5.5235   5.7760   5.9165
     6.0896   6.1937   6.5062   6.5268   6.5402   6.5986   6.6739

          k = 0.4000 0.2309 0.0000 ( 87406 PWs)   bands (ev):

   -12.6085  -8.3330  -6.1164  -5.4997  -5.2583  -4.8411  -4.5575  -4.4094
    -4.3849  -4.2599  -4.0172  -3.8833  -3.8764  -3.7627  -3.6854  -3.6744
    -3.6115  -3.5409  -3.4809  -3.4623  -3.4474  -3.4084  -3.3069  -3.2915
    -3.2733  -3.2429  -3.2337  -3.2135  -3.1487  -3.1123  -3.0950  -3.0708
    -2.8799  -2.8743  -2.8372  -2.8314  -2.8130  -2.7763  -2.6203  -2.6091
    -2.5891  -2.5771  -2.5514  -2.5462  -2.3916  -2.3204  -2.3014  -2.2606
    -2.2502  -2.2156  -2.1811  -2.1499  -2.1144  -2.1023  -2.0762  -2.0094
    -1.9331  -1.9141  -1.8871  -1.8520  -1.7821  -1.7469  -1.7077  -1.7064
    -1.6341  -1.5576  -1.5260  -1.4944  -1.4839  -1.4501  -1.4131  -1.3997
    -1.3595  -1.3370  -1.2951  -1.2457  -1.2280  -1.1817  -1.1645  -1.1264
    -1.0996  -1.0760  -1.0575  -1.0298  -1.0162  -0.9834  -0.9720  -0.9612
    -0.9326  -0.9222  -0.8984  -0.8710  -0.8525  -0.8055  -0.7864  -0.7757
    -0.7603  -0.7180  -0.6844  -0.6595  -0.6110  -0.5905  -0.5655  -0.5431
    -0.5255  -0.4951  -0.4389  -0.4032  -0.3885  -0.3394  -0.2972  -0.2636
    -0.2395  -0.2048  -0.1740  -0.1187  -0.0839  -0.0144   0.0012   0.0274
     0.0478   0.0866   0.1063   0.1242   0.1591   0.1810   0.1914   0.2020
     0.2142   0.2635   0.2768   0.2951   0.3487   0.3694   0.4046   0.4485
     0.4713   0.5039   0.5328   0.5997   0.6612   0.6868   0.7154   0.7737
     0.8474   0.8583   0.9280   0.9430   0.9655   0.9937   1.0299   1.0498
     1.0728   1.1100   1.1431   1.1561   1.1986   1.2424   1.2895   1.3019
     1.3095   1.3231   1.3616   1.4271   1.4711   1.5146   1.5718   1.5832
     1.6063   1.6517   1.6841   1.7112   1.7223   1.7648   1.8097   1.8313
     1.8777   1.8896   1.9042   1.9642   2.0038   2.0291   2.0394   2.0568
     2.0625   2.0917   2.1249   2.2598   2.2724   2.2880   2.3145   2.3224
     2.4143   2.5403   2.5597   2.7374   2.8230   3.0037   3.3204   3.3600
     3.4166   3.5869   3.6889   3.8978   3.9746   4.1537   4.3875   4.5850
     4.5981   4.6883   4.7571   4.8751   4.9853   5.1829   5.2827   5.4975
     5.7187   5.9331   6.2131   6.4629   6.6032   6.8657   7.0220

          k = 0.4000-0.6928 0.0000 ( 87468 PWs)   bands (ev):

   -12.6083  -8.3335  -5.7326  -5.7179  -5.2578  -5.0799  -4.6491  -4.4674
    -4.3724  -4.0060  -3.9172  -3.8001  -3.7737  -3.7267  -3.6475  -3.6213
    -3.5593  -3.5296  -3.4570  -3.4296  -3.4252  -3.4010  -3.3857  -3.3578
    -3.2975  -3.2318  -3.2182  -3.2018  -3.1874  -3.1499  -3.1085  -3.0098
    -2.9615  -2.9153  -2.8690  -2.8222  -2.8105  -2.7823  -2.7636  -2.7053
    -2.6515  -2.5978  -2.5832  -2.4081  -2.3838  -2.3660  -2.3056  -2.2352
    -2.2104  -2.1573  -2.1134  -2.0591  -2.0319  -1.9975  -1.9913  -1.9414
    -1.9134  -1.8812  -1.8302  -1.8006  -1.7802  -1.7699  -1.7492  -1.7262
    -1.7099  -1.6654  -1.6476  -1.5855  -1.5482  -1.5064  -1.4609  -1.4551
    -1.3923  -1.3544  -1.3240  -1.3097  -1.2677  -1.2556  -1.2345  -1.2073
    -1.1877  -1.1512  -1.1231  -1.0916  -1.0752  -1.0547  -1.0079  -0.9323
    -0.9221  -0.9012  -0.8936  -0.8735  -0.7958  -0.7543  -0.7251  -0.7061
    -0.6879  -0.6615  -0.6383  -0.6241  -0.6006  -0.5933  -0.5737  -0.5616
    -0.5441  -0.5112  -0.4813  -0.4687  -0.4615  -0.4431  -0.4355  -0.4209
    -0.3700  -0.3377  -0.2483  -0.1951  -0.1316  -0.0955  -0.0725  -0.0200
     0.0216   0.0305   0.0759   0.0915   0.1219   0.1361   0.1643   0.2131
     0.2277   0.2646   0.2895   0.3172   0.3523   0.4071   0.4370   0.5002
     0.5200   0.5869   0.6087   0.6662   0.6995   0.7181   0.7395   0.7672
     0.8013   0.8374   0.8598   0.8811   0.8885   0.9110   0.9543   0.9839
     1.0326   1.0526   1.0655   1.1013   1.1214   1.1495   1.2240   1.2546
     1.3462   1.3851   1.4312   1.4967   1.5352   1.5610   1.5949   1.6369
     1.6610   1.7334   1.7513   1.8174   1.8344   1.8520   1.8712   1.8932
     1.9169   1.9404   2.0104   2.0249   2.0351   2.0557   2.0679   2.0876
     2.0950   2.1784   2.2258   2.2698   2.3038   2.3196   2.3302   2.3683
     2.3849   2.4903   2.5977   3.0348   3.0839   3.3837   3.4767   3.5336
     3.7284   3.8173   3.8423   3.9646   4.1334   4.4159   4.4984   4.5376
     4.6408   4.9545   5.0285   5.0674   5.1522   5.2490   5.3638   5.4205
     5.5829   5.8109   5.8859   5.9515   6.3539   6.5122   6.5726

          k = 0.4000-0.4619 0.0000 ( 87468 PWs)   bands (ev):

   -12.6083  -8.3369  -5.7310  -5.7113  -5.2547  -5.0923  -4.5615  -4.5054
    -4.4367  -3.9738  -3.9523  -3.7986  -3.7788  -3.7428  -3.6459  -3.6451
    -3.5589  -3.5304  -3.4799  -3.4319  -3.4153  -3.3989  -3.3848  -3.3542
    -3.2816  -3.2516  -3.2161  -3.2127  -3.1867  -3.1671  -3.0765  -2.9823
    -2.9589  -2.8720  -2.8529  -2.8153  -2.8104  -2.7944  -2.7045  -2.6900
    -2.6411  -2.5954  -2.5909  -2.4006  -2.3898  -2.3630  -2.2970  -2.2152
    -2.1991  -2.1770  -2.1112  -2.0689  -2.0435  -2.0087  -1.9746  -1.9297
    -1.9082  -1.8781  -1.8278  -1.8017  -1.8005  -1.7654  -1.7530  -1.7196
    -1.7072  -1.6647  -1.6332  -1.5943  -1.5454  -1.5156  -1.4724  -1.4536
    -1.4131  -1.3614  -1.3251  -1.3028  -1.2758  -1.2440  -1.2277  -1.2208
    -1.1958  -1.1681  -1.1277  -1.1104  -1.0724  -1.0315  -1.0034  -0.9611
    -0.9241  -0.9108  -0.8974  -0.8557  -0.8402  -0.7548  -0.7167  -0.6926
    -0.6838  -0.6673  -0.6439  -0.6092  -0.6051  -0.5920  -0.5774  -0.5613
    -0.5322  -0.5150  -0.5045  -0.4662  -0.4538  -0.4427  -0.4350  -0.4262
    -0.3891  -0.3704  -0.2413  -0.1897  -0.1166  -0.0995  -0.0887  -0.0086
     0.0197   0.0360   0.0737   0.1053   0.1146   0.1409   0.1705   0.2177
     0.2187   0.2609   0.2840   0.3094   0.3456   0.4029   0.4370   0.4527
     0.5336   0.5851   0.6135   0.6681   0.6815   0.7314   0.7387   0.7781
     0.7846   0.8214   0.8386   0.8743   0.8796   0.9271   0.9418   0.9790
     1.0295   1.0509   1.0562   1.0848   1.1202   1.1612   1.2349   1.2874
     1.3348   1.3709   1.4304   1.4960   1.5358   1.5694   1.6319   1.6446
     1.6659   1.7291   1.7683   1.8290   1.8336   1.8371   1.8617   1.8920
     1.9394   1.9451   2.0081   2.0243   2.0440   2.0488   2.0696   2.0889
     2.0978   2.1782   2.2349   2.2597   2.3028   2.3181   2.3293   2.3530
     2.3836   2.4709   2.5685   3.0287   3.2774   3.4125   3.4780   3.4885
     3.7116   3.8076   3.8833   3.8921   4.1962   4.3595   4.4805   4.5750
     4.7298   4.9470   5.0462   5.0703   5.1229   5.3040   5.3578   5.4006
     5.5096   5.6829   5.8801   6.0466   6.3648   6.5136   6.5776

     the Fermi energy is     2.0977 ev

!    total energy              =  -27795.92318307 Ry

     total all-electron energy =  -1326798.216785 Ry
     estimated scf accuracy    <       0.00000053 Ry
     smearing contrib. (-TS)   =       0.00191581 Ry
     internal energy E=F+TS    =  -27795.92509888 Ry

     The total energy is F=E-TS. E is the sum of the following terms:
     one-electron contribution =  -26008.95596489 Ry
     hartree contribution      =   13309.53127838 Ry
     xc contribution           =    -901.86079718 Ry
     ewald contribution        =   11292.42582960 Ry
     one-center paw contrib.   =  -25487.06544478 Ry

     convergence has been achieved in  20 iterations

     negative rho (up, down):  1.285E-02 0.000E+00

     Forces acting on atoms (cartesian axes, Ry/au):

     atom    1 type  1   force =     0.00085454    0.00159314   -0.00468827
     atom    2 type  1   force =     0.00013301    0.00003425   -0.00353841
     atom    3 type  1   force =    -0.00121405    0.00068753   -0.00560388
     atom    4 type  1   force =    -0.00022916    0.00012821   -0.00434060
     atom    5 type  1   force =     0.00001903   -0.00015487   -0.00352279
     atom    6 type  1   force =    -0.00001948   -0.00073739   -0.00354429
     atom    7 type  1   force =    -0.00096354   -0.00156931   -0.00469000
     atom    8 type  1   force =    -0.00050846    0.00026665   -0.00265105
     atom    9 type  1   force =     0.00062760    0.00035139   -0.00355662
     atom   10 type  1   force =    -0.00095369   -0.00175307    0.00780869
     atom   11 type  1   force =     0.00186607   -0.00112007    0.00499040
     atom   12 type  1   force =    -0.00043159    0.00002071   -0.00377476
     atom   13 type  1   force =     0.00099808    0.00164872    0.00781870
     atom   14 type  1   force =    -0.00106942    0.00012101    0.00856824
     atom   15 type  1   force =     0.00081860   -0.00051243    0.00823215
     atom   16 type  1   force =     0.00137845   -0.00087503   -0.00324574
     atom   17 type  1   force =    -0.00068342    0.00075287    0.00857088
     atom   18 type  1   force =    -0.00026391    0.00026914   -0.00377509
     atom   19 type  1   force =    -0.00011609    0.00007884   -0.00002031
     atom   20 type  1   force =    -0.00010673    0.00003425    0.00047927
     atom   21 type  1   force =    -0.00003773    0.00001381   -0.00026420
     atom   22 type  1   force =    -0.00012766   -0.00001171    0.00003069
     atom   23 type  1   force =    -0.00004219    0.00015062   -0.00019263
     atom   24 type  1   force =     0.00002378   -0.00001527   -0.00023068
     atom   25 type  1   force =    -0.00010470    0.00005529    0.00042379
     atom   26 type  1   force =    -0.00017120   -0.00005320   -0.00017130
     atom   27 type  1   force =    -0.00005895    0.00002020   -0.00023918
     atom   28 type  1   force =    -0.00010852   -0.00000524    0.00030108
     atom   29 type  1   force =    -0.00035543   -0.00021896   -0.00041447
     atom   30 type  1   force =     0.00012442   -0.00008796    0.00046742
     atom   31 type  1   force =    -0.00046490   -0.00006466    0.00029919
     atom   32 type  1   force =    -0.00004388    0.00035275   -0.00045704
     atom   33 type  1   force =    -0.00001819    0.00010339    0.00018369
     atom   34 type  1   force =    -0.00005512    0.00010200    0.00028681
     atom   35 type  1   force =     0.00023644   -0.00014090    0.00016147
     atom   36 type  1   force =    -0.00009104   -0.00004468    0.00016692
     atom   37 type  2   force =     0.00051307   -0.00037567    0.00066497
     atom   38 type  2   force =    -0.00284837   -0.00219874    0.00306847
     atom   39 type  3   force =    -0.00010075   -0.00001770    0.00011149
     atom   40 type  3   force =     0.00024101    0.00049774   -0.00023156
     atom   41 type  3   force =     0.00335406    0.00267434   -0.00348146

     Total force =     0.007518     Total SCF correction =     0.002814
     SCF correction compared to forces is large: reduce conv_thr to get better values

     negative rho (up, down):  1.285E-02 0.000E+00

     negative rho (up, down):  1.285E-02 0.000E+00

     negative rho (up, down):  1.285E-02 0.000E+00

     negative rho (up, down):  1.285E-02 0.000E+00

     negative rho (up, down):  1.285E-02 0.000E+00

     negative rho (up, down):  1.285E-02 0.000E+00

     negative rho (up, down):  1.285E-02 0.000E+00

     negative rho (up, down):  1.285E-02 0.000E+00

     negative rho (up, down):  1.285E-02 0.000E+00

     negative rho (up, down):  1.285E-02 0.000E+00

     negative rho (up, down):  1.285E-02 0.000E+00

     negative rho (up, down):  1.285E-02 0.000E+00

     negative rho (up, down):  1.285E-02 0.000E+00

     negative rho (up, down):  1.285E-02 0.000E+00

     negative rho (up, down):  1.285E-02 0.000E+00

     negative rho (up, down):  1.285E-02 0.000E+00

     negative rho (up, down):  1.285E-02 0.000E+00

     negative rho (up, down):  1.285E-02 0.000E+00

     negative rho (up, down):  1.285E-02 0.000E+00

     negative rho (up, down):  1.285E-02 0.000E+00

     negative rho (up, down):  1.285E-02 0.000E+00

     negative rho (up, down):  1.285E-02 0.000E+00

     negative rho (up, down):  1.285E-02 0.000E+00

     negative rho (up, down):  1.285E-02 0.000E+00

     negative rho (up, down):  1.285E-02 0.000E+00

     negative rho (up, down):  1.285E-02 0.000E+00

     negative rho (up, down):  1.285E-02 0.000E+00

     negative rho (up, down):  1.285E-02 0.000E+00

     negative rho (up, down):  1.285E-02 0.000E+00

     negative rho (up, down):  1.285E-02 0.000E+00

     negative rho (up, down):  1.285E-02 0.000E+00

     negative rho (up, down):  1.285E-02 0.000E+00

     negative rho (up, down):  1.285E-02 0.000E+00

     negative rho (up, down):  1.285E-02 0.000E+00
 BEEFens 2000 ensemble energies
             -0.603341950723872E+02
             -0.360042254050069E+01
             -0.157658516841660E+02
              0.427068823725650E+02
             -0.220044343903395E+02
             -0.204426040946426E+02
             -0.349682805273698E+02
             -0.859799214091111E+02
             -0.463139750923983E+02
             -0.470693377145417E+02
             -0.367346414241368E+02
              0.223490710195312E+01
              0.405329588761921E+01
              0.765051193946499E+01
              0.263689610819938E+01
              0.472391751593482E+02
             -0.207748189412245E+02
             -0.229649411160188E+02
              0.191859891465577E+02
             -0.111784866700798E+03
              0.533237486903266E+02
             -0.288818227253126E+02
             -0.331453631722830E+01
             -0.113595174860704E+02
             -0.884825550678579E+01
             -0.460662509042177E+01
              0.878032758912579E+02
             -0.185856691441020E+02
             -0.895532237018438E+01
             -0.515400100068079E+02
              0.811835966391091E+02
             -0.187045404227753E+02
             -0.372805661979562E+02
              0.248203400768480E+02
             -0.282897390851963E+01
              0.162619664222541E+02
             -0.486018075741794E+01
              0.108040292014346E+02
              0.286429179841469E+02
             -0.102732034378044E+03
              0.555468172708507E+02
              0.141676437716892E+02
             -0.165415295732186E+01
             -0.359857572207650E+02
              0.122576556796066E+02
             -0.145786506801518E+02
              0.395775970859618E+02
              0.362902378537684E+02
             -0.307060720847978E+02
             -0.273451486253216E+02
             -0.326879311940422E+02
             -0.350149289587030E+02
              0.135242305758171E+02
             -0.488029844021847E+02
              0.114691460879707E+02
              0.619741555640989E+02
              0.631298801031060E+02
              0.354104864295428E+02
              0.153141769215994E+02
              0.268776986307367E+02
              0.886557860855722E+02
              0.211745859078405E+02
             -0.545576452937146E+02
             -0.156540812339526E+02
             -0.234404894093549E+02
              0.626502019818388E+02
             -0.769479354184346E+02
             -0.668665627446176E+02
             -0.257718229198443E+02
             -0.636551699855772E+01
             -0.468668762014977E+02
              0.269225142055149E+02
              0.794483474685262E+01
              0.858792774749389E+01
             -0.395194105512819E+02
             -0.344964952653111E+02
             -0.538699876491764E+02
              0.388704618623561E+02
             -0.294175154779970E+02
              0.263565772844380E+02
             -0.711277502530231E+01
             -0.316522676301687E+02
             -0.573483504734189E+02
             -0.175858112702732E+02
             -0.896872760966346E+01
             -0.123861738199410E+02
              0.410116791299434E+02
              0.678589468205701E+02
             -0.383091037291614E+02
             -0.790300713273602E+02
             -0.218581537110461E+02
              0.110916725666418E+03
             -0.589481807675171E+02
              0.354524054242650E+02
             -0.950615829520257E+01
             -0.659971776106934E+02
              0.252894245949094E+02
              0.396292676630508E+02
             -0.198084842616275E+02
              0.398738579012582E+02
             -0.294673152376427E+02
             -0.474919522155560E+02
              0.860576598336547E+02
              0.451521010908591E+02
              0.335270027457648E+02
              0.145725801064502E+02
              0.204335838389193E+02
              0.852109563953404E+02
             -0.255239858591736E+02
              0.786272097675909E+01
             -0.141653927799182E+03
              0.180157482526089E+02
             -0.712690442311236E+02
              0.150288746877731E+02
              0.203439620396850E+02
             -0.330831317994800E+02
             -0.554540219027771E+02
              0.652672238241280E+01
             -0.302572148527948E+02
              0.305567719688059E+02
             -0.527387762979488E+02
              0.175459282609643E+01
             -0.354889876964340E+02
             -0.421673293289416E+01
             -0.106121761826796E+01
              0.180034506219313E+02
              0.143734506422413E+01
             -0.648080429338563E+01
              0.586805978261107E+02
              0.903305716539521E+02
              0.481534863298618E+02
              0.826746142454344E+02
             -0.114346692188000E+02
              0.142664892034585E+02
              0.538219583346975E+02
             -0.111042635713063E+02
             -0.731631486409771E+02
             -0.381839900154937E+02
             -0.519192640694804E+02
             -0.275098495384138E+02
              0.325918514403227E+02
             -0.116126898749825E+03
             -0.186548002814062E+02
              0.411575064162654E+02
             -0.384106217206776E+02
             -0.363929187849952E+02
              0.540993234925238E+02
              0.398056195444760E+02
             -0.352462852024308E+02
              0.135962714424492E+02
             -0.271919823778676E+02
              0.341142650353345E+02
              0.441601523709494E+01
              0.210494998907330E+02
             -0.880299000302211E+02
             -0.477517625184545E+02
             -0.990632599621688E+01
              0.323323370831314E+01
             -0.364359432609194E+02
              0.105427443504145E+03
             -0.230176594293735E+02
             -0.397237486882763E+02
              0.386678740107616E+02
             -0.491756640565030E+02
             -0.361357372794937E+02
              0.323071048885038E+02
              0.123851222936907E+02
              0.163943667642342E+02
              0.115710861893109E+02
             -0.132286019795206E+02
              0.224543681943566E+02
              0.586855548933617E+02
             -0.310110041888256E+02
              0.161224639380122E+02
              0.929604759191627E+02
              0.339081586442792E+02
             -0.725505997319829E+01
             -0.187582089284458E+02
              0.152501732745938E+03
             -0.162853292042818E+02
              0.361230240133377E+02
              0.192815708617795E+02
              0.360012660198336E+02
              0.886978983745119E+02
              0.540452491461581E+02
             -0.236630929766708E+01
              0.226417519985145E+02
              0.482207539506339E+02
              0.361397777033108E+02
             -0.522178167697475E+02
              0.930909519803179E+02
             -0.820982130770942E+02
             -0.197497098344346E+02
              0.579722355272308E+02
              0.667899162150364E+01
              0.786829153404915E+01
              0.339278445700345E+02
              0.298339787441946E+02
              0.351774274591787E+02
             -0.634193903781074E+02
              0.285047069575535E+01
             -0.296296619660362E+02
             -0.866344492047135E+01
             -0.144781497283429E+01
             -0.717006275549892E+01
             -0.411722950309837E+01
              0.854832161137673E+02
             -0.100756343703821E+02
             -0.274840117443357E+02
             -0.495819215547194E+01
              0.139213124957148E+02
             -0.560563051556002E+02
             -0.404324999686307E+02
             -0.380176901718517E+02
             -0.626960464809480E+02
             -0.168724345114116E+02
             -0.445300770914081E+02
              0.162323906089982E+02
             -0.240787640412434E+01
             -0.103708181240546E+02
             -0.929707498956614E+01
              0.804960349213064E+01
             -0.241985802464335E+02
              0.685826062208818E+02
             -0.802443091591150E+02
             -0.140323246857061E+02
             -0.173243862783386E+02
              0.181063429793883E+02
              0.213438156504072E+02
             -0.461083881139152E+02
             -0.201254328804158E+02
              0.438463979998804E+02
             -0.275083023714434E+02
              0.186329980767196E+02
              0.380948136519619E+02
             -0.322197466934995E+01
              0.113522972533460E+03
             -0.229394985975754E+02
             -0.339167934744105E+02
              0.577260627903684E+01
             -0.226797627337609E+02
              0.524628442119563E+02
             -0.334714098990748E+02
              0.105852677586894E+02
              0.637717341092768E+02
             -0.125496733152032E+02
              0.119602390525244E+03
              0.125176536195612E+03
             -0.646112897467324E+02
              0.587516177146391E+02
              0.165286529832488E+02
             -0.514693283360662E+02
              0.215202344247659E+02
              0.351682794745392E+02
              0.360202722569851E+02
              0.132298612600735E+01
              0.158859528972750E+02
              0.691697841767295E+02
             -0.245720594204222E+02
              0.180739018458560E+02
              0.735112885345654E+02
             -0.370498050342647E+02
             -0.128469615102368E+02
              0.505456904675478E+02
              0.295802978567510E+02
              0.776123124767771E+02
              0.220867706445405E+02
              0.618424768736867E+01
              0.278959309094063E+02
              0.380998397015912E+02
             -0.468998149908352E+02
              0.327925954060572E+01
              0.128406805450089E+02
              0.113174540466498E+02
              0.219272377095884E+02
             -0.571555784432496E+02
              0.364389707369833E+02
             -0.441542824171499E+02
             -0.345804689597154E+02
              0.177029829034542E+02
             -0.180855441729040E+02
              0.551959494189826E+02
             -0.255282625972219E+02
              0.265162275942642E+02
              0.366628319791386E+02
              0.825024702365546E+02
              0.571816646446149E+02
              0.458946037348057E+02
             -0.105305943233563E+02
             -0.385753741948184E+01
             -0.330452490790168E+02
              0.746242394011743E+02
              0.792711976486505E+02
              0.359767936251433E+02
             -0.190470326535034E+02
              0.509185780697576E+02
             -0.162737372667968E+02
              0.213787466326180E+02
              0.610744639372688E+02
              0.215755470409269E+01
             -0.103803274553893E+02
             -0.281831958519681E+02
             -0.508442886880785E+02
              0.940207347099357E+02
              0.437058236401326E+02
             -0.555699881381514E+02
             -0.951917966551798E+01
              0.248364297779261E+02
             -0.989980470371731E+01
              0.588550811996794E+02
              0.151382534354528E+02
              0.794829859592925E+02
              0.277858558630111E+02
             -0.262649287133515E+02
              0.247918858444325E+02
             -0.498182059758756E+01
             -0.322226301635421E+02
              0.132236396452593E+02
              0.204823637061734E+02
              0.928034366534716E+02
              0.793193641434247E+02
              0.547982553068375E+02
              0.727148900006289E+02
              0.796964989861746E+01
             -0.272409846241961E+02
              0.162466661339956E+02
             -0.366117898416673E+02
             -0.473275005199888E+02
             -0.560460322890153E+02
             -0.264825957579495E+02
             -0.109114827459078E+03
             -0.289508485610682E+02
             -0.832633876872729E+02
              0.209005533807832E+02
             -0.474566688700226E+02
              0.394162847171856E+02
             -0.936077027988274E+02
             -0.328518159995206E+02
              0.546320306768674E+02
              0.206514667604074E+02
             -0.825825965424229E+02
              0.628095194809176E+02
             -0.255294319998447E+02
              0.509424509097455E+02
             -0.241006042570126E+02
             -0.747059310721316E+02
              0.110915913801032E+02
             -0.607670174729175E+02
             -0.167834580215986E+02
             -0.148373386008901E+01
              0.415921872199428E+02
              0.126335326214839E+03
             -0.459381054440380E+02
             -0.360625386158164E+02
             -0.946702968876082E+00
             -0.129741177864735E+02
             -0.818305854548361E+02
             -0.593711179438041E+02
              0.514577414481195E+02
             -0.287894552145453E+02
              0.168208848690045E+02
             -0.486706847069204E+02
             -0.130981760963829E+02
             -0.435018057772167E+02
              0.562968123440494E+02
              0.150339092327102E+02
             -0.230419148137559E+02
             -0.126028670081541E+02
              0.660415984916482E+01
             -0.614067025101053E+01
              0.439319319470849E+02
             -0.250568294521220E+02
              0.271403011888185E+01
              0.337604024253238E+02
              0.170511260212854E+02
             -0.158570391424475E+02
              0.155441431730341E+03
              0.534873781524759E+02
              0.111984612548197E+01
              0.161277515006460E+02
             -0.611491047245382E+02
              0.313264515483950E+02
             -0.717589096683397E+02
             -0.250339045290150E+02
             -0.519530590377780E+02
             -0.219166087562743E+02
              0.566147139434431E+02
             -0.533908427860879E+02
              0.159552005967275E+02
             -0.407474664971096E+01
              0.386284605631471E+01
             -0.432158136871872E+02
             -0.476121253911165E+02
             -0.399060966630475E+01
             -0.423011599183535E+02
             -0.215929737375526E+02
             -0.436341645923443E+02
             -0.118940327627730E+02
             -0.357193519739414E+02
             -0.513866298915553E+02
              0.211505967889098E+02
             -0.208466430682473E+02
              0.186568061304667E+02
              0.969846394652075E+01
             -0.734015995512990E+02
             -0.545296356784987E+02
             -0.395664473545692E+02
              0.352315302475708E+02
              0.273479835010420E+01
             -0.623203261415259E+02
              0.582727188600480E+02
             -0.398901371898041E+02
              0.541815010757685E+02
             -0.287904051889141E+02
             -0.443257449699713E+02
              0.297125764171062E+02
             -0.653809204814401E+02
             -0.378157315160675E+02
              0.669464633930576E+02
              0.203020013989142E+02
             -0.357816279725636E+02
              0.486435884121508E+02
             -0.173113567075012E+02
             -0.320813864722960E+02
             -0.300124538135129E+02
             -0.497930524371799E+02
              0.248117920432546E+02
             -0.928440565751256E+02
             -0.836029802060799E+02
             -0.729756743399253E+01
             -0.305289375260107E+02
             -0.572438379094475E+02
              0.717793609395700E+02
              0.130798573906765E+03
             -0.359657483388659E+02
             -0.254041716899042E+01
             -0.633772169073552E+02
              0.647115392053881E+02
              0.169517167544401E+02
             -0.180515652768120E+02
             -0.408095503528826E+02
              0.147798806663558E+02
             -0.582845713190189E+02
             -0.197093413431787E+02
             -0.899953720126457E+02
              0.335069752719003E+02
              0.168311789589671E+02
              0.187321352128617E+01
             -0.701164149392389E+01
             -0.327436347763680E+02
             -0.752505261488773E+01
              0.124803330025834E+03
             -0.198201146397425E+02
             -0.434878020423990E+02
             -0.680290492019473E+02
              0.108508834977347E+02
             -0.340172513409237E+02
              0.585364419381999E+01
              0.259704636966941E+02
              0.101931971426553E+02
              0.276069693097629E+02
              0.119022240684049E+02
              0.626562432258419E+02
              0.315384933558546E+02
             -0.324680504775080E+02
              0.352866718492874E+02
              0.377654084664942E+02
              0.120197776947379E+02
              0.484963132098621E+02
             -0.223213870811785E+02
              0.761888343642775E+02
              0.171014143878678E+02
             -0.270325551650864E+02
             -0.720180257246630E+01
             -0.185507792266526E+02
              0.260976267446563E+02
             -0.233047291624229E+02
             -0.726686401013694E-01
             -0.841604423826459E+01
              0.805443977201589E+02
              0.496937069820606E+02
             -0.683492388374939E+02
             -0.472134047537779E+01
             -0.552648958678370E+02
             -0.158739942702156E+02
             -0.267118938243908E+02
              0.369604185991943E+01
              0.612915401961404E+00
             -0.256072703678673E+02
              0.805155271299523E+01
             -0.597934397342806E+01
             -0.128065371521226E+02
              0.854338538018197E+02
              0.180983457404135E+02
             -0.802711529446501E+02
             -0.456334589413235E+02
              0.939940507278925E+02
              0.276526941314647E+02
             -0.106419038990060E+02
              0.103972627435640E+03
             -0.193868986543389E+02
             -0.122623362471648E+02
             -0.533673427474241E+01
              0.106512659726243E+02
              0.270791721315169E+02
              0.779256730923549E+01
              0.303854064038775E+02
             -0.187380534705859E+02
             -0.301773785086143E+02
             -0.415821323874723E+02
             -0.474221355986109E+02
              0.461866530452123E+02
              0.126045742001040E+02
              0.385567841451053E+02
              0.132654385759665E+02
              0.850828430787177E+02
              0.155354739463487E+02
             -0.842027822301326E+02
             -0.332647396050984E+02
              0.133500915200406E+02
             -0.301295534846095E+02
              0.623168136901035E+02
             -0.876943763867257E+01
              0.147782972284991E+02
              0.494284123919331E+02
             -0.703089626488558E+02
              0.148944479337366E+03
              0.207650187499378E+02
              0.270098110083544E+02
              0.345623305931441E+02
              0.103378837302876E+02
             -0.156176201453627E+01
              0.356603899354130E+02
             -0.355267018642397E+02
              0.768755021926513E+02
              0.680879901381697E+02
             -0.403877493210480E+02
              0.148517418434278E+02
              0.666298771434379E+02
             -0.222730406857198E+02
              0.153380524983276E+02
              0.433205471313446E+02
              0.419982621258850E+02
             -0.780733055091545E+02
             -0.152307642165097E+02
             -0.354525367155802E+02
             -0.145016120654560E+01
             -0.762184369193373E+01
             -0.546497786096700E+01
             -0.179968082756280E+02
             -0.292185165467347E+02
              0.626056747511717E+01
              0.111373083276006E+02
              0.532772810885447E+02
             -0.387869050609752E+02
              0.372100470633848E+02
              0.435907946806256E+02
             -0.185952822049849E+02
              0.868091169723566E+02
             -0.694342995279676E+02
             -0.102636207725592E+03
             -0.656339859212550E+01
             -0.264519440094955E+01
              0.386049370686146E+01
              0.785444496825800E+02
             -0.106936050513962E+02
              0.414463431583688E+02
              0.440549628674127E+02
              0.383332378841857E+02
             -0.991990081949598E+01
              0.624313964890385E+02
             -0.132769185578437E+02
             -0.305383476214154E+02
             -0.477263112417110E+02
              0.582670800411954E+01
              0.367484792171392E+02
             -0.601579016194802E+01
              0.391149810599096E+02
             -0.176957227914531E+01
              0.652186598881566E+02
              0.186408810222983E+02
              0.994942701004265E+01
             -0.121777102267534E+02
              0.330533431635827E+02
              0.360494054733723E+02
              0.231886786290294E+02
             -0.493894334865558E+00
             -0.547671375448051E+02
              0.259170094481552E+02
              0.174106769802186E+02
              0.400782523496966E+02
              0.270569831542338E+02
              0.370608354982264E+02
             -0.599442511314976E+01
              0.249328380821967E+02
             -0.297217708531421E+02
             -0.196199350960092E+01
             -0.566436384145243E+02
             -0.306148005336532E+02
              0.376481702061480E+02
             -0.930965800044449E+02
              0.293075694983501E+02
              0.183278103128018E+02
              0.835802446414179E+02
             -0.299579772288391E+02
              0.327775548734196E+02
             -0.137197522629646E+02
             -0.461401350456521E+02
             -0.758096777666567E+02
             -0.519323164568388E+01
             -0.855157229457728E+02
              0.199250506884680E+02
             -0.246400784784699E+02
              0.304139519628552E+02
              0.235878048761441E+02
             -0.239641100342991E+02
             -0.263844889488817E+02
              0.388723615377295E+02
             -0.585257077191262E+02
             -0.116050381198487E+02
             -0.195191731672973E+02
              0.211253853538126E+02
             -0.892269796875962E+01
              0.360944043064188E+01
             -0.199720005831202E+02
              0.555997958598380E+02
             -0.436614603519042E+02
              0.783081333941391E+01
              0.582277725690168E+02
             -0.321442156812815E+02
              0.359072618007843E+01
             -0.882337469312927E+01
             -0.665883091891661E+02
             -0.480411711599889E+02
             -0.859255349731385E+01
              0.239241899359237E+02
              0.300635243270381E+02
              0.857115915729395E+01
             -0.409692525199580E+01
              0.150865592423217E+02
             -0.437660591327302E+02
              0.335430864378645E+01
             -0.528332086578701E+02
             -0.323535451327267E+02
              0.472148404125471E+02
             -0.293588277058325E+02
              0.618840086212268E+02
             -0.213506641829133E+02
              0.351814176510314E+02
              0.240411817310034E+02
             -0.640919432651178E+02
             -0.278987442655216E+02
              0.928322435998564E+01
             -0.369725778186125E+02
             -0.337451310071877E+02
             -0.825419709642335E+02
             -0.536349900772699E+02
             -0.507818766154368E+02
             -0.413199218031544E+02
             -0.991303113356906E+00
              0.984415315557646E+01
              0.997500316955552E+00
              0.151899010205743E+02
             -0.546296393837107E+02
              0.141139439155262E+02
              0.255459546008951E+02
             -0.663143742317367E+02
             -0.698927207431751E+02
             -0.429357656536632E+02
             -0.170404047997221E+02
              0.177621709722378E+02
              0.457378439158776E+01
             -0.423573403198159E+02
              0.364676424815606E+02
             -0.215001458078941E+02
              0.514732450061555E+02
             -0.882670759404385E+02
              0.594505858802136E+02
             -0.208443897820163E+01
             -0.366188152389333E+02
             -0.214896802475456E+02
              0.471709690222403E+01
              0.372081198835849E+02
             -0.752578385790887E+02
             -0.120102626721708E+02
             -0.215795846394254E+02
              0.508858090074208E+02
              0.860631135297987E+02
             -0.960118223779266E+02
              0.939193055523209E+02
              0.465539734208172E+02
             -0.721445303703395E+02
             -0.364891938978008E+02
              0.747804814838059E+02
              0.629013689811977E+02
             -0.180019708607499E+02
             -0.459611408696998E+01
              0.723267033878327E+01
              0.645058487364165E+02
             -0.505360685065395E+02
              0.157681921646401E+02
             -0.468801293856428E+01
              0.346277121705306E+02
             -0.743299577037400E+02
             -0.646226029607663E+01
             -0.349533851440073E+02
              0.458125415934852E+02
              0.466683697587827E+02
             -0.857362690986192E+02
             -0.484620952535731E+02
             -0.255118188830596E+02
             -0.337195216084646E+02
             -0.108595487202448E+02
             -0.241676878614624E+02
              0.425010152413521E+02
              0.398758976549288E+02
             -0.562716034495878E+01
             -0.414032410877385E+02
             -0.846110828438557E+02
              0.440590031707773E+02
             -0.520759717269752E+02
             -0.311168315564648E+02
              0.543314560218853E+01
             -0.320737787055355E+02
             -0.395864291732805E+02
             -0.238584161353302E+02
             -0.382868284642670E+02
             -0.269507777336819E+02
             -0.479841767817787E+02
              0.560928390274819E+02
              0.634852278516180E+02
             -0.167006008446924E+01
             -0.260076051494962E+02
             -0.626989969864803E+01
              0.438943646209485E+02
             -0.863322765996457E+02
             -0.145008930724285E+02
              0.521043952530390E+02
              0.660166392415035E+02
             -0.243796882589152E+02
              0.907596737517099E+01
              0.520766801997196E+02
              0.197387566068010E+02
             -0.827452235407293E+01
[...]
              0.282352568787578E+02
              0.141075089462717E+03
              0.240663047738052E+02
              0.121562997283353E+02
             -0.461762197542184E+02
             -0.634503841528976E+02
             -0.188270695996442E+02
              0.328049276176542E+02
             -0.423960592995479E+01
              0.188709213080099E+02
              0.334349404176010E+02
             -0.583098767288880E+02
              0.220933383322219E+02
              0.579967652370856E+02
              0.549741272440203E+02
             -0.414896598151904E+01
             -0.139491233309900E+01
             -0.989360892082047E+01
             -0.479796666543079E+02
             -0.671057981026535E+02
              0.781204139912195E+02
             -0.517697480733906E+01
             -0.584859413340365E+02
              0.168402044101268E+01
             -0.203697736144301E+02
              0.933732687632964E+02
             -0.215383918659602E+02
             -0.351608768165449E+02
              0.333348356995342E+02
             -0.144917987376278E+02
              0.387040216993586E+02
             -0.236142972682865E+01
              0.100565414453112E+03
              0.486866630724346E+02
             -0.514229783812728E+01
             -0.319876394415977E+02
              0.230704482386888E+02
             -0.525531571213120E+02
             -0.127607853271935E+02
              0.582245820843595E+02
             -0.286305929677654E+02
             -0.435934542756760E+02
             -0.222029133137149E+02
              0.515881471335251E+02
              0.124065935184933E+02
             -0.844284363343101E+02
              0.301977212332317E+02
              0.151565689723784E+02
              0.571382236529880E+01
             -0.510853117022885E+02
             -0.382546940614998E+01
              0.321223428073664E+02
              0.510098224966612E+02
              0.629153294756495E+02
              0.227193610542723E+02
              0.725272103328109E+00
             -0.495078976155983E+02
             -0.507681445484621E+02
             -0.744115987021655E+02
             -0.608902867382153E+01
              0.307157753575252E+02
             -0.376922947449415E+01
              0.544097126712425E+02
             -0.316229880034807E+02
              0.165578792590636E+02
             -0.101555204551961E+02
             -0.288028739295239E+02
              0.582384613557414E+02
              0.789224472603348E+01
              0.600886082699717E+02
              0.505385807236610E+01
              0.263874598575971E+02
             -0.191814612280911E+02
              0.582764379205863E+02
             -0.110615057255226E+02
             -0.119247070767420E+00
             -0.785871302553052E+02
             -0.127898070960580E+02
              0.715158069977292E+02
              0.669535136035606E+02
              0.250574061692587E+02
             -0.129497414079031E+02
              0.342297947795004E+01
             -0.172374120167273E+02
             -0.197301032274032E+01
              0.902912014910482E+02
              0.121992034199980E+01
             -0.188888006655553E+02
             -0.110160682093467E+03
             -0.550039248467443E+02
             -0.372949589211129E+02
             -0.655058153381184E+02
             -0.552315549799305E+02
             -0.678606119360862E+02
             -0.444637783228778E+02
             -0.409284202814974E+02
             -0.449248864007637E+02
              0.481020160820402E+02
             -0.293120162590460E+02
             -0.990406554566058E+02
              0.416567128226192E+02
             -0.258258087455965E+02
             -0.786474728557291E+02
              0.938275390220726E+02
             -0.218292595407490E+02
              0.227200476570754E+02
              0.452913868605683E+02
             -0.139892055474553E+01
              0.253012312512332E+02
              0.469152308730182E+01
              0.412501111874487E+00
             -0.149942716949074E+02
             -0.711676164950491E+02
              0.132501340523828E+02
             -0.128707792047594E+03
              0.620311064028666E+02
             -0.438363540181128E+02
             -0.162048874076435E+02
             -0.157131279891867E+02
              0.703772780017504E+01
             -0.226822246288861E+02
              0.295461624331218E+02
             -0.517384742891464E+02
              0.365121788375386E+02
              0.368535586632417E+02
              0.167795900281033E+02
              0.100017207641845E+02
              0.196649559729703E+02
              0.616879634156157E+01
              0.308655125306266E+02
             -0.794963123944424E+01
             -0.588349896232547E+02
              0.751472138285629E+01
             -0.150840242684898E+02
             -0.190855656086080E+01
              0.503268945825431E+02
             -0.822397050981144E+02
             -0.150058240277332E+01
              0.564355858475722E+00
              0.990645394319750E+01
              0.316742990737548E+02
             -0.122900281618971E+02
              0.831112151909130E+02
              0.485368345347650E+02
             -0.182315655633058E+02
             -0.950232862078360E+01
              0.102624376784394E+01
              0.765182177892070E+02
             -0.583462185418155E+02
             -0.105198889159333E+03
              0.307587306553219E+02
             -0.162720014647179E+02
             -0.138627623426835E+02
              0.129536590558817E+02
              0.764199561773245E+02
              0.461731727338508E+02
             -0.152528734457140E+02
             -0.500101271472984E+02
             -0.543398065774880E+01
              0.304850620774975E+02
             -0.110598207177794E+02
             -0.751628317786704E+02
             -0.267451042046085E+01
             -0.884602544576857E+02
             -0.472784663479260E+02
              0.763872818304912E+02
             -0.480652487880280E+02
             -0.632576824652232E+02
             -0.511356609008127E+02
             -0.347666133009664E+02
              0.339003944476488E+02
              0.816839318038667E+02
             -0.352861349155336E+01
              0.275127952750772E+02
             -0.182686474006612E+02
             -0.690220209748810E+02
              0.462233478709762E+02
             -0.442346297721696E+02
              0.320239244826880E+02
              0.374492812442880E+02
             -0.647198195085991E+01
              0.388217860796094E+02
              0.436051040195525E+02
              0.100012800141619E+03
             -0.155338433469622E+02
             -0.453205581811744E+02
             -0.609160542150385E+02
             -0.122940157470274E+02
             -0.230801341897105E+02
              0.102485438985662E+03
             -0.446528500694192E+02
              0.104614377087051E+02
              0.969730834028496E+01
             -0.263483106561094E+02
             -0.794099150028554E+02
             -0.695217223347925E+01
              0.974315614580583E+02
              0.926994504707051E+01
              0.803757322659965E+01
             -0.523855494126932E+02
             -0.602456140388636E+02
             -0.554191868709184E+01
              0.497978366937621E+02
             -0.220418252050800E+02
              0.107403956440178E+03
             -0.432976810218119E+02
              0.145260107954020E+02
             -0.223328596256349E+02
             -0.715037902901195E+02
              0.164670431351823E+01
             -0.498580776387296E+02
             -0.756537385999054E+02
              0.610137925916916E+01
              0.236272550524933E+01
              0.511363729305484E+02
              0.185804740497666E+02
             -0.321669092863041E+02
              0.228673550222527E+02
             -0.806136058426923E+02
             -0.519041573777399E+02
              0.896554724462679E+02
              0.141986824387368E+02
             -0.187624246699464E+02
             -0.350886271564298E+02
             -0.269108154602998E+01
             -0.581332171374959E+01
              0.825122094668243E+02
              0.415395307434850E+02
             -0.165492183628569E+02
             -0.121732910878492E+02
             -0.425386575776632E+02
             -0.199732794198082E+02
             -0.666471081049286E+02
              0.456822558742328E+02
              0.542742905065526E+01
              0.144420795274145E+02
              0.155161127759273E+02
             -0.501894250339735E+00
             -0.167200591863830E+02
             -0.310661962636618E+01
             -0.998129773064933E+02
             -0.229208813115906E+02
             -0.760319819712782E+01
             -0.944577475094133E+01
              0.543587528817712E+02
              0.620236725715432E+02
              0.163881945965416E+02
             -0.965306327917537E+02
              0.643991542269292E+02
             -0.213676190692912E+02
             -0.374934993113005E+02
             -0.859287410032856E+02
             -0.385283588026518E+02
              0.561089783393211E+02
              0.242391151612535E+02
              0.504856485301264E+01
              0.290303645403783E+02
             -0.561741814321031E+02
             -0.419562627342970E+02
              0.511886228330424E+02
              0.384892321803794E+02
              0.516185319937150E+02
             -0.123770296201062E+01
              0.680278672025054E+01
              0.566470371546856E+02
              0.957088016555031E+02
             -0.299169097122343E+02
              0.320580641215918E+02
             -0.117153657468003E+02
             -0.409611144021566E+02
             -0.312353688506323E+02
             -0.298376646064226E+02
             -0.130611362195001E+02
             -0.520699175222961E+02
             -0.216021411665488E+02
             -0.140425269176326E+03
              0.367120875941793E+02
              0.205296697139181E+02
             -0.392461838929383E+01
             -0.377866333361243E+02
             -0.203048771099611E+02
             -0.523761497492403E+02
              0.150768803695237E+02
              0.815531271029031E+02
             -0.251146182641442E+02
             -0.162012175168434E+02
              0.237083048738969E+02
             -0.486566125781599E+02
              0.875544470644728E+02
              0.153453325926475E+02
              0.225764669910365E+02
              0.487317390258967E+02
              0.322576226292438E+01
              0.538799013718088E+02
              0.141984275669315E+02
             -0.106324467070004E+02
              0.725201311131485E+01
              0.833298143203251E+00
              0.723327800522891E+02
              0.100647363171564E+02
              0.119428870414346E+02
             -0.129585984415926E+02
              0.131653533687597E+02
             -0.905830718754657E+02
             -0.323714133517427E+02
             -0.454662548310139E+02
              0.482311578494448E+02
             -0.289181137017684E+02
             -0.655128274439346E+02
              0.535062973820450E+02
             -0.121157797417298E+02
              0.437711707085874E+02
             -0.893514330135505E+02
              0.230888895548238E+02
              0.854333221642315E+01
              0.580713426054467E+01
             -0.825712571939738E+01
             -0.900249777735417E+01
              0.476501919525763E+02
              0.197900034477072E+01
             -0.472240836939695E+02
             -0.174995843053278E+02
              0.275401263552286E+02
             -0.117271224572669E+03
             -0.924763717450920E+02
              0.395581608390512E+01
              0.116786630007765E+02
             -0.410520463440435E+02
             -0.388098440721700E+01
              0.111520264244022E+03
              0.304702520553456E+02
             -0.568554360451459E+02
              0.920499038430265E+01
             -0.958505945309122E+01
              0.104945146718966E+02
             -0.335743914213548E+02
              0.194190695562120E+02
              0.283255812194122E+02
             -0.295111862464262E+01
              0.107540981447511E+03
             -0.139942379991815E+02
             -0.314090181383106E+02
              0.141271160455620E+02
              0.464129521230916E+02
             -0.353904611708665E+02
             -0.317290759233473E+01
              0.959298111850991E+02
             -0.462916832141502E+01
              0.618675124352225E+02
              0.134514997676373E+02
             -0.897616765246416E+01
             -0.304445688268426E+02
              0.563736900409402E+02
             -0.510816956308548E+02
             -0.218797680988001E+01
             -0.168937265971195E+02
             -0.402865369330130E+02
              0.184268498293209E+02
              0.237947063943849E+02
              0.116027096188249E+02
              0.733757699408670E+00
             -0.382313217673187E+02
              0.214478886686903E+02
             -0.673930726069219E+01
             -0.245225341230426E+02
             -0.209427833277775E+02
              0.202220776562436E+02
             -0.596109659184901E+01
             -0.347029092268012E+02
             -0.106021655014272E+03
              0.102611028985133E+02
              0.247694286758434E+02
             -0.384546613597652E+02
             -0.209630057295557E+02
              0.802406927761028E+02
              0.645020177321598E+01
              0.308407390030346E+02
              0.385827529711426E+01
              0.319654528939966E+02
              0.644113824871749E+01
             -0.370705303025919E+02
             -0.226993416512795E+01
              0.873235850365228E+01
              0.272093184252298E+02
              0.777500870674671E+02
              0.504638033785969E+02
              0.161017075602615E+00
              0.168480065472863E+02
              0.609796844839051E+02
              0.234352035403063E+02
             -0.748869633218749E+02
             -0.272102638147732E+02
              0.150310923175219E+02
              0.556698492336864E+01
              0.253620002001611E+02
             -0.544825351570729E+02
              0.895264865962713E+01
              0.383662119708655E+02
              0.495203480962092E+02
             -0.432503989555453E+02
             -0.691527636546175E+01
             -0.206411710784312E+01
             -0.132634894266104E+02
             -0.364053551828389E+02
             -0.214519071721521E+02
             -0.197496915776100E+01
              0.786896891710637E+01
              0.418987759966106E+02
             -0.306531725392909E+02
              0.821643221113012E+02
              0.325552317700401E+02
              0.218314133744984E+02
              0.331000307764764E+02
              0.321631792055690E+02
              0.344277952448564E+02
              0.534053366161310E+02
             -0.431193426665573E+02
              0.616058587892628E+02
             -0.111625357428351E+03
              0.305545585189629E+02
             -0.105926858543824E+03
              0.850126618962081E+02
              0.686254610603732E+02
             -0.109382541116016E+02
             -0.490486993589608E+02
             -0.427126675682326E+02
             -0.620402578823009E+02
             -0.625095681835879E+02
              0.548715577076148E+02
              0.403086336809268E+02
              0.235467949287895E+02
              0.372294346709336E+02
              0.400771201327062E+02
             -0.379843187503519E+02
             -0.196989218950227E+02
              0.583536752071923E+02
             -0.115400526341069E+02
              0.549010097495415E+02
              0.695140772978775E+02
             -0.553185101891656E+01
             -0.702094821457938E+02
             -0.915499123225004E+00
             -0.247482864726695E+01
             -0.876584679720520E+01
             -0.182161150971774E+01
             -0.649268281817624E+02
             -0.210163067988699E+02
              0.532355659037513E+01
              0.892040554126498E+01
              0.466123581514852E+02
             -0.395441636042489E+02
              0.654316842832899E+02
             -0.423164760580933E+02
              0.208900556305706E+02
              0.347937564255728E+02
 
 BEEF-vdW xc energy contributions
           1 :   -778.867639839084     
           2 :    715.858622114165     
           3 :   -606.585247291006     
           4 :    477.689663386633     
           5 :   -356.444880302886     
           6 :    262.645116251201     
           7 :   -204.025635482839     
           8 :    176.162648222249     
           9 :   -166.451329864392     
          10 :    160.255760878979     
          11 :   -146.710949481325     
          12 :    121.987527753079     
          13 :   -89.1633471175417     
          14 :    55.3118363056451     
          15 :   -27.4876322806605     
          16 :    9.43923082144977     
          17 :  -0.331918251495949     
          18 :   -4.26950366565677     
          19 :    9.88619478558587     
          20 :   -20.4043751554493     
          21 :    36.3985612710687     
          22 :   -55.1580963069148     
          23 :    72.2353085758925     
          24 :   -83.6711498813681     
          25 :    87.7996486656048     
          26 :   -85.8366852869719     
          27 :    81.0886303229398     
          28 :   -77.2575753367097     
          29 :    76.6869278585924     
          30 :   -79.3763790629004     
          31 :   -85.3636989413422     
          32 :   -65.4968628894320     

     Writing output data file ./pwscf.save/
 
     init_run     :    310.95s CPU    315.42s WALL (       1 calls)
     electrons    :  12622.04s CPU  12748.86s WALL (       1 calls)
     forces       :     93.48s CPU     94.69s WALL (       1 calls)

     Called by init_run:
     wfcinit      :    263.34s CPU    266.81s WALL (       1 calls)
     potinit      :     44.68s CPU     45.03s WALL (       1 calls)
     hinit0       :      1.12s CPU      1.18s WALL (       1 calls)

     Called by electrons:
     c_bands      :  10567.66s CPU  10666.45s WALL (      21 calls)
     sum_band     :   1433.57s CPU   1445.83s WALL (      21 calls)
     v_of_rho     :    107.88s CPU    112.28s WALL (      21 calls)
     newd         :     30.85s CPU     42.24s WALL (      21 calls)
     PAW_pot      :    146.74s CPU    146.76s WALL (      21 calls)
     mix_rho      :    380.73s CPU    381.42s WALL (      21 calls)
     vdW_kernel   :     33.91s CPU     33.92s WALL (       1 calls)

     Called by c_bands:
     init_us_2    :     79.05s CPU     79.27s WALL (     572 calls)
     cegterg      :   9744.74s CPU   9843.25s WALL (     273 calls)

     Called by *egterg:
     cdiaghg      :     97.06s CPU     97.12s WALL (    1502 calls)
     h_psi        :   6135.74s CPU   6170.05s WALL (    1528 calls)
     s_psi        :   1072.26s CPU   1072.37s WALL (    1528 calls)
     g_psi        :     17.26s CPU     17.26s WALL (    1242 calls)

     Called by h_psi:
     h_psi:calbec :   1000.79s CPU   1001.03s WALL (    1528 calls)
     vloc_psi     :   4036.26s CPU   4037.63s WALL (    1528 calls)
     add_vuspsi   :   1071.99s CPU   1072.13s WALL (    1528 calls)

     General routines
     calbec       :   1461.40s CPU   1461.71s WALL (    1853 calls)
     fft          :     46.16s CPU     46.19s WALL (    3281 calls)
     ffts         :    119.32s CPU    119.34s WALL (    8914 calls)
     fftw         :   4135.98s CPU   4136.97s WALL (  352151 calls)
 
     Parallel routines
 
     PWSCF        :      3h38m CPU      3h41m WALL

 
   This run was terminated on:  19:29:40  20Dec2022            

=------------------------------------------------------------------------------=
   JOB DONE.
=------------------------------------------------------------------------------=
