
     Program PWSCF v.6.7MaX starts on  4Jan2023 at 10:18: 2 

     This program is part of the open-source Quantum ESPRESSO suite
     for quantum simulation of materials; please cite
         "P. Giannozzi et al., J. Phys.:Condens. Matter 21 395502 (2009);
         "P. Giannozzi et al., J. Phys.:Condens. Matter 29 465901 (2017);
          URL http://www.quantum-espresso.org", 
     in publications or presentations arising from this work. More details at
     http://www.quantum-espresso.org/quote

     Parallel version (MPI), running on     1 processors

     MPI processes distributed on     1 nodes
     Reading input from chch2c-bi-ensemble.in
Warning: card &CELL ignored
Warning: card / ignored

     Current dimensions of program PWSCF are:
     Max number of different atomic species (ntypx) = 10
     Max number of k-points (npk) =  40000
     Max angular momentum in pseudopotentials (lmaxx) =  3
     file Pt.pbe-n-kjpaw_psl.1.0.0.UPF: wavefunction(s)  6S 5D renormalized
     file C.pbe-n-kjpaw_psl.1.0.0.UPF: wavefunction(s)  2S 2P renormalized
     file H.pbe-kjpaw_psl.1.0.0.UPF: wavefunction(s)  1S renormalized

     **************************************************************************
     Initializing libbeef V0.1.2 with the BEEF-vdW functional.
     Citation: Wellendorff et al., PRB 85, 235149 (2012).
     **************************************************************************


     IMPORTANT: XC functional enforced from input :
     Exchange-correlation= BEEF-VDW
                           (   1   4  43  14   2   0   0)
     Any further DFT definition will be discarded
     Please, verify this is what you really want


     Subspace diagonalization in iterative solution of the eigenvalue problem:
     a serial algorithm will be used

 
     G-vector sticks info
     --------------------
     sticks:   dense  smooth     PW     G-vecs:    dense   smooth      PW
     Sum        4267    4267   1159               716215   716215  100841
 


     bravais-lattice index     =            0
     lattice parameter (alat)  =      16.0349  a.u.
     unit-cell volume          =   11400.2419 (a.u.)^3
     number of atoms/cell      =           42
     number of atomic types    =            3
     number of electrons       =       375.00
     number of Kohn-Sham states=          226
     kinetic-energy cutoff     =      60.0000  Ry
     charge density cutoff     =     240.0000  Ry
     scf convergence threshold =      1.0E-06
     mixing beta               =       0.7000
     number of iterations used =            8  local-TF  mixing
     Exchange-correlation= BEEF-VDW
                           (   1   4  43  14   2   0   0)

     celldm(1)=  16.034858  celldm(2)=   0.000000  celldm(3)=   0.000000
     celldm(4)=   0.000000  celldm(5)=   0.000000  celldm(6)=   0.000000

     crystal axes: (cart. coord. in units of alat)
               a(1) = (   1.000000   0.000000   0.000000 )  
               a(2) = (   0.500000   0.866025   0.000000 )  
               a(3) = (   0.000000   0.000000   3.192920 )  

     reciprocal axes: (cart. coord. in units 2 pi/alat)
               b(1) = (  1.000000 -0.577350  0.000000 )  
               b(2) = (  0.000000  1.154701  0.000000 )  
               b(3) = (  0.000000  0.000000  0.313193 )  


     PseudoPot. # 1 for Pt read from file:
     /users/bkreitz1/quantum-espresso/potentials/Pt.pbe-n-kjpaw_psl.1.0.0.UPF
     MD5 check sum: 04dc8a03c51ece93fc7b5889c2958091
     Pseudo is Projector augmented-wave + core cor, Zval = 10.0
     Generated using 'atomic' code by A. Dal Corso  v.6.7MaX
     Shape of augmentation charge: PSQ
     Using radial grid of 1277 points,  6 beta functions with: 
                l(1) =   0
                l(2) =   0
                l(3) =   1
                l(4) =   1
                l(5) =   2
                l(6) =   2
     Q(r) pseudized with 0 coefficients 


     PseudoPot. # 2 for C  read from file:
     /users/bkreitz1/quantum-espresso/potentials/C.pbe-n-kjpaw_psl.1.0.0.UPF
     MD5 check sum: a169b0ebad56f5ec0d79c4633f80bf22
     Pseudo is Projector augmented-wave + core cor, Zval =  4.0
     Generated using 'atomic' code by A. Dal Corso  v.6.7MaX
     Shape of augmentation charge: PSQ
     Using radial grid of 1073 points,  4 beta functions with: 
                l(1) =   0
                l(2) =   0
                l(3) =   1
                l(4) =   1
     Q(r) pseudized with 0 coefficients 


     PseudoPot. # 3 for H  read from file:
     /users/bkreitz1/quantum-espresso/potentials/H.pbe-kjpaw_psl.1.0.0.UPF
     MD5 check sum: ae98473e6dc62675f0d0baffdab24f65
     Pseudo is Projector augmented-wave, Zval =  1.0
     Generated using 'atomic' code by A. Dal Corso  v.6.7MaX
     Shape of augmentation charge: PSQ
     Using radial grid of  929 points,  2 beta functions with: 
                l(1) =   0
                l(2) =   0
     Q(r) pseudized with 0 coefficients 


     atomic species   valence    mass     pseudopotential
        Pt            10.00   195.08400     Pt( 1.00)
        C              4.00    12.01100     C ( 1.00)
        H              1.00     1.00800     H ( 1.00)

     No symmetry found



   Cartesian axes

     site n.     atom                  positions (alat units)
         1           Pt  tau(   1) = (   0.0000000   0.0000000   1.0017346  )
         2           Pt  tau(   2) = (   0.3333333   0.0000000   1.0017346  )
         3           Pt  tau(   3) = (   0.6666667   0.0000000   1.0017346  )
         4           Pt  tau(   4) = (   0.1666667   0.2886751   1.0017346  )
         5           Pt  tau(   5) = (   0.5000000   0.2886751   1.0017346  )
         6           Pt  tau(   6) = (   0.8333333   0.2886751   1.0017346  )
         7           Pt  tau(   7) = (   0.3333333   0.5773503   1.0017346  )
         8           Pt  tau(   8) = (   0.6666667   0.5773503   1.0017346  )
         9           Pt  tau(   9) = (   1.0000000   0.5773503   1.0017346  )
        10           Pt  tau(  10) = (   0.1666667   0.0962250   1.2739001  )
        11           Pt  tau(  11) = (   0.5000000   0.0962250   1.2739001  )
        12           Pt  tau(  12) = (   0.8333333   0.0962250   1.2739001  )
        13           Pt  tau(  13) = (   0.3333333   0.3849002   1.2739001  )
        14           Pt  tau(  14) = (   0.6666667   0.3849002   1.2739001  )
        15           Pt  tau(  15) = (   1.0000000   0.3849002   1.2739001  )
        16           Pt  tau(  16) = (   0.5000000   0.6735753   1.2739001  )
        17           Pt  tau(  17) = (   0.8333333   0.6735753   1.2739001  )
        18           Pt  tau(  18) = (   1.1666667   0.6735753   1.2739001  )
        19           Pt  tau(  19) = (   0.0015295   0.1944500   1.5491157  )
        20           Pt  tau(  20) = (   0.3400229   0.1946793   1.5476641  )
        21           Pt  tau(  21) = (   0.6686056   0.1914472   1.5476571  )
        22           Pt  tau(  22) = (   0.1666013   0.4814553   1.5489653  )
        23           Pt  tau(  23) = (   0.5020687   0.4784073   1.5471272  )
        24           Pt  tau(  24) = (   0.8366684   0.4791001   1.5449900  )
        25           Pt  tau(  25) = (   0.3369024   0.7677332   1.5413492  )
        26           Pt  tau(  26) = (   0.6698269   0.7714139   1.5398233  )
        27           Pt  tau(  27) = (   1.0018853   0.7656947   1.5450704  )
        28           Pt  tau(  28) = (   0.0073859  -0.0035919   1.8156713  )
        29           Pt  tau(  29) = (   0.3406522   0.0018451   1.8161974  )
        30           Pt  tau(  30) = (   0.6707667  -0.0143784   1.8123144  )
        31           Pt  tau(  31) = (   0.1796568   0.2841049   1.8205751  )
        32           Pt  tau(  32) = (   0.5099645   0.2861154   1.8559447  )
        33           Pt  tau(  33) = (   0.8374067   0.2714390   1.8370016  )
        34           Pt  tau(  34) = (   0.3381319   0.5726262   1.8205631  )
        35           Pt  tau(  35) = (   0.6693611   0.5828861   1.8130890  )
        36           Pt  tau(  36) = (   1.0093745   0.5717357   1.8494543  )
        37           C   tau(  37) = (   0.6776941   0.2762721   2.0285919  )
        38           C   tau(  38) = (   0.7500443   0.4226285   2.1081699  )
        39           C   tau(  39) = (   0.8236729   0.4870352   1.9594230  )
        40           H   tau(  40) = (   0.6699480   0.1710192   2.1019471  )
        41           H   tau(  41) = (   0.6658509   0.5029364   2.1644888  )
        42           H   tau(  42) = (   0.8385229   0.3869649   2.1967178  )

     number of k points=    13  Marzari-Vanderbilt smearing, width (Ry)=  0.0200
                       cart. coord. in units 2pi/alat
        k(    1) = (   0.0000000   0.0000000   0.0000000), wk =   0.0800000
        k(    2) = (   0.0000000   0.2309401   0.0000000), wk =   0.1600000
        k(    3) = (   0.0000000   0.4618802   0.0000000), wk =   0.1600000
        k(    4) = (   0.2000000  -0.1154701   0.0000000), wk =   0.1600000
        k(    5) = (   0.2000000   0.1154701   0.0000000), wk =   0.1600000
        k(    6) = (   0.2000000   0.3464102   0.0000000), wk =   0.1600000
        k(    7) = (   0.2000000  -0.5773503   0.0000000), wk =   0.1600000
        k(    8) = (   0.2000000  -0.3464102   0.0000000), wk =   0.1600000
        k(    9) = (   0.4000000  -0.2309401   0.0000000), wk =   0.1600000
        k(   10) = (   0.4000000  -0.0000000   0.0000000), wk =   0.1600000
        k(   11) = (   0.4000000   0.2309401   0.0000000), wk =   0.1600000
        k(   12) = (   0.4000000  -0.6928203   0.0000000), wk =   0.1600000
        k(   13) = (   0.4000000  -0.4618802   0.0000000), wk =   0.1600000

     Dense  grid:   716215 G-vectors     FFT dimensions: (  80,  80, 256)

     Estimated max dynamical RAM per process >       8.69 GB

     Check: negative core charge=   -0.000002

     Initial potential from superposition of free atoms

     starting charge  374.99374, renormalised to  375.00000

     negative rho (up, down):  1.155E-02 0.000E+00


     %%%%%%%%%%%%%%%%%%%%%%%%%%%%%%%%%%%%%%%%%%%%%%%%%%%%%%%%%%%%%%%%%%%%%%%%
     %                                                                      %
     % You are using vdW-DF, which was implemented by the Thonhauser group. %
     % Please cite the following two papers that made this development      %
     % possible and the two reviews that describe the various versions:     %
     %                                                                      %
     %   T. Thonhauser et al., PRL 115, 136402 (2015).                      %
     %   T. Thonhauser et al., PRB 76, 125112 (2007).                       %
     %   K. Berland et al., Rep. Prog. Phys. 78, 066501 (2015).             %
     %   D.C. Langreth et al., J. Phys.: Condens. Matter 21, 084203 (2009). %
     %                                                                      %
     %                                                                      %
     % If you are calculating the stress with vdW-DF, please also cite:     %
     %                                                                      %
     %   R. Sabatini et al., J. Phys.: Condens. Matter 24, 424209 (2012).   %
     %                                                                      %
     %%%%%%%%%%%%%%%%%%%%%%%%%%%%%%%%%%%%%%%%%%%%%%%%%%%%%%%%%%%%%%%%%%%%%%%%


     Starting wfcs are  339 randomized atomic wfcs
     Checking if some PAW data can be deallocated... 

     total cpu time spent up to now is      352.6 secs

     Self-consistent Calculation

     iteration #  1     ecut=    60.00 Ry     beta= 0.70
     Davidson diagonalization with overlap
     ethr =  1.00E-02,  avg # of iterations =  2.5

     Threshold (ethr) on eigenvalues was too large:
     Diagonalizing with lowered threshold

     Davidson diagonalization with overlap
     ethr =  8.10E-04,  avg # of iterations =  3.1

     negative rho (up, down):  1.213E-02 0.000E+00

     total cpu time spent up to now is     1676.0 secs

     total energy              =  -27814.46436204 Ry
     estimated scf accuracy    <       3.34592463 Ry

     iteration #  2     ecut=    60.00 Ry     beta= 0.70
     Davidson diagonalization with overlap
     ethr =  8.92E-04,  avg # of iterations =  2.0

     negative rho (up, down):  1.026E-02 0.000E+00

     total cpu time spent up to now is     2230.1 secs

     total energy              =  -27814.70936953 Ry
     estimated scf accuracy    <       1.44458522 Ry

     iteration #  3     ecut=    60.00 Ry     beta= 0.70
     Davidson diagonalization with overlap
     ethr =  3.85E-04,  avg # of iterations =  5.9

     negative rho (up, down):  7.930E-03 0.000E+00

     total cpu time spent up to now is     2847.6 secs

     total energy              =  -27814.77185162 Ry
     estimated scf accuracy    <       0.65350573 Ry

     iteration #  4     ecut=    60.00 Ry     beta= 0.70
     Davidson diagonalization with overlap
     c_bands:  1 eigenvalues not converged
     ethr =  1.74E-04,  avg # of iterations =  7.2

     negative rho (up, down):  5.792E-03 0.000E+00

     total cpu time spent up to now is     3486.9 secs

     total energy              =  -27814.81262431 Ry
     estimated scf accuracy    <       0.14382044 Ry

     iteration #  5     ecut=    60.00 Ry     beta= 0.70
     Davidson diagonalization with overlap
     c_bands:  1 eigenvalues not converged
     ethr =  3.84E-05,  avg # of iterations = 10.6

     negative rho (up, down):  4.461E-03 0.000E+00

     total cpu time spent up to now is     4341.2 secs

     total energy              =  -27814.84101785 Ry
     estimated scf accuracy    <       0.07912783 Ry

     iteration #  6     ecut=    60.00 Ry     beta= 0.70
     Davidson diagonalization with overlap
     ethr =  2.11E-05,  avg # of iterations =  2.4

     negative rho (up, down):  3.506E-03 0.000E+00

     total cpu time spent up to now is     4902.8 secs

     total energy              =  -27814.84344180 Ry
     estimated scf accuracy    <       0.01143617 Ry

     iteration #  7     ecut=    60.00 Ry     beta= 0.70
     Davidson diagonalization with overlap
     c_bands:  3 eigenvalues not converged
     c_bands:  2 eigenvalues not converged
     c_bands:  2 eigenvalues not converged
     ethr =  3.05E-06,  avg # of iterations = 15.6

     negative rho (up, down):  3.250E-03 0.000E+00

     total cpu time spent up to now is     5823.6 secs

     total energy              =  -27814.84575753 Ry
     estimated scf accuracy    <       0.00505205 Ry

     iteration #  8     ecut=    60.00 Ry     beta= 0.70
     Davidson diagonalization with overlap
     ethr =  1.35E-06,  avg # of iterations =  4.6

     negative rho (up, down):  3.225E-03 0.000E+00

     total cpu time spent up to now is     6406.3 secs

     total energy              =  -27814.84622858 Ry
     estimated scf accuracy    <       0.00256910 Ry

     iteration #  9     ecut=    60.00 Ry     beta= 0.70
     Davidson diagonalization with overlap
     ethr =  6.85E-07,  avg # of iterations =  3.5

     negative rho (up, down):  3.584E-03 0.000E+00

     total cpu time spent up to now is     6964.3 secs

     total energy              =  -27814.84644133 Ry
     estimated scf accuracy    <       0.00170114 Ry

     iteration # 10     ecut=    60.00 Ry     beta= 0.70
     Davidson diagonalization with overlap
     ethr =  4.54E-07,  avg # of iterations =  6.7

     negative rho (up, down):  4.322E-03 0.000E+00

     total cpu time spent up to now is     7564.7 secs

     total energy              =  -27814.84651914 Ry
     estimated scf accuracy    <       0.00164632 Ry

     iteration # 11     ecut=    60.00 Ry     beta= 0.70
     Davidson diagonalization with overlap
     c_bands:  1 eigenvalues not converged
     ethr =  4.39E-07,  avg # of iterations =  6.0

     negative rho (up, down):  8.017E-03 0.000E+00

     total cpu time spent up to now is     8132.7 secs

     total energy              =  -27814.84647306 Ry
     estimated scf accuracy    <       0.00121006 Ry

     iteration # 12     ecut=    60.00 Ry     beta= 0.70
     Davidson diagonalization with overlap
     ethr =  3.23E-07,  avg # of iterations =  5.3

     negative rho (up, down):  9.662E-03 0.000E+00

     total cpu time spent up to now is     8722.4 secs

     total energy              =  -27814.84649104 Ry
     estimated scf accuracy    <       0.00055464 Ry

     iteration # 13     ecut=    60.00 Ry     beta= 0.70
     Davidson diagonalization with overlap
     ethr =  1.48E-07,  avg # of iterations =  1.3

     negative rho (up, down):  1.157E-02 0.000E+00

     total cpu time spent up to now is     9260.7 secs

     total energy              =  -27814.84652991 Ry
     estimated scf accuracy    <       0.00016908 Ry

     iteration # 14     ecut=    60.00 Ry     beta= 0.70
     Davidson diagonalization with overlap
     ethr =  4.51E-08,  avg # of iterations =  3.9

     negative rho (up, down):  1.119E-02 0.000E+00

     total cpu time spent up to now is     9918.9 secs

     total energy              =  -27814.84656214 Ry
     estimated scf accuracy    <       0.00005480 Ry

     iteration # 15     ecut=    60.00 Ry     beta= 0.70
     Davidson diagonalization with overlap
     ethr =  1.46E-08,  avg # of iterations =  4.0

     negative rho (up, down):  1.210E-02 0.000E+00

     total cpu time spent up to now is    10604.7 secs

     total energy              =  -27814.84657305 Ry
     estimated scf accuracy    <       0.00004067 Ry

     iteration # 16     ecut=    60.00 Ry     beta= 0.70
     Davidson diagonalization with overlap
     ethr =  1.08E-08,  avg # of iterations =  1.9

     negative rho (up, down):  1.234E-02 0.000E+00

     total cpu time spent up to now is    11149.8 secs

     total energy              =  -27814.84657549 Ry
     estimated scf accuracy    <       0.00000516 Ry

     iteration # 17     ecut=    60.00 Ry     beta= 0.70
     Davidson diagonalization with overlap
     ethr =  1.38E-09,  avg # of iterations =  5.2

     negative rho (up, down):  1.242E-02 0.000E+00

     total cpu time spent up to now is    12111.4 secs

     total energy              =  -27814.84657759 Ry
     estimated scf accuracy    <       0.00000905 Ry

     iteration # 18     ecut=    60.00 Ry     beta= 0.70
     Davidson diagonalization with overlap
     ethr =  1.38E-09,  avg # of iterations =  1.0

     negative rho (up, down):  1.263E-02 0.000E+00

     total cpu time spent up to now is    12646.7 secs

     total energy              =  -27814.84657706 Ry
     estimated scf accuracy    <       0.00000279 Ry

     iteration # 19     ecut=    60.00 Ry     beta= 0.70
     Davidson diagonalization with overlap
     ethr =  7.43E-10,  avg # of iterations =  1.0

     negative rho (up, down):  1.284E-02 0.000E+00

     total cpu time spent up to now is    13184.9 secs

     total energy              =  -27814.84657662 Ry
     estimated scf accuracy    <       0.00000206 Ry

     iteration # 20     ecut=    60.00 Ry     beta= 0.70
     Davidson diagonalization with overlap
     ethr =  5.49E-10,  avg # of iterations =  1.0

     negative rho (up, down):  1.293E-02 0.000E+00

     total cpu time spent up to now is    13689.3 secs

     End of self-consistent calculation

          k = 0.0000 0.0000 0.0000 ( 89551 PWs)   bands (ev):

   -13.9942  -9.9569  -8.4989  -6.6462  -5.8058  -5.4099  -5.1868  -4.4441
    -4.3914  -4.3057  -4.2941  -4.2691  -4.2420  -4.2304  -4.1696  -4.1454
    -3.8209  -3.7506  -3.7338  -3.7125  -3.7061  -3.6763  -3.5287  -3.4732
    -3.3851  -3.2815  -3.2587  -3.1566  -3.1229  -3.0915  -3.0758  -3.0474
    -3.0368  -2.9999  -2.9622  -2.9281  -2.9140  -2.8780  -2.8585  -2.8097
    -2.7780  -2.7665  -2.7636  -2.7365  -2.6960  -2.5255  -2.4670  -2.4053
    -2.3386  -2.3008  -2.2233  -2.2149  -2.2036  -2.1691  -2.1391  -2.0797
    -2.0384  -1.9920  -1.9562  -1.9419  -1.9018  -1.7897  -1.6386  -1.5807
    -1.5176  -1.4691  -1.4413  -1.4250  -1.3885  -1.3635  -1.3437  -1.2632
    -1.2472  -1.2365  -1.2286  -1.2054  -1.1987  -1.1723  -1.1624  -1.1526
    -1.1259  -1.1111  -1.1069  -1.0934  -1.0754  -1.0611  -1.0400  -1.0326
    -1.0047  -0.9856  -0.9486  -0.9358  -0.8426  -0.8263  -0.7870  -0.7600
    -0.7527  -0.7139  -0.7007  -0.6929  -0.6640  -0.6521  -0.6196  -0.5764
    -0.5697  -0.5381  -0.5291  -0.5275  -0.5154  -0.4680  -0.4250  -0.4049
    -0.3646  -0.3188  -0.2740  -0.2038  -0.1542  -0.0782  -0.0374   0.0279
     0.0605   0.1092   0.1454   0.2095   0.2417   0.2578   0.2963   0.2999
     0.3216   0.3389   0.3433   0.3766   0.3895   0.3982   0.4492   0.4969
     0.6013   0.6118   0.6312   0.6435   0.7155   0.7296   0.7815   0.8287
     0.8445   0.8739   0.8859   0.8942   0.9335   0.9579   0.9953   1.0176
     1.0764   1.1113   1.1153   1.1708   1.1810   1.1909   1.2254   1.2676
     1.2705   1.2761   1.2975   1.3106   1.3192   1.3379   1.3506   1.3570
     1.3655   1.3817   1.3867   1.4325   1.4552   1.4907   1.5026   1.5276
     1.5406   1.5523   1.5834   1.6213   1.6408   1.6477   1.6623   1.6746
     1.6888   1.6953   1.7416   1.7492   1.7578   1.7813   1.7898   1.8426
     1.8476   1.9595   1.9717   2.0259   2.0437   2.0882   2.1055   2.1235
     2.1410   2.3633   2.4764   2.6045   2.6982   2.9030   2.9632   2.9928
     3.5838   3.9956   4.2060   4.8317   5.0137   5.2268   5.2683   5.5107
     5.7887   5.9770   6.0589   6.7017   6.8302   6.9132   6.9444   6.9919
     7.0365   7.0665

          k = 0.0000 0.2309 0.0000 ( 89460 PWs)   bands (ev):

   -13.9938  -9.9588  -8.4875  -6.5064  -5.7944  -5.3405  -5.1329  -4.7619
    -4.4264  -4.3782  -4.2931  -4.2198  -4.1670  -4.0478  -4.0189  -4.0056
    -3.8627  -3.7887  -3.7583  -3.6765  -3.6378  -3.6267  -3.4906  -3.4204
    -3.3229  -3.3063  -3.2119  -3.1812  -3.1432  -3.1158  -3.1048  -3.0606
    -3.0365  -3.0028  -2.9816  -2.9391  -2.9248  -2.8836  -2.8475  -2.8328
    -2.7472  -2.7061  -2.6596  -2.6348  -2.5964  -2.5315  -2.4759  -2.4233
    -2.3491  -2.3328  -2.3159  -2.2947  -2.2508  -2.2079  -2.1082  -2.0783
    -2.0404  -2.0088  -1.9371  -1.9215  -1.8685  -1.8353  -1.7295  -1.6654
    -1.6271  -1.5989  -1.5552  -1.5305  -1.5047  -1.4940  -1.4540  -1.4247
    -1.3671  -1.3568  -1.3259  -1.2900  -1.2491  -1.2383  -1.2319  -1.1846
    -1.1670  -1.1174  -1.0823  -1.0546  -1.0448  -1.0274  -0.9991  -0.9873
    -0.9723  -0.9431  -0.9248  -0.8869  -0.8521  -0.8336  -0.8159  -0.7873
    -0.7729  -0.7441  -0.7173  -0.6906  -0.6784  -0.6562  -0.6320  -0.6275
    -0.5950  -0.5871  -0.5792  -0.5660  -0.5299  -0.5040  -0.4637  -0.4179
    -0.3567  -0.3344  -0.3140  -0.2938  -0.2852  -0.2800  -0.2280  -0.1934
    -0.0899  -0.0320   0.0127   0.0925   0.1172   0.1221   0.1571   0.1703
     0.2226   0.2751   0.3247   0.3582   0.3972   0.4288   0.4779   0.5018
     0.5381   0.5520   0.5828   0.5937   0.6321   0.6814   0.7123   0.7339
     0.7642   0.7972   0.8286   0.8430   0.8760   0.8854   0.9285   0.9547
     0.9937   1.0200   1.0779   1.0895   1.1179   1.1633   1.1839   1.2181
     1.2488   1.2862   1.3013   1.3231   1.3449   1.3795   1.3898   1.4279
     1.4544   1.5113   1.5584   1.5727   1.6048   1.6183   1.6328   1.6510
     1.6907   1.7004   1.7345   1.7491   1.7837   1.8083   1.8260   1.8378
     1.8987   1.9460   1.9644   1.9780   2.0051   2.0351   2.0579   2.0689
     2.0769   2.1009   2.1190   2.1854   2.2265   2.2457   2.2915   2.3622
     2.3845   2.4381   2.5085   2.6978   2.9757   3.0912   3.4107   3.5902
     3.7276   3.9972   4.1467   4.7396   4.8956   5.1669   5.4328   5.6831
     5.8316   5.9058   6.0607   6.1583   6.2252   6.7147   6.8026   6.8149
     7.0016   7.1219

          k = 0.0000 0.4619 0.0000 ( 89494 PWs)   bands (ev):

   -13.9932  -9.9618  -8.4692  -6.1111  -5.7771  -5.4744  -5.2422  -4.8242
    -4.4444  -4.4029  -4.3307  -4.1742  -4.0719  -3.9558  -3.8662  -3.7816
    -3.7185  -3.6790  -3.6413  -3.6068  -3.5301  -3.4688  -3.4525  -3.4405
    -3.3526  -3.3018  -3.2890  -3.2791  -3.2398  -3.2205  -3.1943  -3.1122
    -3.0925  -3.0562  -2.8961  -2.8855  -2.8561  -2.8385  -2.8113  -2.7218
    -2.6859  -2.6606  -2.6195  -2.6113  -2.5880  -2.5409  -2.4538  -2.4328
    -2.3835  -2.3325  -2.3166  -2.2650  -2.2398  -2.1962  -2.1701  -2.1386
    -2.1153  -2.0665  -2.0319  -1.9684  -1.9580  -1.8979  -1.8760  -1.7888
    -1.7757  -1.7334  -1.7056  -1.6887  -1.6402  -1.5928  -1.5574  -1.5210
    -1.4971  -1.4614  -1.4208  -1.3906  -1.3591  -1.3354  -1.3134  -1.2747
    -1.2260  -1.1972  -1.1687  -1.1404  -1.1064  -1.0969  -1.0691  -1.0346
    -1.0108  -1.0022  -0.9758  -0.9555  -0.9312  -0.9138  -0.8923  -0.8723
    -0.8364  -0.7987  -0.7849  -0.7654  -0.7266  -0.7141  -0.6893  -0.6259
    -0.6054  -0.5953  -0.5642  -0.5422  -0.5267  -0.4881  -0.4367  -0.3946
    -0.3813  -0.3315  -0.3084  -0.2924  -0.2509  -0.2184  -0.2076  -0.1438
    -0.0861  -0.0434  -0.0215  -0.0097   0.0340   0.0611   0.0753   0.1164
     0.1335   0.1524   0.1779   0.2179   0.2355   0.2504   0.2997   0.3188
     0.3514   0.3866   0.4407   0.4619   0.5126   0.5375   0.6181   0.6696
     0.7106   0.7495   0.7833   0.8275   0.8615   0.8902   0.9062   0.9681
     0.9784   1.0120   1.0295   1.0569   1.1036   1.1295   1.1595   1.1692
     1.2042   1.2360   1.2760   1.2848   1.3631   1.3876   1.4149   1.4620
     1.4980   1.5713   1.5931   1.6497   1.6689   1.6831   1.7131   1.7362
     1.7826   1.7983   1.8307   1.8586   1.9263   1.9353   1.9457   1.9727
     2.0098   2.0156   2.0623   2.1063   2.1539   2.2238   2.2539   2.2605
     2.2887   2.3162   2.4827   2.5108   2.5700   2.7079   2.8021   3.0212
     3.2290   3.3072   3.4154   3.5224   3.6127   3.8405   3.9119   4.0811
     4.2428   4.3860   4.5769   4.6373   4.6770   4.8221   4.9720   5.1027
     5.3664   5.4661   5.6490   5.7655   6.0706   6.2105   6.4031   6.6276
     6.8107   6.9287

          k = 0.2000-0.1155 0.0000 ( 89460 PWs)   bands (ev):

   -13.9939  -9.9561  -8.4897  -6.5073  -5.7941  -5.3686  -5.1130  -4.7376
    -4.4352  -4.3837  -4.2762  -4.2229  -4.1648  -4.0502  -4.0095  -3.9989
    -3.8991  -3.8084  -3.6919  -3.6646  -3.6498  -3.6282  -3.4935  -3.4126
    -3.3214  -3.3007  -3.2422  -3.1867  -3.1572  -3.1223  -3.1113  -3.0465
    -3.0169  -3.0024  -2.9682  -2.9413  -2.9353  -2.9083  -2.8911  -2.8405
    -2.7837  -2.7078  -2.6646  -2.6244  -2.5748  -2.5461  -2.4734  -2.3910
    -2.3456  -2.3275  -2.3152  -2.2833  -2.2356  -2.1844  -2.1389  -2.0865
    -2.0422  -2.0142  -1.9672  -1.9332  -1.9060  -1.8172  -1.7177  -1.6590
    -1.6144  -1.6043  -1.5758  -1.5423  -1.4961  -1.4774  -1.4537  -1.4183
    -1.3726  -1.3646  -1.3122  -1.3023  -1.2647  -1.2513  -1.2185  -1.1838
    -1.1544  -1.1108  -1.0901  -1.0610  -1.0431  -1.0295  -0.9905  -0.9833
    -0.9695  -0.9515  -0.9246  -0.8912  -0.8591  -0.8334  -0.8085  -0.7900
    -0.7696  -0.7507  -0.7053  -0.6974  -0.6686  -0.6525  -0.6293  -0.6203
    -0.6036  -0.5856  -0.5620  -0.5452  -0.5066  -0.4848  -0.4650  -0.3947
    -0.3622  -0.3451  -0.3244  -0.2908  -0.2843  -0.2798  -0.2592  -0.1908
    -0.0817  -0.0159   0.0198   0.0833   0.1203   0.1493   0.1741   0.2173
     0.2480   0.2958   0.3140   0.3711   0.4002   0.4198   0.4486   0.4960
     0.5132   0.5507   0.5644   0.5918   0.6336   0.6896   0.7274   0.7552
     0.7680   0.7800   0.8054   0.8483   0.8941   0.9141   0.9360   0.9570
     1.0102   1.0482   1.0816   1.1053   1.1228   1.1474   1.1896   1.2292
     1.2512   1.2810   1.2962   1.3242   1.3318   1.3479   1.4015   1.4246
     1.4476   1.5002   1.5297   1.5726   1.6021   1.6273   1.6371   1.6477
     1.6811   1.7107   1.7341   1.7510   1.7729   1.8060   1.8329   1.8428
     1.8972   1.9242   1.9622   1.9840   2.0089   2.0185   2.0469   2.0596
     2.0728   2.0949   2.1067   2.1521   2.2166   2.2472   2.2912   2.3457
     2.3919   2.4208   2.5897   2.6538   2.9151   3.1045   3.3915   3.6063
     3.7404   3.9497   4.2368   4.8177   4.8830   5.0343   5.3660   5.6645
     5.8057   5.9038   6.0517   6.1366   6.3321   6.7391   6.8093   6.8868
     6.9648   7.1387

          k = 0.2000 0.1155 0.0000 ( 89460 PWs)   bands (ev):

   -13.9938  -9.9587  -8.4866  -6.5060  -5.7875  -5.3329  -5.1269  -4.7893
    -4.4085  -4.3682  -4.2841  -4.2526  -4.1657  -4.0545  -4.0132  -3.9933
    -3.8742  -3.7976  -3.7453  -3.6740  -3.6564  -3.6213  -3.4639  -3.3845
    -3.3451  -3.3089  -3.2371  -3.2082  -3.1582  -3.1257  -3.0824  -3.0495
    -3.0271  -3.0132  -2.9746  -2.9595  -2.9330  -2.8950  -2.8810  -2.8335
    -2.7590  -2.7442  -2.6611  -2.6051  -2.5818  -2.5267  -2.4658  -2.3978
    -2.3736  -2.3211  -2.2978  -2.2736  -2.2388  -2.1725  -2.1445  -2.0955
    -2.0468  -1.9916  -1.9703  -1.9240  -1.8817  -1.8358  -1.7000  -1.6616
    -1.6047  -1.5880  -1.5676  -1.5291  -1.5206  -1.4712  -1.4422  -1.4295
    -1.3968  -1.3777  -1.3270  -1.3000  -1.2579  -1.2271  -1.2084  -1.1864
    -1.1530  -1.1192  -1.0954  -1.0762  -1.0445  -1.0298  -1.0046  -0.9860
    -0.9730  -0.9528  -0.9292  -0.8955  -0.8668  -0.8311  -0.8063  -0.7937
    -0.7666  -0.7477  -0.7137  -0.7021  -0.6721  -0.6355  -0.6283  -0.6160
    -0.5994  -0.5901  -0.5636  -0.5220  -0.5053  -0.4627  -0.4542  -0.4000
    -0.3700  -0.3484  -0.3162  -0.3021  -0.2855  -0.2793  -0.2411  -0.1889
    -0.1080  -0.0220   0.0117   0.0628   0.1041   0.1204   0.1564   0.2405
     0.2597   0.2994   0.3252   0.3456   0.3844   0.4432   0.4607   0.4925
     0.5243   0.5467   0.5781   0.5986   0.6440   0.6958   0.6999   0.7234
     0.7596   0.7894   0.8330   0.8683   0.8909   0.9173   0.9343   0.9491
     1.0126   1.0403   1.0798   1.0958   1.1029   1.1276   1.1790   1.2035
     1.2579   1.2863   1.3049   1.3201   1.3467   1.3588   1.3898   1.4348
     1.4703   1.4945   1.5247   1.5729   1.5885   1.6148   1.6293   1.6567
     1.6825   1.7036   1.7245   1.7570   1.7787   1.8122   1.8250   1.8387
     1.9018   1.9198   1.9525   1.9844   2.0008   2.0296   2.0489   2.0605
     2.0817   2.0995   2.1338   2.1929   2.2255   2.2486   2.2835   2.3498
     2.3854   2.4357   2.5431   2.6373   2.9877   3.1804   3.3377   3.5592
     3.6939   4.0212   4.1258   4.8413   4.9680   5.1301   5.2740   5.7057
     5.8274   5.9528   6.0546   6.1059   6.2892   6.6877   6.8093   6.8327
     7.0263   7.1152

          k = 0.2000 0.3464 0.0000 ( 89466 PWs)   bands (ev):

   -13.9933  -9.9619  -8.4709  -6.2343  -5.7673  -5.2972  -5.0271  -5.0109
    -4.8950  -4.2742  -4.1150  -4.0445  -3.9609  -3.9414  -3.9085  -3.8828
    -3.8548  -3.8394  -3.7506  -3.7282  -3.5427  -3.4535  -3.3994  -3.3657
    -3.3382  -3.3099  -3.2747  -3.2424  -3.2128  -3.1371  -3.1042  -3.0651
    -3.0433  -3.0307  -2.9990  -2.9760  -2.9292  -2.8972  -2.8697  -2.8206
    -2.7844  -2.7522  -2.6248  -2.5666  -2.4951  -2.4791  -2.4414  -2.4124
    -2.3655  -2.3382  -2.2985  -2.2729  -2.2146  -2.1726  -2.1437  -2.1316
    -2.0737  -2.0447  -1.9595  -1.9363  -1.9159  -1.8873  -1.8450  -1.7959
    -1.7521  -1.6941  -1.6649  -1.6439  -1.6000  -1.5807  -1.5428  -1.5216
    -1.4843  -1.4426  -1.3995  -1.3628  -1.3426  -1.3147  -1.2966  -1.2770
    -1.2469  -1.1964  -1.1570  -1.1276  -1.1036  -1.0705  -1.0443  -1.0359
    -0.9996  -0.9739  -0.9577  -0.9286  -0.8967  -0.8778  -0.8636  -0.8425
    -0.8319  -0.8006  -0.7495  -0.7368  -0.7171  -0.6648  -0.6478  -0.6370
    -0.6088  -0.5884  -0.5679  -0.5483  -0.5285  -0.5069  -0.4937  -0.4808
    -0.4548  -0.3934  -0.3766  -0.3412  -0.2929  -0.2503  -0.2166  -0.1881
    -0.1313  -0.0667  -0.0187   0.0179   0.0296   0.0707   0.1088   0.1223
     0.1503   0.1965   0.2292   0.2676   0.2857   0.3129   0.3798   0.4093
     0.4341   0.4745   0.5123   0.5183   0.5468   0.6026   0.6331   0.6859
     0.7056   0.7424   0.7528   0.7815   0.8261   0.8837   0.8955   0.9428
     0.9602   0.9780   1.0235   1.0563   1.0815   1.1054   1.1278   1.1524
     1.1675   1.2210   1.2645   1.3019   1.3491   1.4012   1.4842   1.5464
     1.5827   1.6072   1.6453   1.6604   1.7003   1.7388   1.7568   1.7816
     1.8199   1.8344   1.8534   1.8790   1.8810   1.9151   1.9417   1.9652
     2.0069   2.0222   2.0490   2.0689   2.0882   2.1438   2.1799   2.2505
     2.2916   2.3175   2.3314   2.3895   2.4775   2.4991   2.6173   2.8084
     2.9560   3.0307   3.2406   3.3630   3.4905   3.5600   3.7125   4.0516
     4.1273   4.2419   4.4141   4.5629   4.7041   4.8915   5.2443   5.4352
     5.6887   5.7875   5.9967   6.1391   6.2521   6.3292   6.4123   6.4775
     6.6326   6.6473

          k = 0.2000-0.5774 0.0000 ( 89458 PWs)   bands (ev):

   -13.9930  -9.9613  -8.4643  -5.8534  -5.6906  -5.6521  -5.2784  -5.0452
    -4.5724  -4.4279  -4.1878  -4.0326  -3.9468  -3.8585  -3.7919  -3.7557
    -3.6697  -3.6438  -3.5955  -3.5568  -3.5290  -3.4635  -3.4368  -3.4226
    -3.3961  -3.3597  -3.3356  -3.2926  -3.2231  -3.2034  -3.1854  -3.1545
    -3.1062  -3.0408  -2.9836  -2.9609  -2.9193  -2.8509  -2.8321  -2.7977
    -2.7745  -2.7034  -2.6583  -2.6122  -2.5624  -2.4912  -2.4259  -2.4044
    -2.3838  -2.3119  -2.2679  -2.2494  -2.1946  -2.1443  -2.1012  -2.0861
    -2.0368  -2.0225  -1.9462  -1.9270  -1.9009  -1.8878  -1.8609  -1.8324
    -1.8064  -1.7773  -1.7511  -1.7244  -1.6785  -1.6450  -1.6235  -1.5980
    -1.5787  -1.5221  -1.4899  -1.4579  -1.4184  -1.3988  -1.3587  -1.3353
    -1.3100  -1.2783  -1.2332  -1.2075  -1.1744  -1.1427  -1.1129  -1.1011
    -1.0677  -1.0331  -0.9734  -0.9516  -0.9371  -0.9136  -0.9062  -0.8708
    -0.8228  -0.7641  -0.7463  -0.7043  -0.6839  -0.6661  -0.6528  -0.6389
    -0.6288  -0.5986  -0.5635  -0.5460  -0.5143  -0.4953  -0.4805  -0.4717
    -0.4510  -0.4326  -0.4139  -0.3494  -0.3064  -0.2383  -0.2121  -0.1534
    -0.0821  -0.0633  -0.0307  -0.0109   0.0036   0.0488   0.0644   0.0879
     0.1297   0.1445   0.1790   0.2119   0.2344   0.2581   0.3014   0.3430
     0.3680   0.4155   0.4530   0.4641   0.5145   0.5564   0.6277   0.6767
     0.6961   0.7149   0.7482   0.7729   0.8015   0.8296   0.8463   0.8854
     0.9254   0.9460   0.9788   1.0033   1.0495   1.0638   1.0947   1.1296
     1.2037   1.2428   1.3138   1.3677   1.4319   1.4625   1.5055   1.5283
     1.5928   1.6019   1.6531   1.7028   1.7289   1.7470   1.7719   1.7971
     1.8358   1.8651   1.8915   1.9442   1.9669   1.9774   1.9875   2.0120
     2.0335   2.0573   2.1063   2.1605   2.2101   2.2479   2.2571   2.2698
     2.3163   2.3296   2.3504   2.5241   2.7572   3.0435   3.0985   3.2195
     3.4346   3.4787   3.5223   3.6563   3.8134   3.8907   4.0619   4.2165
     4.4393   4.4941   4.6428   4.7941   4.9197   5.0355   5.1484   5.1740
     5.3212   5.3781   5.4967   5.6704   5.7327   5.9230   6.2723   6.4287
     6.4849   6.5842

          k = 0.2000-0.3464 0.0000 ( 89466 PWs)   bands (ev):

   -13.9934  -9.9577  -8.4759  -6.2381  -5.7820  -5.3404  -5.0242  -4.9780
    -4.8738  -4.2367  -4.1320  -4.0089  -3.9575  -3.9265  -3.9066  -3.8922
    -3.8647  -3.8531  -3.7613  -3.7330  -3.5072  -3.4446  -3.4283  -3.3827
    -3.3427  -3.3153  -3.2666  -3.2463  -3.1716  -3.1344  -3.1000  -3.0716
    -3.0624  -3.0317  -2.9974  -2.9773  -2.9201  -2.8904  -2.8585  -2.8365
    -2.7653  -2.7298  -2.6831  -2.5725  -2.5068  -2.4664  -2.4354  -2.4114
    -2.3769  -2.3347  -2.3052  -2.2701  -2.2432  -2.2201  -2.1563  -2.1112
    -2.0903  -2.0192  -1.9611  -1.9372  -1.9097  -1.8769  -1.8444  -1.8251
    -1.7759  -1.7137  -1.6739  -1.6536  -1.5916  -1.5578  -1.5421  -1.5100
    -1.4798  -1.4436  -1.4030  -1.3816  -1.3520  -1.3210  -1.2951  -1.2629
    -1.2468  -1.1926  -1.1495  -1.1205  -1.1021  -1.0872  -1.0259  -1.0088
    -0.9790  -0.9707  -0.9376  -0.9150  -0.9019  -0.8668  -0.8603  -0.8554
    -0.8325  -0.7833  -0.7725  -0.7322  -0.7027  -0.6747  -0.6529  -0.6308
    -0.6132  -0.5984  -0.5793  -0.5532  -0.5369  -0.5259  -0.5003  -0.4842
    -0.4365  -0.3936  -0.3719  -0.3361  -0.3008  -0.2558  -0.2062  -0.1725
    -0.1120  -0.1106  -0.0073   0.0219   0.0525   0.0859   0.1103   0.1368
     0.1631   0.2035   0.2400   0.2684   0.2808   0.3192   0.3429   0.3804
     0.4333   0.4761   0.5131   0.5299   0.5573   0.5752   0.6706   0.7066
     0.7273   0.7343   0.7571   0.7957   0.8230   0.8382   0.9012   0.9291
     0.9642   0.9913   1.0213   1.0558   1.0705   1.1062   1.1285   1.1559
     1.1605   1.2215   1.2483   1.3120   1.3537   1.3905   1.5159   1.5232
     1.5775   1.5919   1.6559   1.6834   1.7021   1.7380   1.7627   1.7734
     1.8127   1.8520   1.8668   1.8801   1.8952   1.9107   1.9488   1.9697
     1.9982   2.0241   2.0325   2.0607   2.1251   2.1485   2.1882   2.2535
     2.2670   2.3021   2.3282   2.3713   2.4625   2.4980   2.5240   2.8162
     3.0129   3.0896   3.2097   3.3701   3.4771   3.5956   3.7293   3.9392
     4.2011   4.3083   4.4082   4.4780   4.7035   4.8037   5.2382   5.4355
     5.6991   5.7599   5.9172   6.1345   6.2227   6.3487   6.3985   6.4947
     6.6891   6.7314

          k = 0.4000-0.2309 0.0000 ( 89494 PWs)   bands (ev):

   -13.9934  -9.9547  -8.4748  -6.1122  -5.7811  -5.5205  -5.2142  -4.7907
    -4.4448  -4.4096  -4.2910  -4.1720  -4.0369  -3.9581  -3.8873  -3.7808
    -3.7066  -3.6752  -3.6383  -3.6030  -3.4970  -3.4722  -3.4452  -3.4318
    -3.3405  -3.3328  -3.2848  -3.2675  -3.2394  -3.2258  -3.2023  -3.1467
    -3.1156  -3.0583  -3.0144  -2.9006  -2.8806  -2.8462  -2.8114  -2.7946
    -2.7146  -2.6783  -2.6487  -2.6080  -2.5691  -2.4992  -2.4522  -2.4170
    -2.3819  -2.3228  -2.2857  -2.2616  -2.2303  -2.2072  -2.1525  -2.1249
    -2.1086  -2.0955  -2.0178  -1.9795  -1.9599  -1.9287  -1.8954  -1.8406
    -1.7789  -1.7527  -1.7265  -1.6856  -1.6435  -1.6016  -1.5516  -1.5023
    -1.4817  -1.4572  -1.4041  -1.3974  -1.3900  -1.3060  -1.2707  -1.2269
    -1.2119  -1.1807  -1.1697  -1.1225  -1.1062  -1.0893  -1.0586  -1.0362
    -1.0200  -1.0046  -0.9772  -0.9571  -0.9424  -0.8910  -0.8775  -0.8553
    -0.8456  -0.8158  -0.7924  -0.7677  -0.7495  -0.7161  -0.6557  -0.6220
    -0.6019  -0.5928  -0.5526  -0.5167  -0.4906  -0.4467  -0.4048  -0.3873
    -0.3796  -0.3289  -0.3113  -0.3015  -0.2616  -0.2170  -0.1761  -0.1337
    -0.1059  -0.0452  -0.0235  -0.0116   0.0440   0.0578   0.0826   0.1019
     0.1165   0.1413   0.1837   0.2231   0.2517   0.2775   0.2995   0.3366
     0.3776   0.4087   0.4219   0.4592   0.4926   0.5543   0.6321   0.6620
     0.7202   0.7646   0.7798   0.8047   0.8758   0.9105   0.9255   0.9791
     0.9927   1.0167   1.0349   1.0704   1.1113   1.1281   1.1621   1.2016
     1.2260   1.2510   1.2733   1.2952   1.3451   1.3933   1.4337   1.4488
     1.4960   1.5296   1.6002   1.6425   1.6661   1.6795   1.6899   1.7369
     1.7645   1.8013   1.8338   1.8812   1.9187   1.9361   1.9515   1.9731
     1.9904   2.0170   2.0354   2.0866   2.1418   2.2212   2.2349   2.2551
     2.2703   2.3185   2.4602   2.5087   2.5510   2.6238   2.8527   3.0186
     3.1266   3.2759   3.4178   3.5308   3.5971   3.8168   3.9354   4.1132
     4.2546   4.4414   4.5642   4.6138   4.6944   4.8024   4.8827   4.9684
     5.2313   5.5227   5.6827   5.8169   5.9050   6.2946   6.4623   6.6772
     6.8431   6.9702

          k = 0.4000-0.0000 0.0000 ( 89466 PWs)   bands (ev):

   -13.9934  -9.9575  -8.4744  -6.2363  -5.7710  -5.3280  -5.0358  -4.9628
    -4.8915  -4.2575  -4.1219  -3.9889  -3.9548  -3.9388  -3.9169  -3.9013
    -3.8922  -3.8068  -3.7537  -3.7302  -3.5341  -3.4261  -3.3947  -3.3770
    -3.3351  -3.2877  -3.2730  -3.2433  -3.2221  -3.1610  -3.1265  -3.0952
    -3.0629  -3.0436  -3.0154  -2.9668  -2.9319  -2.8978  -2.8748  -2.8531
    -2.8126  -2.7502  -2.6914  -2.5861  -2.5273  -2.4478  -2.4257  -2.3720
    -2.3570  -2.3357  -2.3012  -2.2418  -2.2264  -2.2023  -2.1391  -2.1088
    -2.0630  -2.0019  -1.9765  -1.9407  -1.9099  -1.8899  -1.8533  -1.8210
    -1.7699  -1.7019  -1.6586  -1.6494  -1.5968  -1.5877  -1.5386  -1.5098
    -1.4888  -1.4432  -1.4300  -1.4039  -1.3364  -1.3136  -1.2632  -1.2540
    -1.2284  -1.1780  -1.1337  -1.1239  -1.1048  -1.0760  -1.0594  -1.0324
    -0.9953  -0.9724  -0.9422  -0.9190  -0.9073  -0.8675  -0.8598  -0.8467
    -0.8089  -0.7975  -0.7512  -0.7253  -0.7038  -0.6813  -0.6586  -0.6378
    -0.6081  -0.5940  -0.5735  -0.5459  -0.5275  -0.4951  -0.4865  -0.4776
    -0.4171  -0.3819  -0.3627  -0.3327  -0.3086  -0.2804  -0.2123  -0.1987
    -0.1237  -0.0515  -0.0179   0.0115   0.0453   0.0704   0.1240   0.1396
     0.1728   0.2011   0.2411   0.2701   0.2850   0.3095   0.3350   0.4070
     0.4485   0.5048   0.5236   0.5313   0.5571   0.5775   0.6282   0.6893
     0.7130   0.7463   0.7635   0.7870   0.8317   0.8650   0.9083   0.9281
     0.9700   1.0081   1.0278   1.0495   1.0662   1.1038   1.1297   1.1561
     1.1909   1.2169   1.2712   1.2882   1.3380   1.4010   1.4633   1.5545
     1.5774   1.6192   1.6350   1.6543   1.7027   1.7494   1.7663   1.7817
     1.8261   1.8361   1.8552   1.8813   1.8939   1.9075   1.9400   1.9687
     1.9826   2.0149   2.0496   2.0683   2.1340   2.1457   2.1901   2.2431
     2.2660   2.3103   2.3230   2.3638   2.4408   2.5025   2.5564   2.7239
     3.0080   3.0680   3.2645   3.3425   3.4733   3.5853   3.6275   4.0207
     4.1105   4.3268   4.4000   4.5387   4.7168   4.8296   5.1125   5.4879
     5.6477   5.7954   6.0416   6.1442   6.2061   6.3179   6.4085   6.4737
     6.7124   6.7528

          k = 0.4000 0.2309 0.0000 ( 89494 PWs)   bands (ev):

   -13.9932  -9.9615  -8.4670  -6.1034  -5.7564  -5.4759  -5.2448  -4.8269
    -4.4436  -4.3956  -4.3440  -4.2218  -4.0263  -3.9635  -3.8682  -3.7867
    -3.7204  -3.6787  -3.6560  -3.5673  -3.5131  -3.4746  -3.4636  -3.4148
    -3.3287  -3.3047  -3.2901  -3.2798  -3.2471  -3.2152  -3.1882  -3.1466
    -3.1063  -3.0759  -3.0476  -2.9074  -2.8766  -2.8342  -2.8153  -2.7296
    -2.7184  -2.6793  -2.6330  -2.6014  -2.5707  -2.5251  -2.4883  -2.4111
    -2.3756  -2.3137  -2.3015  -2.2261  -2.2173  -2.1918  -2.1615  -2.1272
    -2.1159  -2.0654  -2.0366  -1.9832  -1.9305  -1.9150  -1.8276  -1.8208
    -1.7837  -1.7493  -1.7054  -1.6913  -1.6445  -1.6045  -1.5812  -1.5243
    -1.4726  -1.4405  -1.4374  -1.3935  -1.3706  -1.3225  -1.2773  -1.2476
    -1.2175  -1.1819  -1.1702  -1.1431  -1.1346  -1.0740  -1.0534  -1.0461
    -1.0144  -1.0051  -0.9772  -0.9644  -0.9466  -0.9170  -0.8832  -0.8504
    -0.8230  -0.8045  -0.7737  -0.7571  -0.7243  -0.6849  -0.6779  -0.6377
    -0.6198  -0.5819  -0.5489  -0.5241  -0.4888  -0.4627  -0.4238  -0.4025
    -0.3807  -0.3533  -0.3133  -0.2973  -0.2676  -0.2449  -0.1893  -0.1399
    -0.0834  -0.0665  -0.0319   0.0007   0.0488   0.0763   0.0992   0.1145
     0.1419   0.1544   0.1876   0.2136   0.2515   0.2680   0.2932   0.3196
     0.3822   0.4125   0.4303   0.4664   0.4999   0.5797   0.6259   0.6708
     0.7092   0.7637   0.8036   0.8240   0.8544   0.8799   0.9274   0.9465
     0.9773   0.9998   1.0391   1.0695   1.0776   1.0892   1.1586   1.1806
     1.2162   1.2331   1.2865   1.3232   1.3428   1.3949   1.4145   1.4756
     1.5150   1.5719   1.5790   1.6344   1.6588   1.6746   1.6976   1.7363
     1.7661   1.7976   1.8275   1.8625   1.9012   1.9283   1.9555   1.9722
     1.9887   2.0093   2.0265   2.1115   2.1602   2.2276   2.2475   2.2654
     2.2885   2.3488   2.4046   2.5090   2.5338   2.5976   2.8690   3.0424
     3.2504   3.2851   3.4142   3.5441   3.5840   3.7532   3.8928   4.1385
     4.2817   4.3638   4.5604   4.6759   4.6794   4.7435   4.9516   5.1389
     5.3276   5.4184   5.6217   5.8575   6.0366   6.2543   6.4141   6.6031
     6.8926   6.9495

          k = 0.4000-0.6928 0.0000 ( 89458 PWs)   bands (ev):

   -13.9931  -9.9611  -8.4630  -5.8156  -5.7184  -5.6497  -5.2834  -5.0359
    -4.5250  -4.4897  -4.2117  -4.0425  -3.9327  -3.8307  -3.7904  -3.7622
    -3.6565  -3.6424  -3.5663  -3.5598  -3.5001  -3.4629  -3.4450  -3.4335
    -3.4066  -3.3641  -3.3329  -3.2611  -3.2462  -3.2227  -3.1996  -3.1651
    -3.1120  -3.0778  -3.0216  -2.9687  -2.9557  -2.8930  -2.8245  -2.7949
    -2.7847  -2.6941  -2.6410  -2.5942  -2.5587  -2.4996  -2.4254  -2.4162
    -2.3771  -2.3262  -2.2587  -2.2394  -2.2062  -2.1177  -2.0983  -2.0593
    -2.0371  -1.9923  -1.9818  -1.9424  -1.9159  -1.8833  -1.8405  -1.8223
    -1.7885  -1.7783  -1.7396  -1.7188  -1.7041  -1.6850  -1.6397  -1.5995
    -1.5599  -1.5049  -1.4893  -1.4675  -1.3974  -1.3517  -1.3389  -1.3303
    -1.3152  -1.2940  -1.2286  -1.2031  -1.1640  -1.1423  -1.1112  -1.1004
    -1.0610  -1.0227  -0.9902  -0.9489  -0.9451  -0.9301  -0.8944  -0.8615
    -0.7943  -0.7806  -0.7411  -0.7185  -0.6923  -0.6621  -0.6415  -0.6343
    -0.6191  -0.5804  -0.5635  -0.5410  -0.5175  -0.4953  -0.4830  -0.4727
    -0.4411  -0.4234  -0.3985  -0.3732  -0.3145  -0.2813  -0.2005  -0.1661
    -0.1113  -0.0382  -0.0257  -0.0032   0.0264   0.0448   0.0591   0.0808
     0.1137   0.1322   0.1915   0.2106   0.2363   0.2813   0.3205   0.3447
     0.3839   0.4123   0.4419   0.4885   0.5546   0.5935   0.6354   0.6786
     0.7112   0.7210   0.7389   0.7882   0.8122   0.8371   0.8489   0.8904
     0.9282   0.9336   0.9595   0.9901   1.0130   1.0520   1.0824   1.1273
     1.2039   1.2740   1.3006   1.3603   1.4403   1.4556   1.4861   1.5078
     1.5753   1.6315   1.6455   1.7077   1.7345   1.7532   1.7892   1.8214
     1.8356   1.8434   1.8810   1.9222   1.9469   1.9635   1.9817   2.0112
     2.0320   2.0489   2.1159   2.1497   2.1927   2.2598   2.2858   2.2967
     2.3079   2.3423   2.3700   2.5264   2.7294   2.8628   3.1433   3.2930
     3.3784   3.4602   3.5496   3.6911   3.7203   3.9340   4.0998   4.2459
     4.4049   4.5514   4.6151   4.6998   4.8999   4.9841   5.1212   5.1663
     5.3323   5.3464   5.5375   5.6521   5.8517   6.0028   6.2726   6.3856
     6.4692   6.5721

          k = 0.4000-0.4619 0.0000 ( 89458 PWs)   bands (ev):

   -13.9932  -9.9569  -8.4678  -5.8197  -5.7668  -5.6409  -5.2229  -5.0902
    -4.5256  -4.4265  -4.1939  -4.0380  -3.9181  -3.8312  -3.8106  -3.7687
    -3.6744  -3.6259  -3.5578  -3.5395  -3.5231  -3.4509  -3.4411  -3.4280
    -3.4079  -3.3639  -3.3321  -3.2906  -3.2552  -3.2202  -3.1939  -3.1832
    -3.1234  -3.0930  -2.9910  -2.9751  -2.9190  -2.8725  -2.8333  -2.7936
    -2.7797  -2.7266  -2.6538  -2.6073  -2.5676  -2.4857  -2.4137  -2.4028
    -2.3783  -2.3331  -2.3143  -2.2463  -2.1615  -2.1339  -2.0891  -2.0738
    -2.0340  -2.0077  -1.9747  -1.9432  -1.9273  -1.8723  -1.8637  -1.8512
    -1.8081  -1.7761  -1.7432  -1.7254  -1.7033  -1.6581  -1.6306  -1.6055
    -1.5595  -1.5196  -1.4706  -1.4469  -1.4143  -1.3887  -1.3436  -1.3268
    -1.2915  -1.2730  -1.2368  -1.2086  -1.1556  -1.1356  -1.1157  -1.0956
    -1.0442  -1.0015  -0.9715  -0.9570  -0.9451  -0.9313  -0.9041  -0.8729
    -0.7797  -0.7764  -0.7340  -0.7076  -0.6903  -0.6533  -0.6394  -0.6307
    -0.6246  -0.5956  -0.5800  -0.5396  -0.5217  -0.4926  -0.4800  -0.4690
    -0.4554  -0.4259  -0.3998  -0.3571  -0.3146  -0.2505  -0.1941  -0.1797
    -0.1164  -0.0446  -0.0280  -0.0175   0.0199   0.0274   0.0724   0.1055
     0.1298   0.1406   0.1678   0.2193   0.2469   0.2652   0.3036   0.3449
     0.3916   0.4263   0.4577   0.4880   0.5415   0.5853   0.6118   0.6870
     0.7055   0.7383   0.7517   0.7700   0.7999   0.8153   0.8538   0.8896
     0.9247   0.9369   0.9674   0.9999   1.0386   1.0700   1.0920   1.1267
     1.2248   1.2541   1.2978   1.3600   1.4166   1.4409   1.4898   1.5279
     1.5953   1.6062   1.6698   1.6982   1.7402   1.7676   1.7808   1.8168
     1.8381   1.8473   1.8921   1.9384   1.9550   1.9761   1.9847   2.0060
     2.0430   2.0693   2.1079   2.1561   2.1923   2.2382   2.2679   2.2725
     2.2987   2.3351   2.3589   2.5314   2.7330   2.9226   3.0853   3.1379
     3.4035   3.5106   3.6185   3.7418   3.8504   3.9016   4.0372   4.1775
     4.3381   4.5038   4.5807   4.6523   4.9425   5.0219   5.1221   5.2644
     5.3432   5.3642   5.5111   5.5800   5.7554   5.9722   6.2208   6.4394
     6.5064   6.5670

     the Fermi energy is     2.0683 ev

!    total energy              =  -27814.84657598 Ry

     total all-electron energy =  -1326874.904275 Ry
     estimated scf accuracy    <       0.00000061 Ry
     smearing contrib. (-TS)   =       0.00358029 Ry
     internal energy E=F+TS    =  -27814.85015628 Ry

     The total energy is F=E-TS. E is the sum of the following terms:
     one-electron contribution =  -27388.33189838 Ry
     hartree contribution      =   13999.85717783 Ry
     xc contribution           =    -906.64352219 Ry
     ewald contribution        =   11973.91666680 Ry
     one-center paw contrib.   =  -25493.64858033 Ry

     convergence has been achieved in  20 iterations

     negative rho (up, down):  1.293E-02 0.000E+00

     Forces acting on atoms (cartesian axes, Ry/au):

     atom    1 type  1   force =    -0.00228829    0.00046449   -0.00543927
     atom    2 type  1   force =     0.00158289   -0.00076853   -0.00534007
     atom    3 type  1   force =    -0.00085045    0.00023171   -0.00515695
     atom    4 type  1   force =    -0.00108798    0.00033856   -0.00325779
     atom    5 type  1   force =     0.00110699   -0.00009129   -0.00428114
     atom    6 type  1   force =    -0.00026463   -0.00051068   -0.00425079
     atom    7 type  1   force =    -0.00042056    0.00006221   -0.00360571
     atom    8 type  1   force =    -0.00045517    0.00053143   -0.00400679
     atom    9 type  1   force =    -0.00019776    0.00071801   -0.00445192
     atom   10 type  1   force =     0.00104000    0.00508456   -0.00471317
     atom   11 type  1   force =    -0.00114748    0.00168555    0.00471766
     atom   12 type  1   force =     0.00326375    0.00255082    0.00535806
     atom   13 type  1   force =    -0.00046250   -0.00218180    0.00749390
     atom   14 type  1   force =    -0.00128918   -0.00147748    0.00842700
     atom   15 type  1   force =     0.00328992   -0.00198527    0.01100944
     atom   16 type  1   force =     0.00186908   -0.00103526   -0.00040342
     atom   17 type  1   force =     0.00199108    0.00121924    0.00174373
     atom   18 type  1   force =    -0.00026431   -0.00249314    0.00754884
     atom   19 type  1   force =     0.00019448   -0.00008153   -0.00052066
     atom   20 type  1   force =    -0.00045548   -0.00021407    0.00001761
     atom   21 type  1   force =    -0.00043400   -0.00003795   -0.00059014
     atom   22 type  1   force =     0.00012469   -0.00026213   -0.00015055
     atom   23 type  1   force =     0.00012383    0.00018708    0.00019154
     atom   24 type  1   force =     0.00060157   -0.00034038   -0.00001743
     atom   25 type  1   force =     0.00027143    0.00003663    0.00031995
     atom   26 type  1   force =     0.00022554    0.00003650    0.00010373
     atom   27 type  1   force =    -0.00005697   -0.00013513   -0.00004126
     atom   28 type  1   force =     0.00024465    0.00010243    0.00010585
     atom   29 type  1   force =    -0.00005907    0.00001549    0.00049380
     atom   30 type  1   force =    -0.00007331   -0.00035261    0.00030302
     atom   31 type  1   force =     0.00019260    0.00007778    0.00020620
     atom   32 type  1   force =    -0.00024931    0.00032163   -0.00034928
     atom   33 type  1   force =    -0.00077296   -0.00005795    0.00026523
     atom   34 type  1   force =    -0.00010531   -0.00026599    0.00028252
     atom   35 type  1   force =     0.00015100   -0.00051614    0.00037323
     atom   36 type  1   force =    -0.00004124    0.00014591    0.00027057
     atom   37 type  2   force =    -0.00066951    0.00033377    0.00085624
     atom   38 type  2   force =     0.00374847   -0.00329547    0.00534116
     atom   39 type  2   force =    -0.00336186    0.00047291   -0.00019487
     atom   40 type  3   force =    -0.00002689    0.00030533   -0.00055218
     atom   41 type  3   force =     0.00035590   -0.00060654   -0.00105864
     atom   42 type  3   force =    -0.00534364    0.00178733   -0.00704725

     Total force =     0.012412     Total SCF correction =     0.002140
     SCF correction compared to forces is large: reduce conv_thr to get better values

     negative rho (up, down):  1.293E-02 0.000E+00

     negative rho (up, down):  1.293E-02 0.000E+00

     negative rho (up, down):  1.293E-02 0.000E+00

     negative rho (up, down):  1.293E-02 0.000E+00

     negative rho (up, down):  1.293E-02 0.000E+00

     negative rho (up, down):  1.293E-02 0.000E+00

     negative rho (up, down):  1.293E-02 0.000E+00

     negative rho (up, down):  1.293E-02 0.000E+00

     negative rho (up, down):  1.293E-02 0.000E+00

     negative rho (up, down):  1.293E-02 0.000E+00

     negative rho (up, down):  1.293E-02 0.000E+00

     negative rho (up, down):  1.293E-02 0.000E+00

     negative rho (up, down):  1.293E-02 0.000E+00

     negative rho (up, down):  1.293E-02 0.000E+00

     negative rho (up, down):  1.293E-02 0.000E+00

     negative rho (up, down):  1.293E-02 0.000E+00

     negative rho (up, down):  1.293E-02 0.000E+00

     negative rho (up, down):  1.293E-02 0.000E+00

     negative rho (up, down):  1.293E-02 0.000E+00

     negative rho (up, down):  1.293E-02 0.000E+00

     negative rho (up, down):  1.293E-02 0.000E+00

     negative rho (up, down):  1.293E-02 0.000E+00

     negative rho (up, down):  1.293E-02 0.000E+00

     negative rho (up, down):  1.293E-02 0.000E+00

     negative rho (up, down):  1.293E-02 0.000E+00

     negative rho (up, down):  1.293E-02 0.000E+00

     negative rho (up, down):  1.293E-02 0.000E+00

     negative rho (up, down):  1.293E-02 0.000E+00

     negative rho (up, down):  1.293E-02 0.000E+00

     negative rho (up, down):  1.293E-02 0.000E+00

     negative rho (up, down):  1.293E-02 0.000E+00

     negative rho (up, down):  1.293E-02 0.000E+00

     negative rho (up, down):  1.293E-02 0.000E+00

     negative rho (up, down):  1.293E-02 0.000E+00
 BEEFens 2000 ensemble energies
             -0.606704202278403E+02
             -0.362278015514417E+01
             -0.158419523140708E+02
              0.429524956882489E+02
             -0.221065579014652E+02
             -0.205276240936611E+02
             -0.352218339521565E+02
             -0.865104568885317E+02
             -0.465030586796615E+02
             -0.472928215201566E+02
             -0.369345468561134E+02
              0.224594065712515E+01
              0.407090503987413E+01
              0.761760844930041E+01
              0.266646754197146E+01
              0.474974267595488E+02
             -0.208921441218080E+02
             -0.230395334134417E+02
              0.193171154895484E+02
             -0.112371303818667E+03
              0.536357443269918E+02
             -0.289898013813880E+02
             -0.336297054530353E+01
             -0.114082006713504E+02
             -0.884571858861443E+01
             -0.466299655007549E+01
              0.882752129177658E+02
             -0.187028605715933E+02
             -0.901373479542031E+01
             -0.518517181534001E+02
              0.815770522259932E+02
             -0.187386078523522E+02
             -0.375248572675243E+02
              0.249308759211419E+02
             -0.284772723690526E+01
              0.164127839650598E+02
             -0.485324381063708E+01
              0.108011091864092E+02
              0.288163607511204E+02
             -0.103293830718663E+03
              0.558341692220116E+02
              0.142282340515980E+02
             -0.171258002729388E+01
             -0.361568230048939E+02
              0.123233084989031E+02
             -0.146623622766873E+02
              0.398669296733576E+02
              0.364817556696728E+02
             -0.308148975790172E+02
             -0.275311824173234E+02
             -0.328553289055154E+02
             -0.352017287948351E+02
              0.136037763667231E+02
             -0.491036165997334E+02
              0.115557294979516E+02
              0.622828237025761E+02
              0.635332163993271E+02
              0.355686264433113E+02
              0.154153979548140E+02
              0.270362391211848E+02
              0.891348481040699E+02
              0.212871133031738E+02
             -0.548628518827604E+02
             -0.156969089388285E+02
             -0.235928692128834E+02
              0.630003706521213E+02
             -0.773414097327704E+02
             -0.671638899705264E+02
             -0.259276826597068E+02
             -0.642674891048478E+01
             -0.471043629734924E+02
              0.270664024343336E+02
              0.801603048643108E+01
              0.868606217611159E+01
             -0.397023867492516E+02
             -0.346966388337518E+02
             -0.541895281135041E+02
              0.390655540174170E+02
             -0.296039612821404E+02
              0.264971002031612E+02
             -0.713234521796739E+01
             -0.318081505371874E+02
             -0.576485077477575E+02
             -0.176825062970051E+02
             -0.907497432480784E+01
             -0.124963360308710E+02
              0.412029959669816E+02
              0.682488107173230E+02
             -0.385557421917448E+02
             -0.794765419445531E+02
             -0.219463924983243E+02
              0.111516023742975E+03
             -0.592265384702622E+02
              0.356218649841562E+02
             -0.957722799454666E+01
             -0.663131879700730E+02
              0.254302405746910E+02
              0.398039025403774E+02
             -0.198851015982929E+02
              0.400138317063502E+02
             -0.295997466884094E+02
             -0.478130428334987E+02
              0.866033694030286E+02
              0.454231955384699E+02
              0.336401044952319E+02
              0.146540671518608E+02
              0.205638035082092E+02
              0.856420807578839E+02
             -0.256524110805957E+02
              0.786446499834931E+01
             -0.142399577168928E+03
              0.181281662560044E+02
             -0.716280342670703E+02
              0.150848494814634E+02
              0.204611299945846E+02
             -0.332748643582711E+02
             -0.557251323125514E+02
              0.655089687852387E+01
             -0.304084703538704E+02
              0.308172672736656E+02
             -0.529773641496390E+02
              0.170484301320232E+01
             -0.356944461606739E+02
             -0.424435780467985E+01
             -0.105839272783433E+01
              0.181019746528093E+02
              0.144309944999725E+01
             -0.651208785225094E+01
              0.590208382418535E+02
              0.908202202043009E+02
              0.484190218199049E+02
              0.830376830741733E+02
             -0.114956196978333E+02
              0.143384848444724E+02
              0.541018436652479E+02
             -0.110938639290005E+02
             -0.735608325557797E+02
             -0.383943116257219E+02
             -0.521639834519021E+02
             -0.276623815141967E+02
              0.327078517588654E+02
             -0.116788488820500E+03
             -0.187285093780597E+02
              0.414175699849010E+02
             -0.386188583778788E+02
             -0.365647999467776E+02
              0.543887474192758E+02
              0.400785936188942E+02
             -0.353904011392374E+02
              0.137551494070678E+02
             -0.273073090390443E+02
              0.343200424299776E+02
              0.446170912414908E+01
              0.211003829926150E+02
             -0.884632565790355E+02
             -0.480030628411650E+02
             -0.992877664438743E+01
              0.323294893934217E+01
             -0.366644699423574E+02
              0.106017211405895E+03
             -0.230836429823132E+02
             -0.398395980805182E+02
              0.388985755897950E+02
             -0.494301062979169E+02
             -0.363235657808211E+02
              0.324619329663783E+02
              0.124446366701864E+02
              0.164146912543939E+02
              0.116473515196506E+02
             -0.132829892167356E+02
              0.225014595753134E+02
              0.590008480710599E+02
             -0.311639768439870E+02
              0.162452074707659E+02
              0.934216049524846E+02
              0.340754816208093E+02
             -0.728821948266045E+01
             -0.188705023130659E+02
              0.153342304334720E+03
             -0.164201704296397E+02
              0.363147017763822E+02
              0.194468217359552E+02
              0.361643702981758E+02
              0.892107883984636E+02
              0.542968970734009E+02
             -0.241111746327699E+01
              0.227752515008575E+02
              0.485079809363361E+02
              0.363704920707910E+02
             -0.525508517356737E+02
              0.935846266478666E+02
             -0.825467887568697E+02
             -0.198237035757903E+02
              0.582805263177681E+02
              0.674882302926061E+01
              0.790902681217369E+01
              0.340869427261624E+02
              0.299047266234714E+02
              0.353643280167333E+02
             -0.637698722226337E+02
              0.288425548805253E+01
             -0.297489134394169E+02
             -0.872531617081373E+01
             -0.146853555885980E+01
             -0.723959895547521E+01
             -0.415064779232063E+01
              0.859095386409315E+02
             -0.100954716747929E+02
             -0.276419732506442E+02
             -0.495568324052108E+01
              0.139910445304178E+02
             -0.564190969701274E+02
             -0.407083256682970E+02
             -0.381960814541302E+02
             -0.630478968748743E+02
             -0.169885330603810E+02
             -0.447478107682120E+02
              0.163507917121879E+02
             -0.240665904223559E+01
             -0.104347726748658E+02
             -0.934772328822933E+01
              0.807273088980651E+01
             -0.242779552878553E+02
              0.689118171974161E+02
             -0.807085240663745E+02
             -0.141094688595907E+02
             -0.173944404689789E+02
              0.181705938017720E+02
              0.214355622448025E+02
             -0.463877772236065E+02
             -0.202204235375539E+02
              0.440719326910634E+02
             -0.275929369527835E+02
              0.186928399302523E+02
              0.382652174654974E+02
             -0.323907727889969E+01
              0.114165501448943E+03
             -0.230266897560039E+02
             -0.341124810706774E+02
              0.578603807456642E+01
             -0.228208681783125E+02
              0.527675667713296E+02
             -0.337107725098975E+02
              0.106445360062939E+02
              0.640741547492493E+02
             -0.126147764183041E+02
              0.120240374564825E+03
              0.125876359343627E+03
             -0.649863804056331E+02
              0.590617795494808E+02
              0.166461969833553E+02
             -0.517711754480557E+02
              0.216196658559938E+02
              0.353861775257249E+02
              0.362665656440399E+02
              0.135380059037411E+01
              0.159463373590150E+02
              0.695454853425349E+02
             -0.246897866520796E+02
              0.181032493683904E+02
              0.738891952511913E+02
             -0.372429756672868E+02
             -0.129579639024018E+02
              0.508556820928076E+02
              0.297330855284189E+02
              0.780528291820801E+02
              0.222494232177981E+02
              0.624221021375132E+01
              0.280322193491437E+02
              0.383159879798693E+02
             -0.471496917798728E+02
              0.330755575093383E+01
              0.129692329430519E+02
              0.113877238346101E+02
              0.220420207071276E+02
             -0.574721498324530E+02
              0.366230802055043E+02
             -0.443954211584467E+02
             -0.347367214677305E+02
              0.177885820865527E+02
             -0.181209735152889E+02
              0.555198942742629E+02
             -0.256380093504018E+02
              0.266880447093887E+02
              0.368292988076259E+02
              0.829204545226845E+02
              0.574519809483137E+02
              0.461504394095824E+02
             -0.105743726066655E+02
             -0.392364120271003E+01
             -0.331838365399631E+02
              0.750562721102842E+02
              0.797160281535661E+02
              0.361991671378890E+02
             -0.191989377263027E+02
              0.511941739167864E+02
             -0.162714902782099E+02
              0.214827962004007E+02
              0.614329839396357E+02
              0.215429047932807E+01
             -0.104157099775902E+02
             -0.283021466688098E+02
             -0.511487323664253E+02
              0.945520652646204E+02
              0.439569478480361E+02
             -0.559195431472062E+02
             -0.965429706734344E+01
              0.249860203731682E+02
             -0.996055906604397E+01
              0.592147971201598E+02
              0.152315442670075E+02
              0.799289009549287E+02
              0.279427169611975E+02
             -0.264312008430367E+02
              0.249284502814749E+02
             -0.502430996886198E+01
             -0.323805887195059E+02
              0.133370229346818E+02
              0.205884672955567E+02
              0.932679164310569E+02
              0.797315633480858E+02
              0.550823723455911E+02
              0.730843378549703E+02
              0.799005483216067E+01
             -0.273814844081043E+02
              0.163194944724160E+02
             -0.367900350077803E+02
             -0.476233513041993E+02
             -0.563694668870008E+02
             -0.266568990168856E+02
             -0.109682639850610E+03
             -0.291464340987091E+02
             -0.837234045346401E+02
              0.210111991673705E+02
             -0.476878609088483E+02
              0.396767649193524E+02
             -0.941183603538574E+02
             -0.330178874184636E+02
              0.548574626443705E+02
              0.207855622155251E+02
             -0.830772552704638E+02
              0.631193231858292E+02
             -0.256737980074214E+02
              0.512359786579023E+02
             -0.242709542525250E+02
             -0.751435068793465E+02
              0.111900784202240E+02
             -0.611288397161402E+02
             -0.168022148478779E+02
             -0.146434180295469E+01
              0.418281252384346E+02
              0.127005162374805E+03
             -0.461773336776732E+02
             -0.362847415179780E+02
             -0.967129282374003E+00
             -0.130129772656095E+02
             -0.822729216424197E+02
             -0.596640727083138E+02
              0.517355061877411E+02
             -0.288837396475535E+02
              0.169367645805243E+02
             -0.489349033653691E+02
             -0.131829297426471E+02
             -0.437236251296585E+02
              0.565559510615011E+02
              0.151302343012262E+02
             -0.231675022828274E+02
             -0.126796870832117E+02
              0.667456749623953E+01
             -0.618123719429843E+01
              0.441578737011773E+02
             -0.251965475681820E+02
              0.274254133568104E+01
              0.339308590133999E+02
              0.171358602078773E+02
             -0.159631411508166E+02
              0.156282411892311E+03
              0.537775987897732E+02
              0.118473280133948E+01
              0.161674479342371E+02
             -0.614568808258520E+02
              0.315087290676635E+02
             -0.721918520513364E+02
             -0.252263092702304E+02
             -0.522715060169317E+02
             -0.220025934214616E+02
              0.569297630520414E+02
             -0.537054575740768E+02
              0.160887485544731E+02
             -0.408474254208784E+01
              0.387842171404293E+01
             -0.433732513405536E+02
             -0.478435817028722E+02
             -0.398372610417653E+01
             -0.425075220934346E+02
             -0.217384557957250E+02
             -0.438326152305340E+02
             -0.119320972862095E+02
             -0.358869403779748E+02
             -0.516554008295994E+02
              0.212681078929658E+02
             -0.209179237467233E+02
              0.187850514481059E+02
              0.974685997817305E+01
             -0.738074629860991E+02
             -0.548190498002873E+02
             -0.398143860927109E+02
              0.354140664902916E+02
              0.269351301514519E+01
             -0.626602654104931E+02
              0.585663802460074E+02
             -0.401163970421421E+02
              0.544918790956618E+02
             -0.289459901632594E+02
             -0.446026089414760E+02
              0.298604945931297E+02
             -0.657855710990763E+02
             -0.379827709950283E+02
              0.672472130271886E+02
              0.203922124370100E+02
             -0.359949964978290E+02
              0.489221982144160E+02
             -0.173951854249831E+02
             -0.322826214390958E+02
             -0.301694907183745E+02
             -0.500654402989392E+02
              0.249354374725175E+02
             -0.933017524571315E+02
             -0.840118715520228E+02
             -0.735261893764732E+01
             -0.306961885083007E+02
             -0.575453453299894E+02
              0.721897591262243E+02
              0.131540119800395E+03
             -0.360893920341795E+02
             -0.256260070061325E+01
             -0.636899563335016E+02
              0.650848302085616E+02
              0.170629526390812E+02
             -0.181367697459436E+02
             -0.410050099635623E+02
              0.148740579336044E+02
             -0.586235749165514E+02
             -0.197667607354688E+02
             -0.904669446445885E+02
              0.336902433395842E+02
              0.168880935079900E+02
              0.184077913576812E+01
             -0.705514513252001E+01
             -0.329385889550977E+02
             -0.758377308558647E+01
              0.125513323499547E+03
             -0.199242254863956E+02
             -0.437315924673476E+02
             -0.683994767036914E+02
              0.109250352162434E+02
             -0.342123928693052E+02
              0.590432021646022E+01
              0.261523124175551E+02
              0.102030038786426E+02
              0.277873807142822E+02
              0.119833557094943E+02
              0.629687880254561E+02
              0.316972503302333E+02
             -0.326598747702266E+02
              0.355833164252823E+02
              0.379445658685656E+02
              0.120909037955667E+02
              0.486679348745749E+02
             -0.224801539514140E+02
              0.765602451027088E+02
              0.172352302351090E+02
             -0.272263657403543E+02
             -0.721001585941537E+01
             -0.186407718457140E+02
              0.261934986475071E+02
             -0.234849511037464E+02
             -0.122637210643859E+00
             -0.848109651158029E+01
              0.810129655869447E+02
              0.500073135935544E+02
             -0.687192848265464E+02
             -0.474068647825280E+01
             -0.555410140976697E+02
             -0.159699422904953E+02
             -0.267998993592710E+02
              0.375484895566092E+01
              0.575753916734552E+00
             -0.257405103505367E+02
              0.814765701038311E+01
             -0.603006935196977E+01
             -0.128410696019899E+02
              0.859195018248391E+02
              0.181918975108046E+02
             -0.807172920296980E+02
             -0.458327145545152E+02
              0.944968013609345E+02
              0.277769696859516E+02
             -0.106821566106812E+02
              0.104564266758037E+03
             -0.195028521007675E+02
             -0.123111966009345E+02
             -0.538276404154908E+01
              0.107323542745300E+02
              0.272455874899547E+02
              0.778952402770366E+01
              0.305307269060888E+02
             -0.188119164798521E+02
             -0.303633847861514E+02
             -0.417879326766113E+02
             -0.476784769420350E+02
              0.463982928402227E+02
              0.126875295899725E+02
              0.387476968277411E+02
              0.133404698081019E+02
              0.855719986671144E+02
              0.156477142824322E+02
             -0.846120402547174E+02
             -0.334385380941193E+02
              0.133717167607202E+02
             -0.302703809819845E+02
              0.626459624024673E+02
             -0.886933473313707E+01
              0.148933435054184E+02
              0.497208759432920E+02
             -0.707521117499848E+02
              0.149736790916934E+03
              0.208595777543161E+02
              0.271330162246613E+02
              0.347581000198891E+02
              0.103447432478947E+02
             -0.159005854995445E+01
              0.358412419424199E+02
             -0.356912728350997E+02
              0.773393501316650E+02
              0.684867199737617E+02
             -0.405897098455272E+02
              0.149243192302993E+02
              0.670262038169450E+02
             -0.223966465067693E+02
              0.154387054216219E+02
              0.435112404158106E+02
              0.422383622840339E+02
             -0.784658901372674E+02
             -0.152654959459967E+02
             -0.356133250772796E+02
             -0.147606845554253E+01
             -0.762544407695556E+01
             -0.544633898851191E+01
             -0.180821532211426E+02
             -0.293569336479657E+02
              0.633165452962012E+01
              0.111800961997350E+02
              0.535572387613454E+02
             -0.390287166244717E+02
              0.374346197909962E+02
              0.438429271150755E+02
             -0.186613739350157E+02
              0.872352842636907E+02
             -0.697982716595811E+02
             -0.103200417546489E+03
             -0.660674481851838E+01
             -0.269589763164720E+01
              0.385561239366450E+01
              0.789561765548974E+02
             -0.107038117906252E+02
              0.416739943551624E+02
              0.443522743554273E+02
              0.385520028254241E+02
             -0.994971235202866E+01
              0.627716081680578E+02
             -0.133828514864047E+02
             -0.307399800251005E+02
             -0.479165117127735E+02
              0.587376767713603E+01
              0.369490786199481E+02
             -0.603121051243357E+01
              0.393066680925442E+02
             -0.178990112187148E+01
              0.655397745296688E+02
              0.187619430714264E+02
              0.999768654553885E+01
             -0.121542634294490E+02
              0.332220864241083E+02
              0.362941464632936E+02
              0.232777978666322E+02
             -0.517588510382552E+00
             -0.550427607935442E+02
              0.260983141498001E+02
              0.175299024809277E+02
              0.402532531739186E+02
              0.272385230474811E+02
              0.372597523602670E+02
             -0.605899771235610E+01
              0.250936983572096E+02
             -0.298623428296339E+02
             -0.195517294500780E+01
             -0.569257977422976E+02
             -0.308258552556584E+02
              0.378768032297300E+02
             -0.935619107467151E+02
              0.294535615339222E+02
              0.183843484252660E+02
              0.840261635374025E+02
             -0.300530525162143E+02
              0.329308693836723E+02
             -0.137901426758272E+02
             -0.464217298386516E+02
             -0.761798284947997E+02
             -0.526632296253085E+01
             -0.859913947891221E+02
              0.199790173377843E+02
             -0.247365412550324E+02
              0.305887064974727E+02
              0.236913614180457E+02
             -0.241029721046190E+02
             -0.265111839472700E+02
              0.391120523796208E+02
             -0.588086542844379E+02
             -0.116651633746427E+02
             -0.196165964621659E+02
              0.212474148167100E+02
             -0.891303094502297E+01
              0.365136333140003E+01
             -0.200669646801715E+02
              0.559002710049476E+02
             -0.439490205812519E+02
              0.787162857880844E+01
              0.585340772586714E+02
             -0.323362282299592E+02
              0.359593022701713E+01
             -0.881906033006271E+01
             -0.669572683194231E+02
             -0.482716229145277E+02
             -0.861870047579355E+01
              0.240866163964176E+02
              0.302499345578094E+02
              0.856949386296452E+01
             -0.417799473056380E+01
              0.152095928052009E+02
             -0.439985468125189E+02
              0.334855785852892E+01
             -0.530895242208063E+02
             -0.324816385148562E+02
              0.474909698545271E+02
             -0.295209197987803E+02
              0.622507334479191E+02
             -0.214472465525083E+02
              0.353791006603184E+02
              0.241739107226938E+02
             -0.644124215401758E+02
             -0.280517964014762E+02
              0.933274912755738E+01
             -0.371924408313953E+02
             -0.339689842809278E+02
             -0.830368164975266E+02
             -0.539392800036356E+02
             -0.510642444621404E+02
             -0.415685851294085E+02
             -0.974861200729748E+00
              0.998075321371721E+01
              0.103287281620604E+01
              0.153401715598456E+02
             -0.549502382884685E+02
              0.141744032907342E+02
              0.256377970063045E+02
             -0.666784618651255E+02
             -0.701934338397588E+02
             -0.431287063025366E+02
             -0.172055615532752E+02
              0.178635073073582E+02
              0.455086813886248E+01
             -0.426119813806147E+02
              0.366370666194213E+02
             -0.216074289727316E+02
              0.517489856295322E+02
             -0.887479186749037E+02
              0.597876361921324E+02
             -0.213549472875408E+01
             -0.368262666550677E+02
             -0.216728065640475E+02
              0.472041163710060E+01
              0.374860552047984E+02
             -0.756273909549888E+02
             -0.120957015274283E+02
             -0.216619379420073E+02
              0.511073242494094E+02
              0.864804634248869E+02
             -0.965361420944001E+02
              0.944214337542196E+02
              0.467856049377684E+02
             -0.725625911392071E+02
             -0.366594278272052E+02
              0.751893562054716E+02
              0.632053649603342E+02
             -0.180799754518422E+02
             -0.463084038415775E+01
              0.731680273050389E+01
              0.649221017800812E+02
             -0.508514903461428E+02
              0.158457354440919E+02
             -0.474096407701778E+01
              0.347705409615843E+02
             -0.747073902643879E+02
             -0.648343889606392E+01
             -0.351062322655300E+02
              0.460698517123776E+02
              0.468776513761457E+02
             -0.862098706790409E+02
             -0.487287144529641E+02
             -0.256198362193047E+02
             -0.339471685037324E+02
             -0.109462471260576E+02
             -0.242759776535744E+02
              0.427341808370504E+02
              0.401257230401584E+02
             -0.565207403026386E+01
             -0.416435217618504E+02
             -0.850494585383001E+02
              0.443121490582687E+02
             -0.523346268351675E+02
             -0.312996997865289E+02
              0.547461807583768E+01
             -0.322687039814808E+02
             -0.398170308891160E+02
             -0.240083175667110E+02
             -0.385353582819604E+02
             -0.271030099998958E+02
             -0.482614044255193E+02
              0.564102103274403E+02
              0.638139536121066E+02
             -0.172233066530919E+01
[...]
              0.283276845603050E+02
              0.141828324082489E+03
              0.242173127978543E+02
              0.122565167701271E+02
             -0.464623894110863E+02
             -0.637976952181696E+02
             -0.188781759891410E+02
              0.329249303563596E+02
             -0.426825579315823E+01
              0.189840575325194E+02
              0.336293028912379E+02
             -0.586778733802371E+02
              0.222354235187011E+02
              0.582155961363760E+02
              0.553127480168982E+02
             -0.421585310892465E+01
             -0.137340306101544E+01
             -0.992513866379264E+01
             -0.482320944398062E+02
             -0.675024320138564E+02
              0.785675333035458E+02
             -0.524318023005196E+01
             -0.587872099637518E+02
              0.172298516410112E+01
             -0.205234827919202E+02
              0.938246045431822E+02
             -0.216603764920967E+02
             -0.353621917387009E+02
              0.335007350071077E+02
             -0.145694279623092E+02
              0.389640781298071E+02
             -0.238344909680461E+01
              0.101083922788764E+03
              0.489702750236599E+02
             -0.508584569827405E+01
             -0.322105851386809E+02
              0.232144132149579E+02
             -0.528576970502658E+02
             -0.128027745448893E+02
              0.585735844905691E+02
             -0.287686286399662E+02
             -0.438510237235458E+02
             -0.223297177066138E+02
              0.518782703694505E+02
              0.124917266277774E+02
             -0.848631474901619E+02
              0.303663480050983E+02
              0.151943091386820E+02
              0.575814230209235E+01
             -0.513435718522757E+02
             -0.377358400589316E+01
              0.323279475787171E+02
              0.512654889135627E+02
              0.632529394664601E+02
              0.229004231887011E+02
              0.798602269177223E+00
             -0.497884212474499E+02
             -0.509763642176941E+02
             -0.747829210014764E+02
             -0.616035647122419E+01
              0.308843463393067E+02
             -0.374922038652679E+01
              0.546950012536940E+02
             -0.317946480840506E+02
              0.166840138398892E+02
             -0.102496339151375E+02
             -0.289322118736057E+02
              0.585377790185871E+02
              0.792069789316423E+01
              0.604133912169202E+02
              0.505737936369712E+01
              0.265051566952764E+02
             -0.192705639758591E+02
              0.586156797930463E+02
             -0.111175597980876E+02
             -0.141210529128854E+00
             -0.790024020998605E+02
             -0.128285718265654E+02
              0.718911002001336E+02
              0.673106029597481E+02
              0.251930961204373E+02
             -0.130455517041289E+02
              0.343337558772760E+01
             -0.173508252535358E+02
             -0.205788149601207E+01
              0.907586013303921E+02
              0.125136482056803E+01
             -0.190543676261693E+02
             -0.110755051844142E+03
             -0.552638568359650E+02
             -0.374824999153494E+02
             -0.658587369065846E+02
             -0.555419239861893E+02
             -0.682458083778350E+02
             -0.447047138630925E+02
             -0.410869495515290E+02
             -0.451896733680239E+02
              0.483291445984163E+02
             -0.294190012101204E+02
             -0.995345728475669E+02
              0.418585841913549E+02
             -0.260044796993122E+02
             -0.790999990638752E+02
              0.943738450003069E+02
             -0.219736823010232E+02
              0.228061418014071E+02
              0.454832890649638E+02
             -0.135808794410377E+01
              0.254344192675887E+02
              0.467523676707927E+01
              0.420093811150153E+00
             -0.150389006136272E+02
             -0.715417260345520E+02
              0.132890837472783E+02
             -0.129370051129832E+03
              0.623963458548608E+02
             -0.440526570061556E+02
             -0.163019686103955E+02
             -0.158404180885815E+02
              0.713822909733145E+01
             -0.227646824970048E+02
              0.297095498283721E+02
             -0.520628699520596E+02
              0.367098906744277E+02
              0.370555462425080E+02
              0.168585010060735E+02
              0.100282288751974E+02
              0.197781308355244E+02
              0.621597134004867E+01
              0.310360589072409E+02
             -0.797066794857727E+01
             -0.592063954909267E+02
              0.757234299316480E+01
             -0.152743249352387E+02
             -0.192003365059350E+01
              0.505927581831353E+02
             -0.826626099208290E+02
             -0.150627934984971E+01
              0.575937859530995E+00
              0.994671427147955E+01
              0.318565499089178E+02
             -0.123673494987649E+02
              0.835855081766247E+02
              0.487605203026549E+02
             -0.183132096091944E+02
             -0.957751537792637E+01
              0.104612690415252E+01
              0.769541412742229E+02
             -0.586262432087181E+02
             -0.105737040439254E+03
              0.308956232213654E+02
             -0.162916882492049E+02
             -0.139149027124883E+02
              0.130797924612095E+02
              0.768407109132499E+02
              0.464009558459192E+02
             -0.153562496680695E+02
             -0.503003023924426E+02
             -0.549460041050519E+01
              0.306364455693242E+02
             -0.111479305817599E+02
             -0.755618265083745E+02
             -0.270642838639998E+01
             -0.889906385309728E+02
             -0.475600309617658E+02
              0.768492452360495E+02
             -0.483441176550913E+02
             -0.636385839537437E+02
             -0.514123431279331E+02
             -0.349749765051227E+02
              0.340477232927751E+02
              0.821288903585579E+02
             -0.355753925915963E+01
              0.276646592012816E+02
             -0.183587096629871E+02
             -0.693963570711709E+02
              0.464925691699394E+02
             -0.444873665560444E+02
              0.321636516555175E+02
              0.376135827985471E+02
             -0.653827306422522E+01
              0.390556296298356E+02
              0.438237589602277E+02
              0.100655728194305E+03
             -0.156032005356271E+02
             -0.456056053358932E+02
             -0.612907394073883E+02
             -0.124113309282522E+02
             -0.232726775479443E+02
              0.102994934022095E+03
             -0.448753489030069E+02
              0.105205631411432E+02
              0.972357709857079E+01
             -0.264635423577522E+02
             -0.798480318394860E+02
             -0.697709362053922E+01
              0.979616600816045E+02
              0.937469740602810E+01
              0.807828159208395E+01
             -0.526912479376475E+02
             -0.605537391453865E+02
             -0.564324028262772E+01
              0.500568271046712E+02
             -0.221772913621379E+02
              0.107957223030211E+03
             -0.435117955102551E+02
              0.146344957696273E+02
             -0.224282895510850E+02
             -0.718275698988616E+02
              0.169295513135165E+01
             -0.501630494993919E+02
             -0.760504731845648E+02
              0.615243744656090E+01
              0.239073453148058E+01
              0.514006204620258E+02
              0.187251980378111E+02
             -0.323512653665258E+02
              0.229912569298954E+02
             -0.810645644734853E+02
             -0.521813684653944E+02
              0.901573521431520E+02
              0.142452011723196E+02
             -0.188000696256989E+02
             -0.352225454283690E+02
             -0.269341141352618E+01
             -0.587634151948180E+01
              0.829576639627132E+02
              0.417399698177651E+02
             -0.166128175324301E+02
             -0.121827463662291E+02
             -0.427364049500684E+02
             -0.200548347856051E+02
             -0.669976999517124E+02
              0.459491957427646E+02
              0.545946936931264E+01
              0.144915388611438E+02
              0.156020255988010E+02
             -0.580771531904279E+00
             -0.168359295505942E+02
             -0.308454806893073E+01
             -0.100422131431353E+03
             -0.229705659641824E+02
             -0.763898464938131E+01
             -0.948281726753169E+01
              0.546648970648484E+02
              0.623629137413688E+02
              0.164834009698001E+02
             -0.970333100796087E+02
              0.647626369403135E+02
             -0.215030571397327E+02
             -0.377046293887291E+02
             -0.864097781205484E+02
             -0.386709455890022E+02
              0.564309651592374E+02
              0.243916790045142E+02
              0.511742888797659E+01
              0.292176347883713E+02
             -0.564789540002610E+02
             -0.422169916052488E+02
              0.515232108442364E+02
              0.387189772701078E+02
              0.518913366513124E+02
             -0.122545374341701E+01
              0.684701107368676E+01
              0.569317538648526E+02
              0.962494096642096E+02
             -0.300204461704825E+02
              0.322784850200308E+02
             -0.118348993660758E+02
             -0.411915197789854E+02
             -0.314194138512275E+02
             -0.300012073789848E+02
             -0.131432213686932E+02
             -0.523384099989037E+02
             -0.217245825945258E+02
             -0.141129266289823E+03
              0.368575677570520E+02
              0.206804389816047E+02
             -0.393445233754700E+01
             -0.380086561906871E+02
             -0.204206457973987E+02
             -0.526858537834929E+02
              0.150897405954388E+02
              0.819847924985172E+02
             -0.251999904586664E+02
             -0.163009994768345E+02
              0.238146114991505E+02
             -0.489057010981798E+02
              0.880163884453901E+02
              0.154363002067514E+02
              0.226141762750476E+02
              0.490439355119098E+02
              0.321331285454812E+01
              0.542178812261468E+02
              0.143107892417781E+02
             -0.106467676740449E+02
              0.734462373663803E+01
              0.812315882562643E+00
              0.727138570710898E+02
              0.100799545975868E+02
              0.120464269845942E+02
             -0.129821090981208E+02
              0.132063920881486E+02
             -0.910951997084305E+02
             -0.325813531862256E+02
             -0.457343424925028E+02
              0.485303793172602E+02
             -0.291092236282109E+02
             -0.658235992583290E+02
              0.538432435178511E+02
             -0.121905531867221E+02
              0.440027694806507E+02
             -0.898444487799169E+02
              0.232016188127069E+02
              0.857808036845989E+01
              0.584469771040904E+01
             -0.832863059291373E+01
             -0.902865226229358E+01
              0.479024396529916E+02
              0.198231715102332E+01
             -0.475051448679803E+02
             -0.175952496148883E+02
              0.276536940838940E+02
             -0.117880337608647E+03
             -0.929611835894685E+02
              0.396277001755419E+01
              0.117558365456804E+02
             -0.413062397567658E+02
             -0.387082618592467E+01
              0.112086675503185E+03
              0.306658890556506E+02
             -0.571461950191521E+02
              0.925448412922708E+01
             -0.964296018000684E+01
              0.105379324963537E+02
             -0.337536809661564E+02
              0.195244366075293E+02
              0.284589893261751E+02
             -0.303075828085485E+01
              0.108163824358318E+03
             -0.140079069282049E+02
             -0.315767008217596E+02
              0.142940164124814E+02
              0.466220350249530E+02
             -0.355642438228584E+02
             -0.318577638579595E+01
              0.964451943785647E+02
             -0.462710739023373E+01
              0.621441979719798E+02
              0.135343026673527E+02
             -0.904322336881236E+01
             -0.305336705861762E+02
              0.566615179340078E+02
             -0.514121548344805E+02
             -0.219278955014744E+01
             -0.169904816801240E+02
             -0.405074843886962E+02
              0.184702462091966E+02
              0.239095597801451E+02
              0.115947702247040E+02
              0.717026536545291E+00
             -0.384609490354444E+02
              0.215506738142859E+02
             -0.673167087590616E+01
             -0.246638706990641E+02
             -0.210580746731508E+02
              0.203351988411426E+02
             -0.594854053139193E+01
             -0.349147398281060E+02
             -0.106574785628500E+03
              0.102937125535875E+02
              0.248620308194846E+02
             -0.387281219501609E+02
             -0.211002485446041E+02
              0.806805241522510E+02
              0.650263309912162E+01
              0.310922353755134E+02
              0.391978409252783E+01
              0.322002099294140E+02
              0.643917246367749E+01
             -0.373041564389265E+02
             -0.230681898191071E+01
              0.876471986162733E+01
              0.273705802805500E+02
              0.781791812272194E+02
              0.507275971878326E+02
              0.169300026323640E+00
              0.168873285584083E+02
              0.613022119185764E+02
              0.235939449047584E+02
             -0.752730663468944E+02
             -0.273425776351757E+02
              0.150843478757057E+02
              0.563248386397373E+01
              0.255209082171009E+02
             -0.547581800754070E+02
              0.900231279977777E+01
              0.385737068888947E+02
              0.497888391261516E+02
             -0.434998856461838E+02
             -0.691503146849863E+01
             -0.208223036401637E+01
             -0.133771345810524E+02
             -0.365649469798306E+02
             -0.215233291527154E+02
             -0.201498525876303E+01
              0.791289894754675E+01
              0.421166692852600E+02
             -0.308439470096783E+02
              0.825934263671112E+02
              0.327577768583971E+02
              0.219696511578115E+02
              0.332765653226477E+02
              0.323084352341724E+02
              0.345886833778381E+02
              0.537146749613776E+02
             -0.433726230662928E+02
              0.619410149831290E+02
             -0.112218937053682E+03
              0.307346003612982E+02
             -0.106511326677977E+03
              0.854588356201000E+02
              0.690539831478319E+02
             -0.109923721495816E+02
             -0.493063155506828E+02
             -0.429300097239118E+02
             -0.623241041882223E+02
             -0.628605277631891E+02
              0.551572670143451E+02
              0.405626985589583E+02
              0.236902490771533E+02
              0.373736338000067E+02
              0.403140065888276E+02
             -0.382029818410819E+02
             -0.197856039118166E+02
              0.586341828691121E+02
             -0.115988013401725E+02
              0.551554474099744E+02
              0.699434236847765E+02
             -0.554287471586384E+01
             -0.706166308554452E+02
             -0.908228707848025E+00
             -0.245265283590428E+01
             -0.883132560797162E+01
             -0.178882521912868E+01
             -0.652874030353602E+02
             -0.210872536356252E+02
              0.538102603594096E+01
              0.896821807746352E+01
              0.468894844336001E+02
             -0.397830911955671E+02
              0.657206849449070E+02
             -0.425308688375720E+02
              0.210292183394445E+02
              0.350409765397304E+02
 
 BEEF-vdW xc energy contributions
           1 :   -782.883434764932     
           2 :    719.384803399677     
           3 :   -609.295024819980     
           4 :    479.477767610302     
           5 :   -357.397287087276     
           6 :    262.960683211310     
           7 :   -203.922864037040     
           8 :    175.807673054041     
           9 :   -165.934635445022     
          10 :    159.618897722017     
          11 :   -145.995777018779     
          12 :    121.268306512705     
          13 :   -88.5402625223776     
          14 :    54.8722395578964     
          15 :   -27.2618838754287     
          16 :    9.38119715595690     
          17 :  -0.338644629363330     
          18 :   -4.30708946613140     
          19 :    10.0278971573046     
          20 :   -20.6319160214026     
          21 :    36.6297806381394     
          22 :   -55.2971368403339     
          23 :    72.2299730014460     
          24 :   -83.5439301128858     
          25 :    87.6371086298453     
          26 :   -85.7461336140435     
          27 :    81.1433661381025     
          28 :   -77.4560086304415     
          29 :    76.9476835649276     
          30 :   -79.5755273412238     
          31 :   -85.8929315975482     
          32 :   -65.8773597999389     

     Writing output data file ./pwscf.save/
 
     init_run     :    347.91s CPU    352.40s WALL (       1 calls)
     electrons    :  13204.15s CPU  13336.87s WALL (       1 calls)
     forces       :     99.74s CPU    100.97s WALL (       1 calls)

     Called by init_run:
     wfcinit      :    299.30s CPU    302.83s WALL (       1 calls)
     potinit      :     45.62s CPU     45.93s WALL (       1 calls)
     hinit0       :      1.13s CPU      1.17s WALL (       1 calls)

     Called by electrons:
     c_bands      :  11007.85s CPU  11111.40s WALL (      21 calls)
     sum_band     :   1512.12s CPU   1525.04s WALL (      21 calls)
     v_of_rho     :    133.18s CPU    137.46s WALL (      21 calls)
     newd         :     32.25s CPU     44.11s WALL (      21 calls)
     PAW_pot      :    146.22s CPU    146.22s WALL (      21 calls)
     mix_rho      :    418.90s CPU    419.65s WALL (      21 calls)
     vdW_kernel   :     33.66s CPU     33.66s WALL (       1 calls)

     Called by c_bands:
     init_us_2    :     81.88s CPU     82.14s WALL (     572 calls)
     cegterg      :  10188.45s CPU  10291.36s WALL (     273 calls)

     Called by *egterg:
     cdiaghg      :    110.80s CPU    110.87s WALL (    1491 calls)
     h_psi        :   6520.78s CPU   6556.47s WALL (    1517 calls)
     s_psi        :   1099.30s CPU   1099.41s WALL (    1517 calls)
     g_psi        :     17.55s CPU     17.55s WALL (    1231 calls)

     Called by h_psi:
     h_psi:calbec :   1032.51s CPU   1032.76s WALL (    1517 calls)
     vloc_psi     :   4360.66s CPU   4361.78s WALL (    1517 calls)
     add_vuspsi   :   1099.19s CPU   1099.29s WALL (    1517 calls)

     General routines
     calbec       :   1515.54s CPU   1515.81s WALL (    1842 calls)
     fft          :     48.66s CPU     48.68s WALL (    3281 calls)
     ffts         :    134.03s CPU    134.05s WALL (    9742 calls)
     fftw         :   4442.45s CPU   4443.09s WALL (  351102 calls)
 
     Parallel routines
 
     PWSCF        :      3h49m CPU      3h52m WALL

 
   This run was terminated on:  14:10:28   4Jan2023            

=------------------------------------------------------------------------------=
   JOB DONE.
=------------------------------------------------------------------------------=
