
     Program PWSCF v.6.7MaX starts on  4Jan2023 at 10:11:54 

     This program is part of the open-source Quantum ESPRESSO suite
     for quantum simulation of materials; please cite
         "P. Giannozzi et al., J. Phys.:Condens. Matter 21 395502 (2009);
         "P. Giannozzi et al., J. Phys.:Condens. Matter 29 465901 (2017);
          URL http://www.quantum-espresso.org", 
     in publications or presentations arising from this work. More details at
     http://www.quantum-espresso.org/quote

     Parallel version (MPI), running on     1 processors

     MPI processes distributed on     1 nodes
     Reading input from chchch-bi-ensemble.in
Warning: card &CELL ignored
Warning: card / ignored

     Current dimensions of program PWSCF are:
     Max number of different atomic species (ntypx) = 10
     Max number of k-points (npk) =  40000
     Max angular momentum in pseudopotentials (lmaxx) =  3
     file Pt.pbe-n-kjpaw_psl.1.0.0.UPF: wavefunction(s)  6S 5D renormalized
     file C.pbe-n-kjpaw_psl.1.0.0.UPF: wavefunction(s)  2S 2P renormalized
     file H.pbe-kjpaw_psl.1.0.0.UPF: wavefunction(s)  1S renormalized

     **************************************************************************
     Initializing libbeef V0.1.2 with the BEEF-vdW functional.
     Citation: Wellendorff et al., PRB 85, 235149 (2012).
     **************************************************************************


     IMPORTANT: XC functional enforced from input :
     Exchange-correlation= BEEF-VDW
                           (   1   4  43  14   2   0   0)
     Any further DFT definition will be discarded
     Please, verify this is what you really want


     Subspace diagonalization in iterative solution of the eigenvalue problem:
     a serial algorithm will be used

 
     G-vector sticks info
     --------------------
     sticks:   dense  smooth     PW     G-vecs:    dense   smooth      PW
     Sum        4267    4267   1159               734569   734569  103497
 


     bravais-lattice index     =            0
     lattice parameter (alat)  =      16.0349  a.u.
     unit-cell volume          =   11691.4349 (a.u.)^3
     number of atoms/cell      =           42
     number of atomic types    =            3
     number of electrons       =       375.00
     number of Kohn-Sham states=          226
     kinetic-energy cutoff     =      60.0000  Ry
     charge density cutoff     =     240.0000  Ry
     scf convergence threshold =      1.0E-06
     mixing beta               =       0.7000
     number of iterations used =            8  local-TF  mixing
     Exchange-correlation= BEEF-VDW
                           (   1   4  43  14   2   0   0)

     celldm(1)=  16.034858  celldm(2)=   0.000000  celldm(3)=   0.000000
     celldm(4)=   0.000000  celldm(5)=   0.000000  celldm(6)=   0.000000

     crystal axes: (cart. coord. in units of alat)
               a(1) = (   1.000000   0.000000   0.000000 )  
               a(2) = (   0.500000   0.866025   0.000000 )  
               a(3) = (   0.000000   0.000000   3.274476 )  

     reciprocal axes: (cart. coord. in units 2 pi/alat)
               b(1) = (  1.000000 -0.577350  0.000000 )  
               b(2) = (  0.000000  1.154701  0.000000 )  
               b(3) = (  0.000000  0.000000  0.305392 )  


     PseudoPot. # 1 for Pt read from file:
     /users/bkreitz1/quantum-espresso/potentials/Pt.pbe-n-kjpaw_psl.1.0.0.UPF
     MD5 check sum: 04dc8a03c51ece93fc7b5889c2958091
     Pseudo is Projector augmented-wave + core cor, Zval = 10.0
     Generated using 'atomic' code by A. Dal Corso  v.6.7MaX
     Shape of augmentation charge: PSQ
     Using radial grid of 1277 points,  6 beta functions with: 
                l(1) =   0
                l(2) =   0
                l(3) =   1
                l(4) =   1
                l(5) =   2
                l(6) =   2
     Q(r) pseudized with 0 coefficients 


     PseudoPot. # 2 for C  read from file:
     /users/bkreitz1/quantum-espresso/potentials/C.pbe-n-kjpaw_psl.1.0.0.UPF
     MD5 check sum: a169b0ebad56f5ec0d79c4633f80bf22
     Pseudo is Projector augmented-wave + core cor, Zval =  4.0
     Generated using 'atomic' code by A. Dal Corso  v.6.7MaX
     Shape of augmentation charge: PSQ
     Using radial grid of 1073 points,  4 beta functions with: 
                l(1) =   0
                l(2) =   0
                l(3) =   1
                l(4) =   1
     Q(r) pseudized with 0 coefficients 


     PseudoPot. # 3 for H  read from file:
     /users/bkreitz1/quantum-espresso/potentials/H.pbe-kjpaw_psl.1.0.0.UPF
     MD5 check sum: ae98473e6dc62675f0d0baffdab24f65
     Pseudo is Projector augmented-wave, Zval =  1.0
     Generated using 'atomic' code by A. Dal Corso  v.6.7MaX
     Shape of augmentation charge: PSQ
     Using radial grid of  929 points,  2 beta functions with: 
                l(1) =   0
                l(2) =   0
     Q(r) pseudized with 0 coefficients 


     atomic species   valence    mass     pseudopotential
        Pt            10.00   195.08400     Pt( 1.00)
        C              4.00    12.01100     C ( 1.00)
        H              1.00     1.00800     H ( 1.00)

     No symmetry found



   Cartesian axes

     site n.     atom                  positions (alat units)
         1           Pt  tau(   1) = (   0.0000000   0.0000000   1.0017346  )
         2           Pt  tau(   2) = (   0.3333333   0.0000000   1.0017346  )
         3           Pt  tau(   3) = (   0.6666667   0.0000000   1.0017346  )
         4           Pt  tau(   4) = (   0.1666667   0.2886751   1.0017346  )
         5           Pt  tau(   5) = (   0.5000000   0.2886751   1.0017346  )
         6           Pt  tau(   6) = (   0.8333333   0.2886751   1.0017346  )
         7           Pt  tau(   7) = (   0.3333333   0.5773503   1.0017346  )
         8           Pt  tau(   8) = (   0.6666667   0.5773503   1.0017346  )
         9           Pt  tau(   9) = (   1.0000000   0.5773503   1.0017346  )
        10           Pt  tau(  10) = (   0.1666667   0.0962250   1.2739001  )
        11           Pt  tau(  11) = (   0.5000000   0.0962250   1.2739001  )
        12           Pt  tau(  12) = (   0.8333333   0.0962250   1.2739001  )
        13           Pt  tau(  13) = (   0.3333333   0.3849002   1.2739001  )
        14           Pt  tau(  14) = (   0.6666667   0.3849002   1.2739001  )
        15           Pt  tau(  15) = (   1.0000000   0.3849002   1.2739001  )
        16           Pt  tau(  16) = (   0.5000000   0.6735753   1.2739001  )
        17           Pt  tau(  17) = (   0.8333333   0.6735753   1.2739001  )
        18           Pt  tau(  18) = (   1.1666667   0.6735753   1.2739001  )
        19           Pt  tau(  19) = (   0.0008885   0.1920763   1.5399849  )
        20           Pt  tau(  20) = (   0.3365057   0.1930900   1.5460129  )
        21           Pt  tau(  21) = (   0.6650574   0.1938638   1.5481395  )
        22           Pt  tau(  22) = (   0.1679338   0.4804885   1.5410955  )
        23           Pt  tau(  23) = (   0.5023371   0.4799894   1.5483857  )
        24           Pt  tau(  24) = (   0.8321574   0.4824374   1.5479972  )
        25           Pt  tau(  25) = (   0.3345356   0.7698947   1.5412262  )
        26           Pt  tau(  26) = (   0.6679318   0.7666843   1.5462639  )
        27           Pt  tau(  27) = (   1.0015449   0.7691868   1.5427209  )
        28           Pt  tau(  28) = (   0.0036123   0.0001749   1.8162404  )
        29           Pt  tau(  29) = (   0.3369657  -0.0009873   1.8151502  )
        30           Pt  tau(  30) = (   0.6718839  -0.0040226   1.8170699  )
        31           Pt  tau(  31) = (   0.1686366   0.2867602   1.8159350  )
        32           Pt  tau(  32) = (   0.5043687   0.2843204   1.8384714  )
        33           Pt  tau(  33) = (   0.8416162   0.2846973   1.8151391  )
        34           Pt  tau(  34) = (   0.3356050   0.5770561   1.8135910  )
        35           Pt  tau(  35) = (   0.6736095   0.5773085   1.8384316  )
        36           Pt  tau(  36) = (   1.0071412   0.5759604   1.8169106  )
        37           C   tau(  37) = (   0.5158060   0.3063189   2.0657729  )
        38           C   tau(  38) = (   0.5923870   0.4288118   2.1433762  )
        39           C   tau(  39) = (   0.6657300   0.5532547   2.0655900  )
        40           H   tau(  40) = (   0.4595520   0.2150453   2.1363535  )
        41           H   tau(  41) = (   0.5938861   0.4280258   2.2718901  )
        42           H   tau(  42) = (   0.7233615   0.6437089   2.1373154  )

     number of k points=    13  Marzari-Vanderbilt smearing, width (Ry)=  0.0200
                       cart. coord. in units 2pi/alat
        k(    1) = (   0.0000000   0.0000000   0.0000000), wk =   0.0800000
        k(    2) = (   0.0000000   0.2309401   0.0000000), wk =   0.1600000
        k(    3) = (   0.0000000   0.4618802   0.0000000), wk =   0.1600000
        k(    4) = (   0.2000000  -0.1154701   0.0000000), wk =   0.1600000
        k(    5) = (   0.2000000   0.1154701   0.0000000), wk =   0.1600000
        k(    6) = (   0.2000000   0.3464102   0.0000000), wk =   0.1600000
        k(    7) = (   0.2000000  -0.5773503   0.0000000), wk =   0.1600000
        k(    8) = (   0.2000000  -0.3464102   0.0000000), wk =   0.1600000
        k(    9) = (   0.4000000  -0.2309401   0.0000000), wk =   0.1600000
        k(   10) = (   0.4000000  -0.0000000   0.0000000), wk =   0.1600000
        k(   11) = (   0.4000000   0.2309401   0.0000000), wk =   0.1600000
        k(   12) = (   0.4000000  -0.6928203   0.0000000), wk =   0.1600000
        k(   13) = (   0.4000000  -0.4618802   0.0000000), wk =   0.1600000

     Dense  grid:   734569 G-vectors     FFT dimensions: (  80,  80, 270)

     Estimated max dynamical RAM per process >       8.92 GB

     Check: negative core charge=   -0.000002

     Initial potential from superposition of free atoms

     starting charge  374.99374, renormalised to  375.00000

     negative rho (up, down):  1.167E-02 0.000E+00


     %%%%%%%%%%%%%%%%%%%%%%%%%%%%%%%%%%%%%%%%%%%%%%%%%%%%%%%%%%%%%%%%%%%%%%%%
     %                                                                      %
     % You are using vdW-DF, which was implemented by the Thonhauser group. %
     % Please cite the following two papers that made this development      %
     % possible and the two reviews that describe the various versions:     %
     %                                                                      %
     %   T. Thonhauser et al., PRL 115, 136402 (2015).                      %
     %   T. Thonhauser et al., PRB 76, 125112 (2007).                       %
     %   K. Berland et al., Rep. Prog. Phys. 78, 066501 (2015).             %
     %   D.C. Langreth et al., J. Phys.: Condens. Matter 21, 084203 (2009). %
     %                                                                      %
     %                                                                      %
     % If you are calculating the stress with vdW-DF, please also cite:     %
     %                                                                      %
     %   R. Sabatini et al., J. Phys.: Condens. Matter 24, 424209 (2012).   %
     %                                                                      %
     %%%%%%%%%%%%%%%%%%%%%%%%%%%%%%%%%%%%%%%%%%%%%%%%%%%%%%%%%%%%%%%%%%%%%%%%


     Starting wfcs are  339 randomized atomic wfcs
     Checking if some PAW data can be deallocated... 

     total cpu time spent up to now is      355.2 secs

     Self-consistent Calculation

     iteration #  1     ecut=    60.00 Ry     beta= 0.70
     Davidson diagonalization with overlap
     ethr =  1.00E-02,  avg # of iterations =  2.2

     negative rho (up, down):  1.347E-02 0.000E+00

     total cpu time spent up to now is     1003.1 secs

     total energy              =  -27814.07210906 Ry
     estimated scf accuracy    <       4.83171134 Ry

     iteration #  2     ecut=    60.00 Ry     beta= 0.70
     Davidson diagonalization with overlap
     ethr =  1.29E-03,  avg # of iterations =  2.2

     negative rho (up, down):  1.125E-02 0.000E+00

     total cpu time spent up to now is     1662.8 secs

     total energy              =  -27814.63139687 Ry
     estimated scf accuracy    <       1.12737342 Ry

     iteration #  3     ecut=    60.00 Ry     beta= 0.70
     Davidson diagonalization with overlap
     ethr =  3.01E-04,  avg # of iterations =  6.5

     negative rho (up, down):  8.742E-03 0.000E+00

     total cpu time spent up to now is     2429.8 secs

     total energy              =  -27814.78200297 Ry
     estimated scf accuracy    <       0.48436404 Ry

     iteration #  4     ecut=    60.00 Ry     beta= 0.70
     Davidson diagonalization with overlap
     c_bands:  1 eigenvalues not converged
     c_bands:  1 eigenvalues not converged
     ethr =  1.29E-04,  avg # of iterations =  8.8

     negative rho (up, down):  5.871E-03 0.000E+00

     total cpu time spent up to now is     3172.1 secs

     total energy              =  -27814.83247219 Ry
     estimated scf accuracy    <       0.13671204 Ry

     iteration #  5     ecut=    60.00 Ry     beta= 0.70
     Davidson diagonalization with overlap
     c_bands:  1 eigenvalues not converged
     c_bands:  2 eigenvalues not converged
     c_bands:  1 eigenvalues not converged
     ethr =  3.65E-05,  avg # of iterations = 13.8

     negative rho (up, down):  4.175E-03 0.000E+00

     total cpu time spent up to now is     4171.8 secs

     total energy              =  -27814.85922568 Ry
     estimated scf accuracy    <       0.13867414 Ry

     iteration #  6     ecut=    60.00 Ry     beta= 0.70
     Davidson diagonalization with overlap
     ethr =  3.65E-05,  avg # of iterations =  2.1

     negative rho (up, down):  3.164E-03 0.000E+00

     total cpu time spent up to now is     4769.9 secs

     total energy              =  -27814.86355342 Ry
     estimated scf accuracy    <       0.01790188 Ry

     iteration #  7     ecut=    60.00 Ry     beta= 0.70
     Davidson diagonalization with overlap
     c_bands:  2 eigenvalues not converged
     c_bands:  2 eigenvalues not converged
     c_bands:  2 eigenvalues not converged
     c_bands:  2 eigenvalues not converged
     c_bands:  1 eigenvalues not converged
     ethr =  4.77E-06,  avg # of iterations = 15.2

     negative rho (up, down):  2.955E-03 0.000E+00

     total cpu time spent up to now is     5673.2 secs

     total energy              =  -27814.86628550 Ry
     estimated scf accuracy    <       0.00985793 Ry

     iteration #  8     ecut=    60.00 Ry     beta= 0.70
     Davidson diagonalization with overlap
     ethr =  2.63E-06,  avg # of iterations =  6.6

     negative rho (up, down):  2.942E-03 0.000E+00

     total cpu time spent up to now is     6334.6 secs

     total energy              =  -27814.86680762 Ry
     estimated scf accuracy    <       0.00419429 Ry

     iteration #  9     ecut=    60.00 Ry     beta= 0.70
     Davidson diagonalization with overlap
     ethr =  1.12E-06,  avg # of iterations =  4.8

     negative rho (up, down):  3.505E-03 0.000E+00

     total cpu time spent up to now is     6991.3 secs

     total energy              =  -27814.86695658 Ry
     estimated scf accuracy    <       0.00258316 Ry

     iteration # 10     ecut=    60.00 Ry     beta= 0.70
     Davidson diagonalization with overlap
     ethr =  6.89E-07,  avg # of iterations =  9.5

     negative rho (up, down):  6.112E-03 0.000E+00

     total cpu time spent up to now is     7705.0 secs

     total energy              =  -27814.86693412 Ry
     estimated scf accuracy    <       0.00149672 Ry

     iteration # 11     ecut=    60.00 Ry     beta= 0.70
     Davidson diagonalization with overlap
     ethr =  3.99E-07,  avg # of iterations =  6.2

     negative rho (up, down):  7.558E-03 0.000E+00

     total cpu time spent up to now is     8388.1 secs

     total energy              =  -27814.86703517 Ry
     estimated scf accuracy    <       0.00067347 Ry

     iteration # 12     ecut=    60.00 Ry     beta= 0.70
     Davidson diagonalization with overlap
     ethr =  1.80E-07,  avg # of iterations =  2.0

     negative rho (up, down):  8.736E-03 0.000E+00

     total cpu time spent up to now is     9030.6 secs

     total energy              =  -27814.86713341 Ry
     estimated scf accuracy    <       0.00030052 Ry

     iteration # 13     ecut=    60.00 Ry     beta= 0.70
     Davidson diagonalization with overlap
     ethr =  8.01E-08,  avg # of iterations =  3.1

     negative rho (up, down):  9.553E-03 0.000E+00

     total cpu time spent up to now is     9728.8 secs

     total energy              =  -27814.86718755 Ry
     estimated scf accuracy    <       0.00025301 Ry

     iteration # 14     ecut=    60.00 Ry     beta= 0.70
     Davidson diagonalization with overlap
     ethr =  6.75E-08,  avg # of iterations =  1.4

     negative rho (up, down):  9.220E-03 0.000E+00

     total cpu time spent up to now is    10305.2 secs

     total energy              =  -27814.86722481 Ry
     estimated scf accuracy    <       0.00012512 Ry

     iteration # 15     ecut=    60.00 Ry     beta= 0.70
     Davidson diagonalization with overlap
     ethr =  3.34E-08,  avg # of iterations =  2.0

     negative rho (up, down):  1.156E-02 0.000E+00

     total cpu time spent up to now is    10947.0 secs

     total energy              =  -27814.86722723 Ry
     estimated scf accuracy    <       0.00007153 Ry

     iteration # 16     ecut=    60.00 Ry     beta= 0.70
     Davidson diagonalization with overlap
     ethr =  1.91E-08,  avg # of iterations =  2.0

     negative rho (up, down):  1.213E-02 0.000E+00

     total cpu time spent up to now is    11585.3 secs

     total energy              =  -27814.86723192 Ry
     estimated scf accuracy    <       0.00003803 Ry

     iteration # 17     ecut=    60.00 Ry     beta= 0.70
     Davidson diagonalization with overlap
     ethr =  1.01E-08,  avg # of iterations =  2.0

     negative rho (up, down):  1.238E-02 0.000E+00

     total cpu time spent up to now is    12217.0 secs

     total energy              =  -27814.86723302 Ry
     estimated scf accuracy    <       0.00001869 Ry

     iteration # 18     ecut=    60.00 Ry     beta= 0.70
     Davidson diagonalization with overlap
     ethr =  4.98E-09,  avg # of iterations =  2.0

     negative rho (up, down):  1.294E-02 0.000E+00

     total cpu time spent up to now is    12887.4 secs

     total energy              =  -27814.86723313 Ry
     estimated scf accuracy    <       0.00001412 Ry

     iteration # 19     ecut=    60.00 Ry     beta= 0.70
     Davidson diagonalization with overlap
     ethr =  3.77E-09,  avg # of iterations =  2.0

     negative rho (up, down):  1.311E-02 0.000E+00

     total cpu time spent up to now is    13510.5 secs

     total energy              =  -27814.86723371 Ry
     estimated scf accuracy    <       0.00000326 Ry

     iteration # 20     ecut=    60.00 Ry     beta= 0.70
     Davidson diagonalization with overlap
     ethr =  8.70E-10,  avg # of iterations =  4.5

     negative rho (up, down):  1.308E-02 0.000E+00

     total cpu time spent up to now is    14457.1 secs

     End of self-consistent calculation

          k = 0.0000 0.0000 0.0000 ( 91845 PWs)   bands (ev):

   -13.7984 -10.6363  -7.3276  -6.8297  -6.0331  -5.5720  -4.6354  -4.5659
    -4.4851  -4.4770  -4.4717  -4.4564  -4.4313  -4.4179  -4.2752  -3.9357
    -3.9294  -3.9185  -3.9118  -3.9075  -3.8956  -3.5650  -3.4932  -3.4666
    -3.4628  -3.4582  -3.4382  -3.4015  -3.2822  -3.2619  -3.2303  -3.2274
    -3.2188  -3.1583  -3.0861  -3.0607  -3.0315  -3.0234  -3.0181  -2.9971
    -2.9927  -2.9830  -2.9539  -2.9472  -2.9143  -2.8447  -2.7742  -2.6851
    -2.4732  -2.3943  -2.3717  -2.3649  -2.3393  -2.3185  -2.3178  -2.2852
    -2.2589  -2.1497  -2.1209  -2.1129  -1.9999  -1.8911  -1.7012  -1.6207
    -1.5973  -1.5767  -1.5749  -1.4883  -1.4840  -1.4785  -1.4330  -1.3824
    -1.3811  -1.3736  -1.3664  -1.3505  -1.3463  -1.3262  -1.3142  -1.2952
    -1.2924  -1.2685  -1.2460  -1.2227  -1.1750  -1.1703  -1.1644  -1.1534
    -1.1027  -1.0109  -1.0046  -0.9893  -0.9734  -0.9700  -0.9370  -0.9312
    -0.9246  -0.9174  -0.8858  -0.8618  -0.8498  -0.8335  -0.8279  -0.7290
    -0.7217  -0.7147  -0.6803  -0.6801  -0.5697  -0.5535  -0.5469  -0.5258
    -0.4780  -0.4643  -0.2665  -0.1539  -0.1078  -0.1001  -0.0785  -0.0585
    -0.0556  -0.0354  -0.0158   0.0173   0.0232   0.0727   0.1200   0.1268
     0.1430   0.2109   0.2216   0.2671   0.2712   0.3136   0.3385   0.3481
     0.4341   0.4536   0.4558   0.4745   0.4777   0.5965   0.6290   0.6615
     0.6929   0.7067   0.7207   0.7576   0.7833   0.9406   0.9406   0.9586
     0.9908   1.0017   1.0233   1.0254   1.0508   1.1112   1.1233   1.1329
     1.1476   1.1484   1.1615   1.1724   1.1820   1.1912   1.2075   1.2093
     1.2603   1.2662   1.2703   1.2799   1.2935   1.3638   1.3724   1.3814
     1.3931   1.3962   1.4061   1.4178   1.4536   1.4598   1.5199   1.5257
     1.5283   1.5374   1.5547   1.5631   1.5734   1.6137   1.6406   1.6417
     1.6781   1.6833   1.8187   1.8425   1.9046   1.9384   1.9692   1.9692
     1.9798   1.9957   2.1723   2.2722   2.5521   2.7488   2.8240   2.8528
     2.8983   3.0811   3.8080   4.3497   5.0652   5.1333   5.1550   5.1801
     5.6015   5.8912   6.3930   6.5093   6.5516   6.7583   6.7746   6.7829
     6.7964   6.8278

          k = 0.0000 0.2309 0.0000 ( 91706 PWs)   bands (ev):

   -13.7983 -10.6371  -7.3090  -6.6984  -6.0280  -5.4393  -4.9896  -4.6263
    -4.5690  -4.4577  -4.4146  -4.3314  -4.2519  -4.2122  -4.1799  -4.0169
    -3.9968  -3.8686  -3.8540  -3.8456  -3.8315  -3.6000  -3.4995  -3.4500
    -3.4216  -3.4091  -3.3924  -3.3369  -3.3272  -3.3003  -3.2720  -3.2424
    -3.2203  -3.1791  -3.1334  -3.0892  -3.0712  -3.0494  -3.0292  -3.0186
    -2.9794  -2.8913  -2.8628  -2.7948  -2.7829  -2.7560  -2.7178  -2.6353
    -2.5541  -2.4887  -2.4593  -2.4390  -2.4034  -2.3623  -2.3127  -2.2148
    -2.1689  -2.1395  -2.1157  -2.0870  -2.0371  -1.9610  -1.8139  -1.7624
    -1.7270  -1.6950  -1.6814  -1.6705  -1.6122  -1.5719  -1.5498  -1.5337
    -1.5042  -1.4757  -1.4549  -1.4466  -1.3986  -1.3863  -1.3452  -1.3096
    -1.2786  -1.2702  -1.2071  -1.1897  -1.1816  -1.1545  -1.1134  -1.1068
    -1.0731  -1.0638  -1.0429  -1.0137  -0.9931  -0.9751  -0.9536  -0.9436
    -0.9274  -0.8788  -0.8500  -0.8304  -0.8203  -0.8029  -0.7825  -0.7544
    -0.7475  -0.7339  -0.6979  -0.6587  -0.6253  -0.6129  -0.5769  -0.5521
    -0.5117  -0.4883  -0.4564  -0.4456  -0.4326  -0.4266  -0.3565  -0.2377
    -0.2196  -0.1361  -0.1187  -0.0662  -0.0501  -0.0050   0.0064   0.0307
     0.0588   0.1377   0.1690   0.2306   0.2844   0.3254   0.3283   0.3758
     0.3997   0.4139   0.4241   0.4553   0.4868   0.5207   0.5609   0.5712
     0.6015   0.6088   0.7055   0.7235   0.7631   0.7903   0.8226   0.8372
     0.8785   0.9033   0.9490   0.9592   0.9831   1.0163   1.0339   1.0676
     1.1050   1.1285   1.1729   1.1925   1.2238   1.2508   1.2703   1.3139
     1.3397   1.3672   1.3733   1.3849   1.4444   1.4830   1.5114   1.5234
     1.5485   1.5751   1.5906   1.6122   1.6172   1.6344   1.6500   1.6807
     1.6930   1.7944   1.8172   1.8383   1.8539   1.8649   1.8971   1.9104
     1.9386   1.9528   1.9812   1.9950   2.0688   2.0765   2.1002   2.1366
     2.2427   2.2671   2.2785   2.4872   2.5783   2.8283   2.9440   3.2524
     3.4266   3.5859   3.8379   4.4214   4.6285   4.9853   5.4598   5.5953
     5.6049   5.7418   5.8298   6.0546   6.3899   6.4749   6.6081   6.6565
     6.7366   6.8877

          k = 0.0000 0.4619 0.0000 ( 91766 PWs)   bands (ev):

   -13.7981 -10.6385  -7.2849  -6.3026  -6.0218  -5.6687  -5.0606  -4.6569
    -4.6048  -4.5531  -4.3578  -4.1892  -4.0833  -4.0301  -3.9494  -3.8779
    -3.8738  -3.7700  -3.7366  -3.6906  -3.6722  -3.6555  -3.5724  -3.5514
    -3.5016  -3.4867  -3.4582  -3.4444  -3.4033  -3.3660  -3.3342  -3.3145
    -3.2550  -3.1035  -3.0608  -3.0447  -3.0323  -3.0244  -3.0050  -2.9145
    -2.8951  -2.8042  -2.7943  -2.7827  -2.7534  -2.6866  -2.6634  -2.5964
    -2.4971  -2.4749  -2.4383  -2.4122  -2.4035  -2.3531  -2.3189  -2.3037
    -2.2612  -2.2353  -2.1790  -2.1100  -2.1017  -2.0586  -2.0347  -1.9387
    -1.8983  -1.8686  -1.8547  -1.7994  -1.7529  -1.7192  -1.6664  -1.6568
    -1.6444  -1.5870  -1.5527  -1.5439  -1.5169  -1.4351  -1.4082  -1.3910
    -1.3438  -1.3141  -1.2904  -1.2700  -1.2438  -1.2284  -1.2049  -1.1874
    -1.1615  -1.1464  -1.1310  -1.1093  -1.0872  -1.0689  -1.0445  -0.9953
    -0.9887  -0.9671  -0.9567  -0.9309  -0.8462  -0.8322  -0.8096  -0.8009
    -0.7556  -0.7409  -0.7062  -0.6833  -0.6662  -0.5918  -0.5630  -0.5192
    -0.4899  -0.4755  -0.4450  -0.4185  -0.3589  -0.3394  -0.3049  -0.2361
    -0.2063  -0.1833  -0.1579  -0.1013  -0.0831  -0.0605  -0.0430  -0.0320
    -0.0064   0.0182   0.0288   0.0604   0.0799   0.1127   0.1429   0.1745
     0.2426   0.2535   0.2759   0.3027   0.3283   0.4220   0.4453   0.4915
     0.5284   0.5610   0.6734   0.6894   0.7144   0.7322   0.7684   0.8111
     0.8445   0.8553   0.9076   0.9182   0.9533   0.9921   0.9997   1.0665
     1.1035   1.1164   1.1238   1.1469   1.1729   1.2685   1.2826   1.3417
     1.3710   1.3854   1.4176   1.4214   1.5175   1.5396   1.5489   1.6197
     1.6303   1.6554   1.6828   1.7079   1.7230   1.7717   1.8241   1.8312
     1.8638   1.8716   1.8902   1.9175   1.9338   2.0727   2.0877   2.1011
     2.1154   2.1574   2.2416   2.3565   2.3804   2.4679   2.5870   2.8203
     2.9431   3.1554   3.1851   3.2401   3.5013   3.5651   3.7333   3.9257
     4.1551   4.3837   4.3950   4.4679   4.5392   4.6794   4.7025   4.9457
     5.0296   5.1231   5.4553   5.7323   5.9459   6.1368   6.2588   6.3025
     6.6468   6.6917

          k = 0.2000-0.1155 0.0000 ( 91706 PWs)   bands (ev):

   -13.7984 -10.6363  -7.3138  -6.6965  -6.0292  -5.4357  -4.9630  -4.6776
    -4.5702  -4.4195  -4.4134  -4.3322  -4.2568  -4.2193  -4.1702  -4.0485
    -3.9994  -3.8831  -3.8540  -3.8349  -3.8273  -3.5579  -3.5438  -3.4354
    -3.4247  -3.3997  -3.3940  -3.3471  -3.3267  -3.3091  -3.2556  -3.2329
    -3.2100  -3.1956  -3.1427  -3.0951  -3.0762  -3.0443  -3.0159  -3.0116
    -2.9580  -2.9215  -2.8397  -2.8046  -2.7737  -2.7724  -2.7396  -2.6466
    -2.5150  -2.5013  -2.4425  -2.4374  -2.3713  -2.3495  -2.3052  -2.2185
    -2.1963  -2.1842  -2.1248  -2.0678  -2.0244  -1.9727  -1.8130  -1.7860
    -1.7385  -1.6975  -1.6940  -1.6387  -1.5801  -1.5762  -1.5406  -1.5383
    -1.5296  -1.4841  -1.4547  -1.3987  -1.3939  -1.3857  -1.3458  -1.3226
    -1.2730  -1.2672  -1.2290  -1.1920  -1.1862  -1.1416  -1.1129  -1.1007
    -1.0617  -1.0590  -1.0406  -1.0290  -0.9910  -0.9691  -0.9684  -0.9581
    -0.9054  -0.8838  -0.8778  -0.8237  -0.8196  -0.8061  -0.7881  -0.7388
    -0.7372  -0.7286  -0.7039  -0.6688  -0.6442  -0.5990  -0.5562  -0.5284
    -0.5016  -0.4787  -0.4588  -0.4389  -0.4351  -0.4111  -0.3874  -0.2813
    -0.2328  -0.1440  -0.0825  -0.0776  -0.0399  -0.0175  -0.0142   0.0394
     0.0416   0.1165   0.1969   0.2003   0.2889   0.3285   0.3529   0.3872
     0.3979   0.4074   0.4184   0.4604   0.4820   0.4978   0.5500   0.5635
     0.5990   0.6121   0.7119   0.7224   0.7602   0.7656   0.8219   0.8727
     0.9015   0.9122   0.9529   0.9605   0.9861   1.0373   1.0401   1.0789
     1.1087   1.1292   1.1727   1.1996   1.2124   1.2582   1.2629   1.3255
     1.3281   1.3554   1.3881   1.4192   1.4314   1.4946   1.4991   1.5161
     1.5549   1.5672   1.5901   1.6140   1.6183   1.6326   1.6402   1.6934
     1.7000   1.8053   1.8239   1.8289   1.8609   1.8913   1.8991   1.9239
     1.9269   1.9491   1.9651   1.9682   2.0410   2.0737   2.1056   2.1983
     2.2484   2.2634   2.2973   2.3356   2.6278   2.7019   3.1123   3.2105
     3.4409   3.5347   3.9853   4.1467   4.6833   5.2098   5.3136   5.5961
     5.6197   5.7414   5.7982   6.1222   6.2849   6.5525   6.5839   6.6293
     6.7215   6.8129

          k = 0.2000 0.1155 0.0000 ( 91706 PWs)   bands (ev):

   -13.7983 -10.6371  -7.3089  -6.6985  -6.0281  -5.4393  -4.9902  -4.6273
    -4.5693  -4.4557  -4.4143  -4.3316  -4.2527  -4.2114  -4.1796  -4.0181
    -3.9980  -3.8687  -3.8518  -3.8460  -3.8315  -3.6001  -3.5011  -3.4508
    -3.4213  -3.4103  -3.3915  -3.3347  -3.3272  -3.3002  -3.2719  -3.2429
    -3.2223  -3.1802  -3.1315  -3.0867  -3.0721  -3.0506  -3.0291  -3.0182
    -2.9782  -2.8918  -2.8604  -2.7944  -2.7818  -2.7577  -2.7184  -2.6350
    -2.5526  -2.4874  -2.4615  -2.4403  -2.4045  -2.3615  -2.3130  -2.2146
    -2.1655  -2.1388  -2.1171  -2.0861  -2.0389  -1.9604  -1.8132  -1.7638
    -1.7263  -1.6928  -1.6812  -1.6672  -1.6154  -1.5717  -1.5494  -1.5317
    -1.5035  -1.4776  -1.4549  -1.4417  -1.4002  -1.3862  -1.3459  -1.3142
    -1.2818  -1.2709  -1.2127  -1.1885  -1.1784  -1.1544  -1.1108  -1.1060
    -1.0736  -1.0656  -1.0426  -1.0130  -0.9917  -0.9767  -0.9516  -0.9423
    -0.9249  -0.8781  -0.8503  -0.8340  -0.8195  -0.8041  -0.7824  -0.7551
    -0.7493  -0.7337  -0.6975  -0.6591  -0.6252  -0.6137  -0.5792  -0.5542
    -0.5124  -0.4887  -0.4553  -0.4456  -0.4321  -0.4268  -0.3480  -0.2395
    -0.2218  -0.1360  -0.1158  -0.0668  -0.0495  -0.0043   0.0062   0.0285
     0.0593   0.1321   0.1688   0.2298   0.2838   0.3260   0.3274   0.3752
     0.3997   0.4124   0.4230   0.4544   0.4853   0.5212   0.5599   0.5708
     0.6024   0.6086   0.7077   0.7202   0.7643   0.7912   0.8235   0.8371
     0.8787   0.9034   0.9494   0.9596   0.9827   1.0164   1.0344   1.0678
     1.1038   1.1284   1.1740   1.1940   1.2255   1.2506   1.2704   1.3149
     1.3383   1.3666   1.3742   1.3853   1.4450   1.4829   1.5111   1.5230
     1.5489   1.5751   1.5895   1.6121   1.6184   1.6347   1.6508   1.6808
     1.6921   1.7937   1.8164   1.8381   1.8541   1.8650   1.8981   1.9104
     1.9406   1.9519   1.9818   1.9974   2.0687   2.0765   2.1004   2.1352
     2.2475   2.2661   2.2793   2.4946   2.5819   2.8138   2.9373   3.2606
     3.4273   3.5847   3.8357   4.4222   4.6280   4.9833   5.4655   5.5943
     5.6065   5.7431   5.8287   6.0505   6.4154   6.4641   6.6069   6.6518
     6.7258   6.8810

          k = 0.2000 0.3464 0.0000 ( 91754 PWs)   bands (ev):

   -13.7981 -10.6385  -7.2875  -6.4337  -6.0223  -5.2364  -5.2331  -5.1611
    -4.4963  -4.1677  -4.1642  -4.1418  -4.1328  -4.0944  -4.0621  -4.0397
    -4.0225  -3.9634  -3.9397  -3.6681  -3.6018  -3.5843  -3.5439  -3.5213
    -3.4997  -3.4126  -3.3751  -3.3434  -3.3372  -3.3205  -3.2865  -3.1982
    -3.1852  -3.1786  -3.1452  -3.1424  -3.1083  -3.0780  -3.0610  -3.0231
    -2.9885  -2.9096  -2.8749  -2.7509  -2.6487  -2.5956  -2.5833  -2.5591
    -2.5350  -2.5294  -2.5005  -2.4484  -2.3764  -2.3664  -2.2942  -2.2796
    -2.1787  -2.1606  -2.1553  -2.0926  -2.0808  -2.0534  -2.0045  -1.9265
    -1.8520  -1.7937  -1.7779  -1.7541  -1.7313  -1.6990  -1.6747  -1.6580
    -1.6105  -1.5784  -1.5063  -1.4869  -1.4739  -1.4328  -1.4209  -1.4009
    -1.3678  -1.3168  -1.2912  -1.2754  -1.2174  -1.1829  -1.1655  -1.1509
    -1.1175  -1.1060  -1.0891  -1.0664  -1.0527  -1.0378  -1.0239  -0.9929
    -0.9557  -0.8990  -0.8811  -0.8631  -0.8491  -0.8222  -0.8032  -0.7682
    -0.7563  -0.7472  -0.7322  -0.7087  -0.6784  -0.6446  -0.6211  -0.6020
    -0.5852  -0.5600  -0.5154  -0.4989  -0.4769  -0.3996  -0.3896  -0.3576
    -0.2534  -0.1761  -0.1610  -0.1285  -0.1074  -0.0480  -0.0199   0.0110
     0.0354   0.0721   0.0772   0.0995   0.1225   0.1672   0.2042   0.2291
     0.3075   0.3369   0.3695   0.3748   0.4202   0.4584   0.5171   0.5381
     0.5580   0.6023   0.6383   0.6633   0.7103   0.7401   0.7553   0.8200
     0.8346   0.8773   0.8973   0.9139   0.9403   0.9459   0.9742   0.9856
     1.0289   1.0430   1.0961   1.1242   1.1760   1.2877   1.2930   1.3154
     1.4535   1.4896   1.5070   1.5414   1.5541   1.6179   1.6260   1.6572
     1.6737   1.6893   1.7124   1.7175   1.7289   1.7606   1.7799   1.7906
     1.8398   1.8774   1.9003   1.9228   1.9491   1.9746   2.0307   2.1009
     2.1632   2.1724   2.2005   2.2324   2.2640   2.3326   2.3793   2.4671
     2.6632   2.9102   2.9726   3.1804   3.2601   3.4429   3.5048   3.5606
     3.9016   4.1506   4.2411   4.4022   4.4963   4.7854   5.0747   5.1881
     5.5704   5.6039   5.7972   5.9257   6.1136   6.2018   6.2829   6.3289
     6.4279   6.6704

          k = 0.2000-0.5774 0.0000 ( 91730 PWs)   bands (ev):

   -13.7981 -10.6385  -7.2813  -6.0510  -5.9248  -5.8617  -5.2974  -4.7741
    -4.6717  -4.3956  -4.1714  -4.0974  -4.0036  -3.9732  -3.8645  -3.8569
    -3.7685  -3.7506  -3.7279  -3.6800  -3.6515  -3.6109  -3.5980  -3.5861
    -3.5702  -3.5268  -3.4468  -3.4284  -3.4135  -3.3803  -3.3622  -3.2667
    -3.2234  -3.1919  -3.1409  -3.0855  -3.0617  -3.0196  -3.0126  -2.9798
    -2.9612  -2.9114  -2.8548  -2.7950  -2.7305  -2.6945  -2.6069  -2.5715
    -2.5015  -2.4878  -2.4070  -2.3782  -2.3476  -2.2689  -2.2289  -2.1828
    -2.1700  -2.1468  -2.0878  -2.0795  -2.0438  -2.0229  -1.9949  -1.9767
    -1.9429  -1.9180  -1.8992  -1.8700  -1.8602  -1.8169  -1.7727  -1.7273
    -1.6834  -1.6429  -1.6215  -1.5543  -1.5185  -1.5099  -1.4975  -1.4526
    -1.4377  -1.4214  -1.3859  -1.3496  -1.2965  -1.2734  -1.2558  -1.2135
    -1.1972  -1.1629  -1.1113  -1.0874  -1.0728  -1.0306  -0.9977  -0.9596
    -0.9251  -0.9014  -0.8749  -0.8677  -0.8422  -0.8299  -0.8056  -0.7904
    -0.7744  -0.7541  -0.7328  -0.7007  -0.6704  -0.6612  -0.6455  -0.6340
    -0.6239  -0.6164  -0.5928  -0.5433  -0.4906  -0.3556  -0.3116  -0.2840
    -0.2746  -0.2344  -0.1740  -0.1553  -0.1366  -0.1093  -0.0640  -0.0366
    -0.0215   0.0031   0.0196   0.0522   0.1059   0.1140   0.1753   0.2129
     0.2251   0.2802   0.3530   0.3650   0.4006   0.4677   0.4951   0.5241
     0.5650   0.5998   0.6159   0.6410   0.6657   0.6863   0.7214   0.7346
     0.7864   0.8026   0.8327   0.8580   0.8777   0.9165   0.9314   0.9870
     1.0212   1.0479   1.1560   1.1872   1.2651   1.3206   1.3496   1.3653
     1.3952   1.4752   1.5066   1.5276   1.6050   1.6282   1.6480   1.6750
     1.6916   1.7054   1.7340   1.7534   1.8140   1.8362   1.8514   1.8755
     1.8906   1.9135   1.9192   1.9879   2.0477   2.0888   2.1100   2.1379
     2.1594   2.1861   2.2039   2.2866   2.3862   2.6663   2.8214   3.0027
     3.2817   3.2894   3.5193   3.6189   3.6375   3.7149   3.8123   4.0658
     4.2876   4.3099   4.5850   4.7536   4.8286   4.8810   4.9180   4.9578
     5.1231   5.2152   5.3028   5.4446   5.6436   5.7820   5.9946   6.2684
     6.3107   6.3829

          k = 0.2000-0.3464 0.0000 ( 91754 PWs)   bands (ev):

   -13.7983 -10.6371  -7.2954  -6.4290  -6.0237  -5.2414  -5.2141  -5.1585
    -4.5041  -4.1831  -4.1517  -4.1428  -4.1096  -4.1012  -4.0793  -4.0623
    -4.0136  -3.9615  -3.9514  -3.7089  -3.5832  -3.5757  -3.5637  -3.5082
    -3.4701  -3.3879  -3.3669  -3.3529  -3.3307  -3.3176  -3.3040  -3.2098
    -3.1960  -3.1781  -3.1699  -3.1445  -3.0822  -3.0733  -3.0586  -3.0239
    -2.9546  -2.9265  -2.8516  -2.7751  -2.6866  -2.6064  -2.5894  -2.5748
    -2.5232  -2.4993  -2.4700  -2.4355  -2.3720  -2.3167  -2.2971  -2.2703
    -2.2525  -2.1782  -2.1458  -2.0989  -2.0783  -2.0548  -1.9873  -1.9252
    -1.8792  -1.8449  -1.7832  -1.7580  -1.6988  -1.6780  -1.6511  -1.6425
    -1.6249  -1.6049  -1.5164  -1.4728  -1.4367  -1.4230  -1.4119  -1.3859
    -1.3733  -1.3356  -1.3121  -1.2749  -1.2271  -1.1858  -1.1702  -1.1524
    -1.1309  -1.0962  -1.0848  -1.0658  -1.0365  -1.0303  -1.0012  -0.9779
    -0.9308  -0.8935  -0.8812  -0.8657  -0.8435  -0.8174  -0.7976  -0.7874
    -0.7671  -0.7528  -0.7278  -0.7072  -0.6839  -0.6582  -0.6401  -0.6210
    -0.5997  -0.5380  -0.5130  -0.5067  -0.4482  -0.4204  -0.3770  -0.3160
    -0.2849  -0.2177  -0.1588  -0.1220  -0.0723  -0.0483  -0.0200   0.0029
     0.0175   0.0314   0.0814   0.0927   0.1271   0.1630   0.1861   0.2109
     0.3056   0.3571   0.3762   0.3958   0.4262   0.4592   0.4885   0.5252
     0.5640   0.6151   0.6291   0.6561   0.6977   0.7480   0.7711   0.8279
     0.8445   0.8814   0.9020   0.9330   0.9347   0.9633   0.9750   0.9896
     1.0034   1.0469   1.0966   1.1816   1.1837   1.2479   1.2938   1.3790
     1.4139   1.4841   1.5126   1.5189   1.5602   1.6228   1.6319   1.6536
     1.6738   1.6947   1.7205   1.7252   1.7425   1.7534   1.7812   1.7917
     1.8401   1.8836   1.8987   1.9167   1.9426   1.9972   2.0476   2.0733
     2.1471   2.1740   2.1978   2.2107   2.2579   2.3370   2.3849   2.5406
     2.6349   2.8745   2.9390   3.0310   3.3266   3.4544   3.5127   3.7377
     3.7916   4.1369   4.2990   4.3715   4.4171   4.6889   5.0545   5.2855
     5.5849   5.7685   5.8244   5.8853   5.9613   6.2204   6.2705   6.3341
     6.4257   6.5783

          k = 0.4000-0.2309 0.0000 ( 91766 PWs)   bands (ev):

   -13.7983 -10.6363  -7.2970  -6.2979  -6.0249  -5.6539  -5.0427  -4.7051
    -4.6028  -4.4973  -4.3767  -4.2340  -4.0895  -4.0201  -3.9466  -3.8865
    -3.8829  -3.7847  -3.7444  -3.6822  -3.6778  -3.6452  -3.5689  -3.5424
    -3.5000  -3.4758  -3.4611  -3.4282  -3.4014  -3.3539  -3.3484  -3.3075
    -3.2505  -3.0901  -3.0636  -3.0573  -3.0302  -3.0234  -3.0032  -2.9654
    -2.8595  -2.8050  -2.7966  -2.7830  -2.7551  -2.7207  -2.6838  -2.5186
    -2.4861  -2.4542  -2.4510  -2.4096  -2.3671  -2.3643  -2.3109  -2.2936
    -2.2470  -2.2319  -2.2146  -2.1445  -2.0868  -2.0718  -2.0618  -1.9419
    -1.9300  -1.9027  -1.8839  -1.7875  -1.7171  -1.6754  -1.6535  -1.6499
    -1.6200  -1.6126  -1.5523  -1.4872  -1.4594  -1.4341  -1.4122  -1.3816
    -1.3401  -1.3084  -1.2896  -1.2855  -1.2709  -1.2161  -1.2148  -1.1940
    -1.1748  -1.1502  -1.1414  -1.1236  -1.1149  -1.0711  -1.0656  -1.0147
    -0.9847  -0.9765  -0.9605  -0.9499  -0.8426  -0.8138  -0.8012  -0.7685
    -0.7464  -0.7386  -0.7203  -0.6670  -0.6152  -0.6080  -0.5789  -0.5422
    -0.5070  -0.4964  -0.4458  -0.4036  -0.3802  -0.3063  -0.2798  -0.2476
    -0.2157  -0.1585  -0.1295  -0.1183  -0.0936  -0.0690  -0.0463  -0.0209
     0.0020   0.0177   0.0377   0.0430   0.0658   0.1097   0.1254   0.1768
     0.2360   0.2412   0.2836   0.2886   0.3307   0.3712   0.4506   0.4861
     0.5105   0.5690   0.6743   0.6950   0.7164   0.7390   0.8229   0.8235
     0.8305   0.8572   0.9081   0.9354   0.9363   0.9961   1.0012   1.0694
     1.1112   1.1178   1.1323   1.1529   1.1580   1.2724   1.2819   1.3635
     1.3861   1.4020   1.4144   1.4355   1.5211   1.5285   1.5464   1.5821
     1.6257   1.6671   1.6922   1.7241   1.7268   1.8072   1.8164   1.8483
     1.8577   1.8725   1.8793   1.9143   1.9288   2.0734   2.0908   2.1021
     2.1209   2.1284   2.2410   2.3576   2.4352   2.4973   2.5658   2.7731
     2.8394   3.1710   3.1764   3.4154   3.4236   3.5562   3.6627   3.8787
     4.0935   4.3523   4.3972   4.4012   4.5550   4.6958   4.7325   5.0001
     5.0827   5.2959   5.3585   5.6259   5.7963   6.0693   6.3395   6.4689
     6.6307   6.8041

          k = 0.4000-0.0000 0.0000 ( 91754 PWs)   bands (ev):

   -13.7983 -10.6372  -7.2953  -6.4293  -6.0237  -5.2413  -5.2144  -5.1588
    -4.5044  -4.1835  -4.1527  -4.1426  -4.1093  -4.1016  -4.0782  -4.0625
    -4.0122  -3.9620  -3.9521  -3.7070  -3.5846  -3.5750  -3.5639  -3.5095
    -3.4703  -3.3915  -3.3672  -3.3539  -3.3302  -3.3173  -3.3036  -3.2097
    -3.1939  -3.1772  -3.1700  -3.1434  -3.0833  -3.0729  -3.0591  -3.0222
    -2.9537  -2.9224  -2.8551  -2.7733  -2.6870  -2.6053  -2.5886  -2.5736
    -2.5223  -2.4979  -2.4708  -2.4363  -2.3745  -2.3184  -2.2971  -2.2714
    -2.2498  -2.1775  -2.1458  -2.0995  -2.0773  -2.0544  -1.9874  -1.9270
    -1.8820  -1.8416  -1.7753  -1.7570  -1.6970  -1.6758  -1.6508  -1.6427
    -1.6252  -1.6060  -1.5150  -1.4725  -1.4376  -1.4234  -1.4128  -1.3861
    -1.3812  -1.3356  -1.3112  -1.2770  -1.2279  -1.1856  -1.1674  -1.1507
    -1.1306  -1.0963  -1.0866  -1.0675  -1.0363  -1.0295  -1.0034  -0.9775
    -0.9334  -0.8939  -0.8812  -0.8653  -0.8455  -0.8184  -0.7989  -0.7892
    -0.7674  -0.7515  -0.7268  -0.7087  -0.6845  -0.6576  -0.6404  -0.6216
    -0.6003  -0.5367  -0.5136  -0.5066  -0.4470  -0.4180  -0.3783  -0.3126
    -0.2876  -0.2184  -0.1578  -0.1229  -0.0753  -0.0461  -0.0218   0.0023
     0.0182   0.0298   0.0811   0.0942   0.1270   0.1621   0.1864   0.2134
     0.3040   0.3566   0.3757   0.3950   0.4263   0.4592   0.4896   0.5246
     0.5630   0.6150   0.6290   0.6547   0.6970   0.7469   0.7729   0.8278
     0.8440   0.8813   0.9027   0.9332   0.9354   0.9637   0.9742   0.9901
     1.0047   1.0445   1.0977   1.1825   1.1858   1.2491   1.2937   1.3793
     1.4148   1.4830   1.5099   1.5205   1.5608   1.6221   1.6321   1.6533
     1.6735   1.6948   1.7200   1.7248   1.7428   1.7533   1.7815   1.7911
     1.8403   1.8830   1.8985   1.9168   1.9430   1.9968   2.0468   2.0747
     2.1497   2.1763   2.1982   2.2082   2.2575   2.3356   2.3860   2.5377
     2.6511   2.8748   2.9377   3.0231   3.3277   3.4546   3.5075   3.7449
     3.7868   4.1353   4.2926   4.3740   4.4161   4.6926   5.0653   5.2808
     5.5852   5.7694   5.8230   5.8825   5.9619   6.2324   6.2703   6.3331
     6.4262   6.5897

          k = 0.4000 0.2309 0.0000 ( 91766 PWs)   bands (ev):

   -13.7981 -10.6385  -7.2848  -6.3030  -6.0220  -5.6688  -5.0608  -4.6591
    -4.6051  -4.5510  -4.3576  -4.1908  -4.0834  -4.0310  -3.9498  -3.8770
    -3.8723  -3.7715  -3.7355  -3.6917  -3.6706  -3.6563  -3.5741  -3.5519
    -3.5023  -3.4859  -3.4597  -3.4462  -3.4046  -3.3666  -3.3338  -3.3136
    -3.2518  -3.1038  -3.0590  -3.0441  -3.0315  -3.0216  -3.0037  -2.9151
    -2.8933  -2.8045  -2.7935  -2.7822  -2.7527  -2.6857  -2.6604  -2.5948
    -2.4987  -2.4747  -2.4395  -2.4133  -2.4042  -2.3535  -2.3187  -2.3027
    -2.2595  -2.2363  -2.1798  -2.1107  -2.0999  -2.0582  -2.0330  -1.9372
    -1.8991  -1.8669  -1.8537  -1.7976  -1.7456  -1.7191  -1.6693  -1.6582
    -1.6453  -1.5883  -1.5560  -1.5441  -1.5202  -1.4344  -1.4136  -1.3945
    -1.3463  -1.3136  -1.2889  -1.2708  -1.2433  -1.2276  -1.2047  -1.1866
    -1.1603  -1.1467  -1.1346  -1.1075  -1.0859  -1.0684  -1.0452  -0.9939
    -0.9887  -0.9644  -0.9555  -0.9307  -0.8490  -0.8332  -0.8116  -0.7994
    -0.7574  -0.7402  -0.7082  -0.6842  -0.6662  -0.5925  -0.5615  -0.5194
    -0.4886  -0.4764  -0.4427  -0.4202  -0.3610  -0.3346  -0.3042  -0.2375
    -0.2069  -0.1829  -0.1587  -0.0991  -0.0859  -0.0641  -0.0418  -0.0313
    -0.0058   0.0185   0.0278   0.0592   0.0810   0.1137   0.1429   0.1716
     0.2415   0.2521   0.2719   0.3025   0.3280   0.4202   0.4446   0.4911
     0.5285   0.5603   0.6731   0.6888   0.7138   0.7308   0.7675   0.8104
     0.8450   0.8560   0.9073   0.9178   0.9534   0.9930   1.0011   1.0657
     1.1047   1.1172   1.1245   1.1467   1.1725   1.2716   1.2835   1.3412
     1.3704   1.3848   1.4146   1.4208   1.5171   1.5397   1.5476   1.6213
     1.6295   1.6571   1.6831   1.7083   1.7210   1.7711   1.8241   1.8317
     1.8650   1.8730   1.8913   1.9192   1.9352   2.0732   2.0887   2.1033
     2.1172   2.1578   2.2407   2.3570   2.3907   2.4735   2.5943   2.8170
     2.9242   3.1538   3.1834   3.2386   3.4995   3.5670   3.7335   3.9259
     4.1574   4.3830   4.3960   4.4670   4.5384   4.6821   4.7036   4.9421
     5.0343   5.1247   5.4529   5.7328   5.9567   6.1455   6.2582   6.3137
     6.6390   6.6834

          k = 0.4000-0.6928 0.0000 ( 91730 PWs)   bands (ev):

   -13.7981 -10.6385  -7.2812  -6.0515  -5.9261  -5.8602  -5.2975  -4.7742
    -4.6718  -4.3969  -4.1709  -4.0991  -4.0031  -3.9724  -3.8659  -3.8538
    -3.7701  -3.7508  -3.7288  -3.6809  -3.6512  -3.6114  -3.5977  -3.5857
    -3.5682  -3.5285  -3.4468  -3.4296  -3.4129  -3.3816  -3.3651  -3.2671
    -3.2206  -3.1904  -3.1403  -3.0824  -3.0618  -3.0197  -3.0113  -2.9791
    -2.9592  -2.9110  -2.8560  -2.7961  -2.7310  -2.6924  -2.6032  -2.5714
    -2.5035  -2.4897  -2.4065  -2.3771  -2.3501  -2.2695  -2.2299  -2.1826
    -2.1687  -2.1461  -2.0864  -2.0782  -2.0392  -2.0264  -1.9925  -1.9763
    -1.9445  -1.9187  -1.8982  -1.8698  -1.8610  -1.8134  -1.7702  -1.7276
    -1.6827  -1.6457  -1.6224  -1.5573  -1.5203  -1.5109  -1.4982  -1.4557
    -1.4390  -1.4217  -1.3865  -1.3498  -1.2961  -1.2721  -1.2557  -1.2112
    -1.1955  -1.1648  -1.1114  -1.0851  -1.0725  -1.0281  -0.9976  -0.9621
    -0.9256  -0.9008  -0.8770  -0.8704  -0.8415  -0.8300  -0.8062  -0.7919
    -0.7769  -0.7542  -0.7352  -0.7010  -0.6660  -0.6594  -0.6469  -0.6339
    -0.6245  -0.6177  -0.5910  -0.5411  -0.4948  -0.3497  -0.3144  -0.2843
    -0.2746  -0.2331  -0.1738  -0.1541  -0.1370  -0.1092  -0.0626  -0.0363
    -0.0227   0.0021   0.0190   0.0521   0.1058   0.1118   0.1774   0.2129
     0.2250   0.2786   0.3528   0.3621   0.4005   0.4652   0.4972   0.5238
     0.5646   0.5997   0.6143   0.6402   0.6645   0.6869   0.7200   0.7344
     0.7887   0.8026   0.8308   0.8591   0.8781   0.9165   0.9291   0.9866
     1.0224   1.0484   1.1586   1.1861   1.2661   1.3219   1.3505   1.3654
     1.3987   1.4747   1.5050   1.5282   1.6056   1.6281   1.6474   1.6737
     1.6913   1.7044   1.7338   1.7542   1.8142   1.8371   1.8511   1.8752
     1.8894   1.9131   1.9202   1.9879   2.0466   2.0915   2.1115   2.1396
     2.1594   2.1880   2.2038   2.2831   2.3861   2.6736   2.8219   3.0012
     3.2813   3.2893   3.5185   3.6188   3.6370   3.7098   3.8081   4.0640
     4.2853   4.3139   4.5884   4.7507   4.8332   4.8821   4.9237   4.9539
     5.1278   5.2152   5.3022   5.4419   5.6523   5.7820   5.9932   6.2715
     6.3126   6.3783

          k = 0.4000-0.4619 0.0000 ( 91730 PWs)   bands (ev):

   -13.7982 -10.6372  -7.2887  -6.0535  -5.9258  -5.8440  -5.3127  -4.7092
    -4.6804  -4.4750  -4.1344  -4.1217  -4.0097  -3.9672  -3.8794  -3.8429
    -3.7740  -3.7381  -3.6867  -3.6791  -3.6691  -3.6426  -3.6067  -3.5844
    -3.5764  -3.5580  -3.4372  -3.4169  -3.3945  -3.3793  -3.3414  -3.2644
    -3.2157  -3.1924  -3.1415  -3.1050  -3.0478  -3.0217  -3.0088  -2.9796
    -2.9387  -2.9202  -2.8597  -2.8352  -2.7916  -2.6422  -2.5835  -2.5658
    -2.4727  -2.4407  -2.4264  -2.3891  -2.3526  -2.2636  -2.2327  -2.2066
    -2.1704  -2.1417  -2.1125  -2.0861  -2.0406  -2.0276  -1.9824  -1.9770
    -1.9641  -1.9225  -1.9095  -1.8971  -1.8625  -1.8051  -1.7378  -1.7193
    -1.6828  -1.6104  -1.6017  -1.5389  -1.5103  -1.5019  -1.4747  -1.4554
    -1.4262  -1.4164  -1.3805  -1.3378  -1.3283  -1.2974  -1.2703  -1.2547
    -1.2026  -1.1790  -1.1159  -1.1020  -1.0966  -1.0094  -0.9661  -0.9523
    -0.9241  -0.9139  -0.8821  -0.8570  -0.8439  -0.8190  -0.7973  -0.7844
    -0.7779  -0.7579  -0.7200  -0.7036  -0.6882  -0.6678  -0.6493  -0.6334
    -0.6304  -0.6063  -0.5778  -0.5621  -0.4342  -0.3998  -0.3144  -0.2945
    -0.2672  -0.2424  -0.1666  -0.1566  -0.1406  -0.0908  -0.0635  -0.0363
    -0.0315   0.0120   0.0290   0.0572   0.0725   0.1234   0.1571   0.2230
     0.2301   0.2846   0.3483   0.4106   0.4238   0.4254   0.4598   0.5000
     0.5542   0.5865   0.6244   0.6407   0.6656   0.6879   0.7000   0.7235
     0.7846   0.8167   0.8430   0.8700   0.8829   0.9074   0.9465   1.0137
     1.0249   1.0505   1.1533   1.2057   1.2514   1.3297   1.3467   1.3821
     1.4280   1.4626   1.4726   1.5489   1.5605   1.6333   1.6611   1.6865
     1.6987   1.7079   1.7330   1.7707   1.8305   1.8422   1.8565   1.8860
     1.8968   1.9007   1.9122   1.9901   2.0720   2.0741   2.1009   2.1273
     2.1383   2.1839   2.1978   2.3094   2.4227   2.5627   2.8652   3.0604
     3.2805   3.2993   3.4135   3.5741   3.6710   3.6971   3.7339   4.2282
     4.2796   4.3638   4.4937   4.6798   4.7881   4.8766   4.9566   4.9930
     5.0744   5.1822   5.2343   5.6198   5.6872   5.7908   5.9007   6.2562
     6.3467   6.3988

     the Fermi energy is     1.9146 ev

!    total energy              =  -27814.86723465 Ry

     total all-electron energy =  -1326874.924934 Ry
     estimated scf accuracy    <       0.00000079 Ry
     smearing contrib. (-TS)   =       0.00105471 Ry
     internal energy E=F+TS    =  -27814.86828936 Ry

     The total energy is F=E-TS. E is the sum of the following terms:
     one-electron contribution =  -28778.28611767 Ry
     hartree contribution      =   14692.97053614 Ry
     xc contribution           =    -906.56452986 Ry
     ewald contribution        =   12670.64529392 Ry
     one-center paw contrib.   =  -25493.63347189 Ry

     convergence has been achieved in  20 iterations

     negative rho (up, down):  1.308E-02 0.000E+00

     Forces acting on atoms (cartesian axes, Ry/au):

     atom    1 type  1   force =     0.00070779   -0.00071435   -0.00794854
     atom    2 type  1   force =    -0.00124962    0.00062419   -0.00372924
     atom    3 type  1   force =     0.00048589    0.00023656   -0.00310141
     atom    4 type  1   force =     0.00083548   -0.00008447   -0.00799056
     atom    5 type  1   force =    -0.00129440   -0.00002895   -0.00381350
     atom    6 type  1   force =     0.00093045   -0.00053729   -0.00317435
     atom    7 type  1   force =    -0.00019661    0.00006602   -0.00398327
     atom    8 type  1   force =    -0.00057409    0.00107867   -0.00380367
     atom    9 type  1   force =    -0.00004522   -0.00059143   -0.00317601
     atom   10 type  1   force =     0.00028222   -0.00024131   -0.00356351
     atom   11 type  1   force =     0.00043287    0.00200203    0.00965872
     atom   12 type  1   force =    -0.00039070    0.00088052   -0.00074360
     atom   13 type  1   force =     0.00123982   -0.00230868    0.00346094
     atom   14 type  1   force =     0.00040063   -0.00003853    0.01472131
     atom   15 type  1   force =    -0.00069801   -0.00001718   -0.00077305
     atom   16 type  1   force =     0.00253275    0.00032986    0.00386922
     atom   17 type  1   force =    -0.00149446   -0.00107895    0.00957371
     atom   18 type  1   force =    -0.00012025    0.00022390    0.00064040
     atom   19 type  1   force =     0.00018121    0.00012270   -0.00007515
     atom   20 type  1   force =     0.00055670    0.00050355   -0.00031036
     atom   21 type  1   force =    -0.00009301   -0.00032623   -0.00012126
     atom   22 type  1   force =    -0.00045514    0.00015485   -0.00001395
     atom   23 type  1   force =     0.00053809    0.00001311    0.00004344
     atom   24 type  1   force =    -0.00061928   -0.00036190   -0.00031413
     atom   25 type  1   force =     0.00012708   -0.00043473   -0.00001802
     atom   26 type  1   force =    -0.00029484   -0.00007855   -0.00009361
     atom   27 type  1   force =    -0.00021339    0.00055734   -0.00046385
     atom   28 type  1   force =     0.00000001   -0.00002907    0.00042886
     atom   29 type  1   force =     0.00008693   -0.00044700    0.00030374
     atom   30 type  1   force =     0.00000553    0.00052009    0.00059358
     atom   31 type  1   force =     0.00066583   -0.00019359    0.00069190
     atom   32 type  1   force =    -0.00049217    0.00039029   -0.00002352
     atom   33 type  1   force =    -0.00020665   -0.00005082    0.00004941
     atom   34 type  1   force =     0.00040716   -0.00033790    0.00000988
     atom   35 type  1   force =     0.00049153    0.00020081    0.00007620
     atom   36 type  1   force =    -0.00065363    0.00024491    0.00066612
     atom   37 type  2   force =    -0.00059533   -0.00155070    0.00020934
     atom   38 type  2   force =    -0.00191199    0.00113513    0.00079361
     atom   39 type  2   force =     0.00295533    0.00449084    0.00609277
     atom   40 type  3   force =     0.00021702   -0.00045306    0.00000163
     atom   41 type  3   force =     0.00003773   -0.00005567    0.00034599
     atom   42 type  3   force =    -0.00251924   -0.00381500   -0.00499617

     Total force =     0.011292     Total SCF correction =     0.001691
     SCF correction compared to forces is large: reduce conv_thr to get better values

     negative rho (up, down):  1.308E-02 0.000E+00

     negative rho (up, down):  1.308E-02 0.000E+00

     negative rho (up, down):  1.308E-02 0.000E+00

     negative rho (up, down):  1.308E-02 0.000E+00

     negative rho (up, down):  1.308E-02 0.000E+00

     negative rho (up, down):  1.308E-02 0.000E+00

     negative rho (up, down):  1.308E-02 0.000E+00

     negative rho (up, down):  1.308E-02 0.000E+00

     negative rho (up, down):  1.308E-02 0.000E+00

     negative rho (up, down):  1.308E-02 0.000E+00

     negative rho (up, down):  1.308E-02 0.000E+00

     negative rho (up, down):  1.308E-02 0.000E+00

     negative rho (up, down):  1.308E-02 0.000E+00

     negative rho (up, down):  1.308E-02 0.000E+00

     negative rho (up, down):  1.308E-02 0.000E+00

     negative rho (up, down):  1.308E-02 0.000E+00

     negative rho (up, down):  1.308E-02 0.000E+00

     negative rho (up, down):  1.308E-02 0.000E+00

     negative rho (up, down):  1.308E-02 0.000E+00

     negative rho (up, down):  1.308E-02 0.000E+00

     negative rho (up, down):  1.308E-02 0.000E+00

     negative rho (up, down):  1.308E-02 0.000E+00

     negative rho (up, down):  1.308E-02 0.000E+00

     negative rho (up, down):  1.308E-02 0.000E+00

     negative rho (up, down):  1.308E-02 0.000E+00

     negative rho (up, down):  1.308E-02 0.000E+00

     negative rho (up, down):  1.308E-02 0.000E+00

     negative rho (up, down):  1.308E-02 0.000E+00

     negative rho (up, down):  1.308E-02 0.000E+00

     negative rho (up, down):  1.308E-02 0.000E+00

     negative rho (up, down):  1.308E-02 0.000E+00

     negative rho (up, down):  1.308E-02 0.000E+00

     negative rho (up, down):  1.308E-02 0.000E+00

     negative rho (up, down):  1.308E-02 0.000E+00
 BEEFens 2000 ensemble energies
             -0.607023818102737E+02
             -0.361421854891668E+01
             -0.158359107830754E+02
              0.429383512932994E+02
             -0.221131574229422E+02
             -0.205260633110699E+02
             -0.352427384417632E+02
             -0.865185347975597E+02
             -0.464948837296377E+02
             -0.472432600190195E+02
             -0.369378984746885E+02
              0.228831315497010E+01
              0.408661151399792E+01
              0.760006374219472E+01
              0.265747025016049E+01
              0.474983134823606E+02
             -0.208699728152698E+02
             -0.230026316209180E+02
              0.193213594154225E+02
             -0.112395732069716E+03
              0.536407226039060E+02
             -0.289677618897172E+02
             -0.333824301357673E+01
             -0.113973437479806E+02
             -0.882309759686723E+01
             -0.462904319941123E+01
              0.882809818813381E+02
             -0.187280235949139E+02
             -0.900060548919305E+01
             -0.518658422255351E+02
              0.815339216851703E+02
             -0.187078829219268E+02
             -0.375025686659895E+02
              0.249134483546165E+02
             -0.283599973966329E+01
              0.164378360521969E+02
             -0.483867908104855E+01
              0.107879564836747E+02
              0.288719103410642E+02
             -0.103266693947748E+03
              0.558410652997202E+02
              0.142447344991091E+02
             -0.173491395605470E+01
             -0.361500101569057E+02
              0.123210841413679E+02
             -0.146783615357974E+02
              0.398569289446848E+02
              0.364795823092954E+02
             -0.307883103844696E+02
             -0.275240270529265E+02
             -0.328543402398614E+02
             -0.352257748919578E+02
              0.136641630995078E+02
             -0.490925432813416E+02
              0.115635739646772E+02
              0.623275763599673E+02
              0.635627970982097E+02
              0.355773522517596E+02
              0.154029941349535E+02
              0.270700184827263E+02
              0.891534478891965E+02
              0.212476680341241E+02
             -0.548522231178844E+02
             -0.157006238314571E+02
             -0.236031878391499E+02
              0.629915161940536E+02
             -0.773298518900650E+02
             -0.671802234431096E+02
             -0.259655601368920E+02
             -0.650453296393277E+01
             -0.470751375960758E+02
              0.270720682613367E+02
              0.801545521097808E+01
              0.868429219651870E+01
             -0.397272676070863E+02
             -0.346905232697554E+02
             -0.542049873976224E+02
              0.390162812625848E+02
             -0.296051686725455E+02
              0.265418851286754E+02
             -0.716575728387169E+01
             -0.317975258906212E+02
             -0.576037972657953E+02
             -0.176642640096927E+02
             -0.906533693302526E+01
             -0.124589526758208E+02
              0.412228949218741E+02
              0.683100754852233E+02
             -0.385756220289724E+02
             -0.794666736748353E+02
             -0.219631223556399E+02
              0.111502121926819E+03
             -0.592481703673496E+02
              0.356142160865227E+02
             -0.958616060194947E+01
             -0.663145524869065E+02
              0.254461772430481E+02
              0.397862842958015E+02
             -0.198882665432931E+02
              0.400234161375137E+02
             -0.295953468809591E+02
             -0.478515154573654E+02
              0.866211776202625E+02
              0.454015453648851E+02
              0.336231319373302E+02
              0.146487996541179E+02
              0.205807524778671E+02
              0.856602786231273E+02
             -0.256718019526871E+02
              0.787513032407904E+01
             -0.142411854536703E+03
              0.180976764134558E+02
             -0.716245950291040E+02
              0.150938159509097E+02
              0.204639719343915E+02
             -0.333053263030204E+02
             -0.557143485593216E+02
              0.652945112518603E+01
             -0.304295652570870E+02
              0.308116444943003E+02
             -0.529880564274113E+02
              0.169947539191708E+01
             -0.357046005101446E+02
             -0.424260575796569E+01
             -0.100555189908107E+01
              0.181493258382895E+02
              0.142309012189025E+01
             -0.651106302266192E+01
              0.590621019967175E+02
              0.908369122106608E+02
              0.484267915741040E+02
              0.830056716508932E+02
             -0.115072229036540E+02
              0.142986605260026E+02
              0.540989550783701E+02
             -0.110476962591019E+02
             -0.735768954315118E+02
             -0.384302539382589E+02
             -0.521808213407800E+02
             -0.276686837505455E+02
              0.327328888700007E+02
             -0.116803618492907E+03
             -0.187079083586506E+02
              0.414231123124275E+02
             -0.386337122146067E+02
             -0.365203671928782E+02
              0.544483446908761E+02
              0.400751516773163E+02
             -0.353889895544786E+02
              0.138091124272771E+02
             -0.273258980009233E+02
              0.343187159423100E+02
              0.445478568585014E+01
              0.211028139215061E+02
             -0.884657599250955E+02
             -0.480164098219457E+02
             -0.995273230630119E+01
              0.322300516325049E+01
             -0.366832844660770E+02
              0.106046539163528E+03
             -0.230699811620259E+02
             -0.398607436520834E+02
              0.388769103599018E+02
             -0.494158453033654E+02
             -0.363567813760368E+02
              0.325050422508436E+02
              0.124631139431956E+02
              0.164706831138375E+02
              0.116771041512372E+02
             -0.132876380934935E+02
              0.224965988457325E+02
              0.590131493809518E+02
             -0.311495046750993E+02
              0.162608350935516E+02
              0.934449033004814E+02
              0.340782920116037E+02
             -0.727847540016376E+01
             -0.188732700049729E+02
              0.153364794057591E+03
             -0.164308166291175E+02
              0.363407516927608E+02
              0.194629557423475E+02
              0.361392239195639E+02
              0.892074716689839E+02
              0.542955273713826E+02
             -0.240294942147334E+01
              0.227900450549148E+02
              0.485041507943516E+02
              0.363441247742813E+02
             -0.525608655317059E+02
              0.936124609778420E+02
             -0.825601320602785E+02
             -0.197874201277375E+02
              0.582803381544396E+02
              0.679803369436778E+01
              0.791003069054909E+01
              0.340669734494679E+02
              0.299066247631260E+02
              0.353527831676521E+02
             -0.637638532924261E+02
              0.286510476732883E+01
             -0.297559320396626E+02
             -0.869066592722484E+01
             -0.146729841170190E+01
             -0.724152017278644E+01
             -0.415175507958770E+01
              0.859355322512385E+02
             -0.101067531865517E+02
             -0.276317429376519E+02
             -0.495982391076589E+01
              0.140088768442598E+02
             -0.564129196155634E+02
             -0.407638282670002E+02
             -0.382101149137236E+02
             -0.630314419817535E+02
             -0.169794532436433E+02
             -0.447508130841475E+02
              0.163261323992609E+02
             -0.237972219291277E+01
             -0.104465522890770E+02
             -0.933732283228812E+01
              0.807108395823008E+01
             -0.242470226648449E+02
              0.689434108927898E+02
             -0.807358516759268E+02
             -0.141071052246424E+02
             -0.173966649505754E+02
              0.181910426978770E+02
              0.214771982806235E+02
             -0.463966359730753E+02
             -0.201784069960775E+02
              0.440958231945284E+02
             -0.276057799009277E+02
              0.187056474634161E+02
              0.382709659997328E+02
             -0.322085891209485E+01
              0.114145256427629E+03
             -0.229816045022757E+02
             -0.340921057372036E+02
              0.576782454274894E+01
             -0.228332882251469E+02
              0.527788977231855E+02
             -0.337579743371551E+02
              0.106705094176332E+02
              0.640281020504535E+02
             -0.126178306922770E+02
              0.120237225091936E+03
              0.125869956034576E+03
             -0.649870132715916E+02
              0.590620813723656E+02
              0.166787650645349E+02
             -0.517868116544461E+02
              0.216093589347981E+02
              0.354153644537773E+02
              0.362947724627381E+02
              0.134624854674834E+01
              0.159983352075946E+02
              0.695922002023920E+02
             -0.247026953236880E+02
              0.181246349458990E+02
              0.738764459656011E+02
             -0.372527191021973E+02
             -0.129965979649364E+02
              0.508787732330070E+02
              0.297517675505067E+02
              0.780338683205390E+02
              0.222933752148398E+02
              0.627078743055347E+01
              0.280453214568664E+02
              0.383373607572051E+02
             -0.472086044979428E+02
              0.333853463810220E+01
              0.130127386648643E+02
              0.113777828337172E+02
              0.220661667922906E+02
             -0.574976588721514E+02
              0.366024681325989E+02
             -0.443870818221526E+02
             -0.347479366871577E+02
              0.178198244838557E+02
             -0.181269886935297E+02
              0.555317165897753E+02
             -0.255662512066250E+02
              0.266816116920667E+02
              0.368320306435553E+02
              0.829183223552192E+02
              0.574601084264159E+02
              0.461790635930751E+02
             -0.105186548312827E+02
             -0.392900936081878E+01
             -0.332043326690879E+02
              0.750875909226255E+02
              0.797297651285687E+02
              0.361985287875991E+02
             -0.192135951714762E+02
              0.511861882912548E+02
             -0.162544473276902E+02
              0.214532991704487E+02
              0.614706570056932E+02
              0.213768618668846E+01
             -0.104405806622000E+02
             -0.282786473029498E+02
             -0.511949654422074E+02
              0.945379498968230E+02
              0.440081724306523E+02
             -0.559320116267277E+02
             -0.964404843926175E+01
              0.249769292849186E+02
             -0.995102081303969E+01
              0.592264297888303E+02
              0.152182259511120E+02
              0.799399012544318E+02
              0.279704853560313E+02
             -0.263762497187727E+02
              0.248752610624057E+02
             -0.502726317939482E+01
             -0.323492847142629E+02
              0.133143420164695E+02
              0.205540624810094E+02
              0.933072388102824E+02
              0.797394314221175E+02
              0.551216660922285E+02
              0.730655948454846E+02
              0.800517873918471E+01
             -0.273623709988312E+02
              0.163197211030486E+02
             -0.367996944087225E+02
             -0.476509546426703E+02
             -0.563492984772032E+02
             -0.266713157266784E+02
             -0.109708621828186E+03
             -0.291645312453025E+02
             -0.837440868381289E+02
              0.210188813421821E+02
             -0.477032131370527E+02
              0.397175747692482E+02
             -0.941707368252726E+02
             -0.330065931976924E+02
              0.548230581306061E+02
              0.207669003359909E+02
             -0.830903364144076E+02
              0.630856198951917E+02
             -0.256890227129699E+02
              0.512583070236038E+02
             -0.242468063063712E+02
             -0.751386003837375E+02
              0.112055797922313E+02
             -0.611490210450179E+02
             -0.167857030486524E+02
             -0.150288306961901E+01
              0.418179529621229E+02
              0.127032510884123E+03
             -0.461659939897301E+02
             -0.362698328018646E+02
             -0.992108945841153E+00
             -0.130096427712025E+02
             -0.822683262724006E+02
             -0.596801046268168E+02
              0.517138854072986E+02
             -0.288833640798027E+02
              0.169562039159480E+02
             -0.489506508371792E+02
             -0.132050352999858E+02
             -0.437345423268678E+02
              0.565595951526701E+02
              0.150850740022848E+02
             -0.231724230368278E+02
             -0.127211513761544E+02
              0.668358288386828E+01
             -0.618884753920042E+01
              0.441582837070994E+02
             -0.252050580675058E+02
              0.279690653954788E+01
              0.339382467709513E+02
              0.171130402051888E+02
             -0.160018691393680E+02
              0.156286438093001E+03
              0.538282239567884E+02
              0.118147823631773E+01
              0.161671534243528E+02
             -0.614836862085644E+02
              0.315163427960404E+02
             -0.721998473343238E+02
             -0.252317060006770E+02
             -0.522770576913316E+02
             -0.220157661056638E+02
              0.569363563598189E+02
             -0.537079703450455E+02
              0.161192677167585E+02
             -0.409280683120119E+01
              0.387134781557705E+01
             -0.433845842708387E+02
             -0.478334972087074E+02
             -0.403737544092883E+01
             -0.424597992582100E+02
             -0.217087942683169E+02
             -0.438635407121481E+02
             -0.119189495553009E+02
             -0.358981578241949E+02
             -0.516502621833100E+02
              0.212604135251105E+02
             -0.209130526087088E+02
              0.187988807120837E+02
              0.973514793026243E+01
             -0.738203692168825E+02
             -0.548006605178081E+02
             -0.398561982369764E+02
              0.354051927504938E+02
              0.269052887263305E+01
             -0.626634042037330E+02
              0.585813792420526E+02
             -0.401180372756936E+02
              0.545150343683389E+02
             -0.289687822162512E+02
             -0.445987070515800E+02
              0.298440410701908E+02
             -0.657866119136550E+02
             -0.379720949844365E+02
              0.672602420135725E+02
              0.204049424059167E+02
             -0.360388357079974E+02
              0.489543772748356E+02
             -0.174020557637830E+02
             -0.322858675391285E+02
             -0.301775334433366E+02
             -0.500808717400378E+02
              0.249609089270028E+02
             -0.933110209308503E+02
             -0.840118461103262E+02
             -0.734164010325117E+01
             -0.306853228608054E+02
             -0.575883800265134E+02
              0.722123916193433E+02
              0.131566698263738E+03
             -0.360640565538377E+02
             -0.256683867467882E+01
             -0.637010478813771E+02
              0.650731657092283E+02
              0.170824014045705E+02
             -0.181844712873223E+02
             -0.410005753641496E+02
              0.148632547670632E+02
             -0.586117587191273E+02
             -0.197625934591891E+02
             -0.904698099951426E+02
              0.337067747324573E+02
              0.168844020698224E+02
              0.182679662967280E+01
             -0.708464075050153E+01
             -0.329992288505500E+02
             -0.759840604584105E+01
              0.125561712598556E+03
             -0.199019574623620E+02
             -0.437568037317434E+02
             -0.684187690517456E+02
              0.109253860415802E+02
             -0.342352344353402E+02
              0.591953783037438E+01
              0.261608795026672E+02
              0.102176563958906E+02
              0.278070341609396E+02
              0.120066956584860E+02
              0.629722118663871E+02
              0.316582611422706E+02
             -0.326706778700816E+02
              0.356034692976270E+02
              0.379561759878923E+02
              0.120929095634203E+02
              0.486916938227525E+02
             -0.225110639426880E+02
              0.765935786151334E+02
              0.172691347459686E+02
             -0.272327588632151E+02
             -0.722671857380410E+01
             -0.186341329104448E+02
              0.261698270841684E+02
             -0.234332264467264E+02
             -0.155338788050585E+00
             -0.849602400780088E+01
              0.809836628230665E+02
              0.500219162029600E+02
             -0.686981824113612E+02
             -0.478273617602679E+01
             -0.555387848320073E+02
             -0.159419486913878E+02
             -0.268304732618714E+02
              0.376605965470844E+01
              0.593912489002342E+00
             -0.257725996510778E+02
              0.816477614310378E+01
             -0.603524353373754E+01
             -0.128420230827384E+02
              0.859201437427295E+02
              0.181709468002756E+02
             -0.807230631420139E+02
             -0.458205004229727E+02
              0.945325423654485E+02
              0.277841507332273E+02
             -0.106898077357329E+02
              0.104576817496197E+03
             -0.194730823115013E+02
             -0.122984112488706E+02
             -0.540707685994255E+01
              0.107449513569329E+02
              0.272674118005439E+02
              0.780998764055022E+01
              0.305474495779665E+02
             -0.187860798908098E+02
             -0.304129280331041E+02
             -0.417876856389027E+02
             -0.476891282723465E+02
              0.463916572209175E+02
              0.126884671178176E+02
              0.387674391491685E+02
              0.133504166662215E+02
              0.855856210184730E+02
              0.156634231902417E+02
             -0.846219707227834E+02
             -0.334481261565877E+02
              0.133590780435750E+02
             -0.302929628042268E+02
              0.626810404902109E+02
             -0.886460887824796E+01
              0.148781408793834E+02
              0.497523134026180E+02
             -0.707600945804862E+02
              0.149768981627857E+03
              0.208752601395460E+02
              0.271476341453580E+02
              0.347758028460547E+02
              0.103603114115577E+02
             -0.156458324335563E+01
              0.358443859971330E+02
             -0.357221065721470E+02
              0.773572994695641E+02
              0.685092706147842E+02
             -0.406067785042569E+02
              0.149497497469582E+02
              0.670393776614876E+02
             -0.223953827784101E+02
              0.154566285007567E+02
              0.434908754528475E+02
              0.422191690567072E+02
             -0.784852867166597E+02
             -0.152504290797274E+02
             -0.355956031272303E+02
             -0.148133251599779E+01
             -0.767153855297558E+01
             -0.542183816773206E+01
             -0.180473211641994E+02
             -0.293974330529720E+02
              0.636551135107473E+01
              0.111573547943261E+02
              0.535738950992124E+02
             -0.390509012956224E+02
              0.374785611118115E+02
              0.438706589821512E+02
             -0.186400018613119E+02
              0.872118194371184E+02
             -0.698079565884005E+02
             -0.103201324169071E+03
             -0.661237292552536E+01
             -0.268070221353446E+01
              0.384733203266751E+01
              0.789741010280596E+02
             -0.106920379254232E+02
              0.416856844411851E+02
              0.444084628983232E+02
              0.385410739807169E+02
             -0.996112161310486E+01
              0.627531719083864E+02
             -0.133618032555439E+02
             -0.307685379271287E+02
             -0.479101298697308E+02
              0.590632261497203E+01
              0.369418463583080E+02
             -0.601812583745661E+01
              0.392964378883115E+02
             -0.175185945563032E+01
              0.655205362293092E+02
              0.187215811649730E+02
              0.998840605521441E+01
             -0.121608279186636E+02
              0.332115716429697E+02
              0.362748459854448E+02
              0.232615601567355E+02
             -0.520332848150787E+00
             -0.550818293570402E+02
              0.260803851677301E+02
              0.175272982957244E+02
              0.402591877310788E+02
              0.272199902508546E+02
              0.372688472376241E+02
             -0.606281668081473E+01
              0.251338295957793E+02
             -0.298797335269769E+02
             -0.197329747763229E+01
             -0.569285933958346E+02
             -0.308088937390471E+02
              0.378954255133450E+02
             -0.935779423725644E+02
              0.294297441893390E+02
              0.184026007981710E+02
              0.840488749824932E+02
             -0.300151428449361E+02
              0.329621803372746E+02
             -0.137714693594871E+02
             -0.464124231512355E+02
             -0.761642071276336E+02
             -0.528203681238146E+01
             -0.860175461981361E+02
              0.199538467542437E+02
             -0.247508312441274E+02
              0.305986767166482E+02
              0.237195050969597E+02
             -0.241302475259595E+02
             -0.265613273912687E+02
              0.391099611504879E+02
             -0.588517677840635E+02
             -0.116742752009782E+02
             -0.196048973089466E+02
              0.212976457305082E+02
             -0.887673743884375E+01
              0.361568160051584E+01
             -0.200486809882043E+02
              0.558845540269521E+02
             -0.440044939462423E+02
              0.785678767497495E+01
              0.585560435353153E+02
             -0.323594793906571E+02
              0.361455084398472E+01
             -0.879553913819132E+01
             -0.669349276195618E+02
             -0.482333471021227E+02
             -0.859157010889420E+01
              0.240962793665415E+02
              0.302582559335610E+02
              0.859641483038968E+01
             -0.416681432833673E+01
              0.151718426498347E+02
             -0.439856895324141E+02
              0.331078141592616E+01
             -0.531365461463536E+02
             -0.324968544209348E+02
              0.474924425283419E+02
             -0.295273406441411E+02
              0.622781243277886E+02
             -0.214877167740891E+02
              0.353667416677220E+02
              0.241762229794317E+02
             -0.644219917812495E+02
             -0.280341546542795E+02
              0.934367910248349E+01
             -0.372033679879442E+02
             -0.339808077933938E+02
             -0.830345655254941E+02
             -0.539379933766908E+02
             -0.510475547539607E+02
             -0.415805289716336E+02
             -0.996752473302649E+00
              0.998750812497263E+01
              0.106703631521322E+01
              0.153524278360280E+02
             -0.549492512835801E+02
              0.141881963849536E+02
              0.257122424087172E+02
             -0.667057487917002E+02
             -0.702049396507818E+02
             -0.431490860498600E+02
             -0.172329812777244E+02
              0.178307713956546E+02
              0.454104710213403E+01
             -0.426027946746932E+02
              0.366072228406594E+02
             -0.216463910225229E+02
              0.517634957934872E+02
             -0.887550626139010E+02
              0.598083592349376E+02
             -0.215943888180705E+01
             -0.368667087828544E+02
             -0.216429356103052E+02
              0.471250234892446E+01
              0.375007305476355E+02
             -0.756407102430937E+02
             -0.120784597405184E+02
             -0.216657335937021E+02
              0.510995738601800E+02
              0.865077059454326E+02
             -0.965638823018520E+02
              0.944277651097626E+02
              0.467690006706489E+02
             -0.725715819717382E+02
             -0.366558144522137E+02
              0.752315765458752E+02
              0.632115344399004E+02
             -0.181246289875240E+02
             -0.464931087760471E+01
              0.734873735323475E+01
              0.649524541959099E+02
             -0.508778005106521E+02
              0.158255733329832E+02
             -0.473007263430270E+01
              0.347686273908740E+02
             -0.747112121480948E+02
             -0.646743654851120E+01
             -0.350929728279423E+02
              0.460938367027551E+02
              0.468867010678676E+02
             -0.862204360389167E+02
             -0.487085919840328E+02
             -0.256252329107325E+02
             -0.339795028873060E+02
             -0.109208084693376E+02
             -0.242687956317669E+02
              0.427573876520826E+02
              0.401244081343758E+02
             -0.562302954462137E+01
             -0.416491712708480E+02
             -0.850869917676579E+02
              0.443593552402634E+02
             -0.523234591477021E+02
             -0.313470935591602E+02
              0.547142334325902E+01
             -0.322786873108601E+02
             -0.398013171908573E+02
             -0.240388400825708E+02
             -0.385846723319319E+02
             -0.270813258579820E+02
             -0.482704175453881E+02
              0.563855923119562E+02
              0.638079117092349E+02
             -0.174605746499117E+01
             -0.261213972637121E+02
[...]
              0.283581770252230E+02
              0.141805997215821E+03
              0.242556650511108E+02
              0.122621172679926E+02
             -0.464349001069982E+02
             -0.637499093982007E+02
             -0.188906204280223E+02
              0.329702447130209E+02
             -0.427236254597381E+01
              0.190107058680299E+02
              0.336193615877598E+02
             -0.586484644514707E+02
              0.222457999590628E+02
              0.581619657213171E+02
              0.552844144648983E+02
             -0.420728119819745E+01
             -0.134973388246999E+01
             -0.993511310263887E+01
             -0.482166123540979E+02
             -0.675166959538646E+02
              0.785305603558292E+02
             -0.524277359780029E+01
             -0.587705594281477E+02
              0.173798412261328E+01
             -0.205456030976627E+02
              0.938421874338350E+02
             -0.216585117391569E+02
             -0.353739696584670E+02
              0.335458002241062E+02
             -0.145842701091831E+02
              0.389689605079790E+02
             -0.234457636093151E+01
              0.101069549611984E+03
              0.489918805844063E+02
             -0.506668310974822E+01
             -0.322056679947234E+02
              0.232426126754622E+02
             -0.528478006917283E+02
             -0.127741351031224E+02
              0.585776360350581E+02
             -0.287648105277693E+02
             -0.438263347591633E+02
             -0.223334894269756E+02
              0.518686004469923E+02
              0.124716248952984E+02
             -0.848857913225575E+02
              0.303951860813213E+02
              0.151731591522862E+02
              0.578253314230309E+01
             -0.513477555724977E+02
             -0.376123281886612E+01
              0.323040406014113E+02
              0.512609550380874E+02
              0.632767253763842E+02
              0.229169093784725E+02
              0.767598586890131E+00
             -0.498249413997877E+02
             -0.509996902694456E+02
             -0.747601466734692E+02
             -0.616723970267731E+01
              0.309028318438961E+02
             -0.377676514914569E+01
              0.546821294798090E+02
             -0.318009263725548E+02
              0.166443137727091E+02
             -0.102937481015140E+02
             -0.289535317647067E+02
              0.585721942999675E+02
              0.791785776594924E+01
              0.604377342204302E+02
              0.509832186844426E+01
              0.264820759571517E+02
             -0.192715477501725E+02
              0.586108257666301E+02
             -0.111650270396599E+02
             -0.119402315066758E+00
             -0.790190465214811E+02
             -0.128246706683786E+02
              0.719007777140453E+02
              0.673038397520471E+02
              0.251946894011351E+02
             -0.130537292726719E+02
              0.345464277834208E+01
             -0.173744338491491E+02
             -0.210789650064868E+01
              0.907950975948009E+02
              0.126635428852933E+01
             -0.190556860715496E+02
             -0.110739232478805E+03
             -0.552253818425367E+02
             -0.375068040199045E+02
             -0.658433147934593E+02
             -0.555577387996653E+02
             -0.682555409817018E+02
             -0.447050291382053E+02
             -0.410600530767364E+02
             -0.452032809482295E+02
              0.483473924178540E+02
             -0.293911574263752E+02
             -0.994925160113397E+02
              0.418893811468238E+02
             -0.260062399735286E+02
             -0.790811610972286E+02
              0.943930453431375E+02
             -0.219729863034654E+02
              0.227933193533872E+02
              0.455009612162857E+02
             -0.130797597001072E+01
              0.254495677140395E+02
              0.471469477822049E+01
              0.424169907633807E+00
             -0.150631288409793E+02
             -0.715782918685804E+02
              0.133235309731823E+02
             -0.129355028211459E+03
              0.624444496212038E+02
             -0.440554828632488E+02
             -0.163194682710924E+02
             -0.158318735312461E+02
              0.716702582349146E+01
             -0.227579221893617E+02
              0.297053326367666E+02
             -0.520720325830405E+02
              0.367034988601178E+02
              0.371013443534060E+02
              0.168105843594519E+02
              0.100537017022766E+02
              0.197883791806715E+02
              0.623415228838127E+01
              0.310223985708169E+02
             -0.797206948670762E+01
             -0.592730657554864E+02
              0.756707652550523E+01
             -0.152788684227369E+02
             -0.193515270478838E+01
              0.506497156499359E+02
             -0.826735119705475E+02
             -0.149499938609915E+01
              0.585461614709573E+00
              0.996181992944275E+01
              0.318349964022150E+02
             -0.123477749500151E+02
              0.835727597759255E+02
              0.487349000112667E+02
             -0.183194830226595E+02
             -0.954881859783939E+01
              0.107722488605523E+01
              0.769524869557622E+02
             -0.586109565979185E+02
             -0.105760397529182E+03
              0.309213980897782E+02
             -0.163127050081235E+02
             -0.139589947379952E+02
              0.130565066854255E+02
              0.768379609887211E+02
              0.464012245508147E+02
             -0.153358113591390E+02
             -0.503104571607309E+02
             -0.551201454373641E+01
              0.306341255060148E+02
             -0.111708636068371E+02
             -0.755855177041203E+02
             -0.273171359598084E+01
             -0.890075269490653E+02
             -0.475780016022800E+02
              0.768664448985551E+02
             -0.483573182190911E+02
             -0.636628720042314E+02
             -0.514244006552352E+02
             -0.349888063080096E+02
              0.340999180908365E+02
              0.821706607652280E+02
             -0.358661284433680E+01
              0.276520003685345E+02
             -0.183952845562979E+02
             -0.693975826499372E+02
              0.465005747709305E+02
             -0.445076733527480E+02
              0.321547363683031E+02
              0.376046434338651E+02
             -0.657736961540849E+01
              0.390214483859812E+02
              0.438189404392981E+02
              0.100698950704081E+03
             -0.155777948739337E+02
             -0.456439696848019E+02
             -0.612775728128074E+02
             -0.124074393715463E+02
             -0.233369398043588E+02
              0.102978255937674E+03
             -0.448951040892105E+02
              0.105279829540149E+02
              0.970071894613540E+01
             -0.264413913680128E+02
             -0.798989473945438E+02
             -0.699141545412778E+01
              0.979914260578326E+02
              0.941769808394969E+01
              0.808683211067847E+01
             -0.527252685305763E+02
             -0.605387416204776E+02
             -0.565912915188224E+01
              0.500276539009551E+02
             -0.221955721855721E+02
              0.107952743359711E+03
             -0.435772224968638E+02
              0.146448570526166E+02
             -0.223842696170346E+02
             -0.718363255425593E+02
              0.168633623027176E+01
             -0.501745362497923E+02
             -0.760643816883857E+02
              0.617542770510653E+01
              0.236281413814984E+01
              0.514113960614799E+02
              0.187414412040296E+02
             -0.323550629757116E+02
              0.229908525153872E+02
             -0.811201717967105E+02
             -0.521535772028011E+02
              0.901702456774299E+02
              0.142109260214243E+02
             -0.187726149604558E+02
             -0.352234094217882E+02
             -0.269322722610991E+01
             -0.588775480787797E+01
              0.830376009915282E+02
              0.417693148308616E+02
             -0.165849222226375E+02
             -0.121624079166295E+02
             -0.427549810258872E+02
             -0.200423582312899E+02
             -0.669814143291971E+02
              0.459652512645791E+02
              0.546114246124841E+01
              0.144691970238656E+02
              0.156302004781453E+02
             -0.582983370553883E+00
             -0.168558858383667E+02
             -0.304026348544847E+01
             -0.100446119644843E+03
             -0.229615554384679E+02
             -0.765744630767870E+01
             -0.947399639450620E+01
              0.546096826161389E+02
              0.623872069840916E+02
              0.164916549415998E+02
             -0.970493558758357E+02
              0.647439862592437E+02
             -0.215009257091823E+02
             -0.376968222825269E+02
             -0.864160263698862E+02
             -0.386661017385325E+02
              0.564719926113793E+02
              0.244343337286148E+02
              0.514436724513604E+01
              0.292399503163130E+02
             -0.564874141891823E+02
             -0.422490082858407E+02
              0.515336250643070E+02
              0.387235884843549E+02
              0.518695653714851E+02
             -0.118561224224476E+01
              0.685734874756838E+01
              0.569428975039938E+02
              0.962596680368744E+02
             -0.299954561231407E+02
              0.322878169149342E+02
             -0.119086274559243E+02
             -0.412155213229270E+02
             -0.314282570614728E+02
             -0.300334083586263E+02
             -0.131358421976242E+02
             -0.523307964128089E+02
             -0.216986608891600E+02
             -0.141133735700317E+03
              0.368816437582208E+02
              0.206967180696637E+02
             -0.394752834835855E+01
             -0.379841787949549E+02
             -0.204042162166800E+02
             -0.526902749811312E+02
              0.151005990955061E+02
              0.819877643470267E+02
             -0.252254665003854E+02
             -0.163006529960974E+02
              0.238074090558082E+02
             -0.489416305633837E+02
              0.880304127359284E+02
              0.154269671858662E+02
              0.226038859385418E+02
              0.490102525595444E+02
              0.318408547117969E+01
              0.542067552094425E+02
              0.143116549566173E+02
             -0.106230084458205E+02
              0.731943865007369E+01
              0.769709981121878E+00
              0.726941626075469E+02
              0.101069779824631E+02
              0.120672276862642E+02
             -0.130099088145092E+02
              0.132344283393315E+02
             -0.911136862365388E+02
             -0.325629805347816E+02
             -0.457486491911540E+02
              0.485019716604913E+02
             -0.291196666390363E+02
             -0.658159950310770E+02
              0.538399881333426E+02
             -0.121994911409870E+02
              0.439843545226589E+02
             -0.898540171640244E+02
              0.231625850931243E+02
              0.856404088928372E+01
              0.583577657431942E+01
             -0.834014754439750E+01
             -0.904129634835999E+01
              0.479443148645840E+02
              0.200745873597549E+01
             -0.475223798776982E+02
             -0.176231547770550E+02
              0.276418808893947E+02
             -0.117905632685059E+03
             -0.929418741894669E+02
              0.396053845937274E+01
              0.117816797208087E+02
             -0.413344481087620E+02
             -0.387184243390078E+01
              0.112079744205779E+03
              0.306254839923137E+02
             -0.571421285420525E+02
              0.925164406424474E+01
             -0.965474541502981E+01
              0.105685916072691E+02
             -0.337698979522946E+02
              0.195567854457417E+02
              0.284487130422490E+02
             -0.299675186087848E+01
              0.108168558063199E+03
             -0.140061628411644E+02
             -0.315907822131966E+02
              0.143286693672169E+02
              0.466603946627775E+02
             -0.355632546396782E+02
             -0.317267131648462E+01
              0.964724841260113E+02
             -0.464942281193964E+01
              0.621560962587582E+02
              0.135437496612535E+02
             -0.900416678884143E+01
             -0.305104046699322E+02
              0.566262027589236E+02
             -0.514302444467959E+02
             -0.220196176300612E+01
             -0.170185956947441E+02
             -0.405044119855446E+02
              0.184843524578213E+02
              0.239308406533062E+02
              0.115810813104404E+02
              0.732617308538920E+00
             -0.384602028572407E+02
              0.215278612106215E+02
             -0.674300064295150E+01
             -0.246390323265728E+02
             -0.210509562145071E+02
              0.203093849388599E+02
             -0.595182547805723E+01
             -0.349179673515108E+02
             -0.106627756271906E+03
              0.102985514439499E+02
              0.248385084359290E+02
             -0.387351335236673E+02
             -0.210989128340832E+02
              0.806946120635698E+02
              0.653439698970038E+01
              0.310992703440681E+02
              0.392428369056813E+01
              0.321963589773419E+02
              0.645888880038058E+01
             -0.372869548450573E+02
             -0.235756510776690E+01
              0.875019316629806E+01
              0.274020216382051E+02
              0.781580395970735E+02
              0.507442416811771E+02
              0.188202542234762E+00
              0.169055486021786E+02
              0.613119608388511E+02
              0.235966328758216E+02
             -0.752613604265546E+02
             -0.273773490677957E+02
              0.150841054388349E+02
              0.562387372785446E+01
              0.254947042575524E+02
             -0.547689603038061E+02
              0.896996595855217E+01
              0.386010946475849E+02
              0.497969585391074E+02
             -0.434810714334851E+02
             -0.687455176238961E+01
             -0.208060977296395E+01
             -0.133968340835490E+02
             -0.365342274824573E+02
             -0.215015536316216E+02
             -0.206052026098786E+01
              0.794119272048425E+01
              0.421362377413681E+02
             -0.308379978687708E+02
              0.826086945256617E+02
              0.327402288117917E+02
              0.219782905091544E+02
              0.333074300687705E+02
              0.322910154272320E+02
              0.346290866042408E+02
              0.537137498024184E+02
             -0.433882880850001E+02
              0.619509119547109E+02
             -0.112267802556610E+03
              0.307352042230291E+02
             -0.106512474403180E+03
              0.854602725541323E+02
              0.690672834552799E+02
             -0.109805754743651E+02
             -0.493124833891860E+02
             -0.429532881683474E+02
             -0.623331959373807E+02
             -0.628747997183660E+02
              0.551741332254630E+02
              0.405395886007799E+02
              0.236810507915692E+02
              0.373597907863963E+02
              0.403380728639185E+02
             -0.382169412487139E+02
             -0.197764697727530E+02
              0.586295007603706E+02
             -0.115982746052091E+02
              0.551698282981847E+02
              0.699455997072866E+02
             -0.554622469211468E+01
             -0.706304134597559E+02
             -0.885862023849768E+00
             -0.247386707785206E+01
             -0.882831000238605E+01
             -0.179387512720604E+01
             -0.652795320209616E+02
             -0.210422556171270E+02
              0.540661778602574E+01
              0.901073395527644E+01
              0.468919133097710E+02
             -0.397861124660614E+02
              0.657017356896413E+02
             -0.425210090804247E+02
              0.210515999230494E+02
              0.350408530628640E+02
 
 BEEF-vdW xc energy contributions
           1 :   -782.778140721387     
           2 :    719.135089894033     
           3 :   -608.866392878701     
           4 :    478.945052398173     
           5 :   -356.875395619395     
           6 :    262.549423883621     
           7 :   -203.693327484682     
           8 :    175.809132854380     
           9 :   -166.192440840666     
          10 :    160.117142983592     
          11 :   -146.660403268044     
          12 :    121.969879703439     
          13 :   -89.1243273829318     
          14 :    55.2127746028060     
          15 :   -27.3169807974666     
          16 :    9.21785437685128     
          17 :  -0.105520579311587     
          18 :   -4.45235697770522     
          19 :    9.99791241520575     
          20 :   -20.4533577305262     
          21 :    36.4265620460613     
          22 :   -55.2222036282000     
          23 :    72.3812773458637     
          24 :   -83.9075930688086     
          25 :    88.0901847875911     
          26 :   -86.1195180647227     
          27 :    81.3045977998828     
          28 :   -77.3683576947423     
          29 :    76.6844641621744     
          30 :   -79.2821167314391     
          31 :   -85.8821870760947     
          32 :   -65.8277267599877     

     Writing output data file ./pwscf.save/
 
     init_run     :    350.61s CPU    355.09s WALL (       1 calls)
     electrons    :  13975.35s CPU  14101.93s WALL (       1 calls)
     forces       :    103.62s CPU    104.85s WALL (       1 calls)

     Called by init_run:
     wfcinit      :    303.40s CPU    306.88s WALL (       1 calls)
     potinit      :     44.29s CPU     44.63s WALL (       1 calls)
     hinit0       :      1.13s CPU      1.17s WALL (       1 calls)

     Called by electrons:
     c_bands      :  11683.66s CPU  11781.38s WALL (      20 calls)
     sum_band     :   1643.74s CPU   1656.19s WALL (      20 calls)
     v_of_rho     :    111.95s CPU    116.54s WALL (      21 calls)
     newd         :     31.48s CPU     43.36s WALL (      21 calls)
     PAW_pot      :    140.70s CPU    140.71s WALL (      21 calls)
     mix_rho      :    408.75s CPU    409.57s WALL (      20 calls)
     vdW_kernel   :     33.47s CPU     33.47s WALL (       1 calls)

     Called by c_bands:
     init_us_2    :     79.14s CPU     79.38s WALL (     546 calls)
     cegterg      :  10867.07s CPU  10963.84s WALL (     260 calls)

     Called by *egterg:
     cdiaghg      :    104.90s CPU    104.94s WALL (    1543 calls)
     h_psi        :   7051.00s CPU   7085.35s WALL (    1556 calls)
     s_psi        :   1143.66s CPU   1143.73s WALL (    1556 calls)
     g_psi        :     16.93s CPU     16.95s WALL (    1283 calls)

     Called by h_psi:
     h_psi:calbec :   1061.15s CPU   1061.39s WALL (    1556 calls)
     vloc_psi     :   4822.32s CPU   4823.85s WALL (    1556 calls)
     add_vuspsi   :   1140.58s CPU   1140.70s WALL (    1556 calls)

     General routines
     calbec       :   1553.05s CPU   1553.38s WALL (    1868 calls)
     fft          :     51.88s CPU     51.90s WALL (    3280 calls)
     ffts         :    134.11s CPU    134.13s WALL (    8815 calls)
     fftw         :   4915.27s CPU   4916.19s WALL (  338524 calls)
 
     Parallel routines
 
     PWSCF        :      4h 2m CPU      4h 4m WALL

 
   This run was terminated on:  14:16:39   4Jan2023            

=------------------------------------------------------------------------------=
   JOB DONE.
=------------------------------------------------------------------------------=
