
     Program PWSCF v.6.7MaX starts on 20Dec2022 at 15:47:16 

     This program is part of the open-source Quantum ESPRESSO suite
     for quantum simulation of materials; please cite
         "P. Giannozzi et al., J. Phys.:Condens. Matter 21 395502 (2009);
         "P. Giannozzi et al., J. Phys.:Condens. Matter 29 465901 (2017);
          URL http://www.quantum-espresso.org", 
     in publications or presentations arising from this work. More details at
     http://www.quantum-espresso.org/quote

     Parallel version (MPI), running on     1 processors

     MPI processes distributed on     1 nodes
     Reading input from chch-ensemble.in
Warning: card &CELL ignored
Warning: card / ignored

     Current dimensions of program PWSCF are:
     Max number of different atomic species (ntypx) = 10
     Max number of k-points (npk) =  40000
     Max angular momentum in pseudopotentials (lmaxx) =  3
     file Pt.pbe-n-kjpaw_psl.1.0.0.UPF: wavefunction(s)  6S 5D renormalized
     file C.pbe-n-kjpaw_psl.1.0.0.UPF: wavefunction(s)  2S 2P renormalized
     file H.pbe-kjpaw_psl.1.0.0.UPF: wavefunction(s)  1S renormalized

     **************************************************************************
     Initializing libbeef V0.1.2 with the BEEF-vdW functional.
     Citation: Wellendorff et al., PRB 85, 235149 (2012).
     **************************************************************************


     IMPORTANT: XC functional enforced from input :
     Exchange-correlation= BEEF-VDW
                           (   1   4  43  14   2   0   0)
     Any further DFT definition will be discarded
     Please, verify this is what you really want


     Subspace diagonalization in iterative solution of the eigenvalue problem:
     a serial algorithm will be used

 
     G-vector sticks info
     --------------------
     sticks:   dense  smooth     PW     G-vecs:    dense   smooth      PW
     Sum        4267    4267   1159               697307   697307   98269
 


     bravais-lattice index     =            0
     lattice parameter (alat)  =      16.0349  a.u.
     unit-cell volume          =   11100.8287 (a.u.)^3
     number of atoms/cell      =           40
     number of atomic types    =            3
     number of electrons       =       370.00
     number of Kohn-Sham states=          222
     kinetic-energy cutoff     =      60.0000  Ry
     charge density cutoff     =     240.0000  Ry
     scf convergence threshold =      1.0E-06
     mixing beta               =       0.7000
     number of iterations used =            8  local-TF  mixing
     Exchange-correlation= BEEF-VDW
                           (   1   4  43  14   2   0   0)

     celldm(1)=  16.034858  celldm(2)=   0.000000  celldm(3)=   0.000000
     celldm(4)=   0.000000  celldm(5)=   0.000000  celldm(6)=   0.000000

     crystal axes: (cart. coord. in units of alat)
               a(1) = (   1.000000   0.000000   0.000000 )  
               a(2) = (   0.500000   0.866025   0.000000 )  
               a(3) = (   0.000000   0.000000   3.109062 )  

     reciprocal axes: (cart. coord. in units 2 pi/alat)
               b(1) = (  1.000000 -0.577350  0.000000 )  
               b(2) = (  0.000000  1.154701  0.000000 )  
               b(3) = (  0.000000  0.000000  0.321640 )  


     PseudoPot. # 1 for Pt read from file:
     /users/bkreitz1/quantum-espresso/potentials/Pt.pbe-n-kjpaw_psl.1.0.0.UPF
     MD5 check sum: 04dc8a03c51ece93fc7b5889c2958091
     Pseudo is Projector augmented-wave + core cor, Zval = 10.0
     Generated using 'atomic' code by A. Dal Corso  v.6.7MaX
     Shape of augmentation charge: PSQ
     Using radial grid of 1277 points,  6 beta functions with: 
                l(1) =   0
                l(2) =   0
                l(3) =   1
                l(4) =   1
                l(5) =   2
                l(6) =   2
     Q(r) pseudized with 0 coefficients 


     PseudoPot. # 2 for C  read from file:
     /users/bkreitz1/quantum-espresso/potentials/C.pbe-n-kjpaw_psl.1.0.0.UPF
     MD5 check sum: a169b0ebad56f5ec0d79c4633f80bf22
     Pseudo is Projector augmented-wave + core cor, Zval =  4.0
     Generated using 'atomic' code by A. Dal Corso  v.6.7MaX
     Shape of augmentation charge: PSQ
     Using radial grid of 1073 points,  4 beta functions with: 
                l(1) =   0
                l(2) =   0
                l(3) =   1
                l(4) =   1
     Q(r) pseudized with 0 coefficients 


     PseudoPot. # 3 for H  read from file:
     /users/bkreitz1/quantum-espresso/potentials/H.pbe-kjpaw_psl.1.0.0.UPF
     MD5 check sum: ae98473e6dc62675f0d0baffdab24f65
     Pseudo is Projector augmented-wave, Zval =  1.0
     Generated using 'atomic' code by A. Dal Corso  v.6.7MaX
     Shape of augmentation charge: PSQ
     Using radial grid of  929 points,  2 beta functions with: 
                l(1) =   0
                l(2) =   0
     Q(r) pseudized with 0 coefficients 


     atomic species   valence    mass     pseudopotential
        Pt            10.00   195.08400     Pt( 1.00)
        C              4.00    12.01100     C ( 1.00)
        H              1.00     1.00800     H ( 1.00)

     No symmetry found



   Cartesian axes

     site n.     atom                  positions (alat units)
         1           Pt  tau(   1) = (   0.0000000   0.0000000   1.0017346  )
         2           Pt  tau(   2) = (   0.3333333   0.0000000   1.0017346  )
         3           Pt  tau(   3) = (   0.6666667   0.0000000   1.0017346  )
         4           Pt  tau(   4) = (   0.1666667   0.2886751   1.0017346  )
         5           Pt  tau(   5) = (   0.5000000   0.2886751   1.0017346  )
         6           Pt  tau(   6) = (   0.8333333   0.2886751   1.0017346  )
         7           Pt  tau(   7) = (   0.3333333   0.5773503   1.0017346  )
         8           Pt  tau(   8) = (   0.6666667   0.5773503   1.0017346  )
         9           Pt  tau(   9) = (   1.0000000   0.5773503   1.0017346  )
        10           Pt  tau(  10) = (   0.1666667   0.0962250   1.2739001  )
        11           Pt  tau(  11) = (   0.5000000   0.0962250   1.2739001  )
        12           Pt  tau(  12) = (   0.8333333   0.0962250   1.2739001  )
        13           Pt  tau(  13) = (   0.3333333   0.3849002   1.2739001  )
        14           Pt  tau(  14) = (   0.6666667   0.3849002   1.2739001  )
        15           Pt  tau(  15) = (   1.0000000   0.3849002   1.2739001  )
        16           Pt  tau(  16) = (   0.5000000   0.6735753   1.2739001  )
        17           Pt  tau(  17) = (   0.8333333   0.6735753   1.2739001  )
        18           Pt  tau(  18) = (   1.1666667   0.6735753   1.2739001  )
        19           Pt  tau(  19) = (   0.0021321   0.1965650   1.5454775  )
        20           Pt  tau(  20) = (   0.3331930   0.1966416   1.5448217  )
        21           Pt  tau(  21) = (   0.6642477   0.1965875   1.5454932  )
        22           Pt  tau(  22) = (   0.1674508   0.4838557   1.5460242  )
        23           Pt  tau(  23) = (   0.4989782   0.4838565   1.5460246  )
        24           Pt  tau(  24) = (   0.8332193   0.4838328   1.5412837  )
        25           Pt  tau(  25) = (   0.3332153   0.7680675   1.5512438  )
        26           Pt  tau(  26) = (   0.6665596   0.7736544   1.5415537  )
        27           Pt  tau(  27) = (   0.9999043   0.7736651   1.5415711  )
        28           Pt  tau(  28) = (   0.0003830   0.0098396   1.8181854  )
        29           Pt  tau(  29) = (   0.3330636   0.0087735   1.8166962  )
        30           Pt  tau(  30) = (   0.6657613   0.0098852   1.8182194  )
        31           Pt  tau(  31) = (   0.1597235   0.2944267   1.8295045  )
        32           Pt  tau(  32) = (   0.5062192   0.2944855   1.8296028  )
        33           Pt  tau(  33) = (   0.8330125   0.2964545   1.8171938  )
        34           Pt  tau(  34) = (   0.3330547   0.5938202   1.8388179  )
        35           Pt  tau(  35) = (   0.6706341   0.5890990   1.8134925  )
        36           Pt  tau(  36) = (   0.9954804   0.5891037   1.8134667  )
        37           C   tau(  37) = (   0.2511080   0.4155058   2.0118733  )
        38           C   tau(  38) = (   0.4145762   0.4154915   2.0118558  )
        39           H   tau(  39) = (   1.1764299   0.4505273   2.1099472  )
        40           H   tau(  40) = (   0.4892198   0.4503780   2.1111844  )

     number of k points=    13  Marzari-Vanderbilt smearing, width (Ry)=  0.0200
                       cart. coord. in units 2pi/alat
        k(    1) = (   0.0000000   0.0000000   0.0000000), wk =   0.0800000
        k(    2) = (   0.0000000   0.2309401   0.0000000), wk =   0.1600000
        k(    3) = (   0.0000000   0.4618802   0.0000000), wk =   0.1600000
        k(    4) = (   0.2000000  -0.1154701   0.0000000), wk =   0.1600000
        k(    5) = (   0.2000000   0.1154701   0.0000000), wk =   0.1600000
        k(    6) = (   0.2000000   0.3464102   0.0000000), wk =   0.1600000
        k(    7) = (   0.2000000  -0.5773503   0.0000000), wk =   0.1600000
        k(    8) = (   0.2000000  -0.3464102   0.0000000), wk =   0.1600000
        k(    9) = (   0.4000000  -0.2309401   0.0000000), wk =   0.1600000
        k(   10) = (   0.4000000  -0.0000000   0.0000000), wk =   0.1600000
        k(   11) = (   0.4000000   0.2309401   0.0000000), wk =   0.1600000
        k(   12) = (   0.4000000  -0.6928203   0.0000000), wk =   0.1600000
        k(   13) = (   0.4000000  -0.4618802   0.0000000), wk =   0.1600000

     Dense  grid:   697307 G-vectors     FFT dimensions: (  80,  80, 250)

     Estimated max dynamical RAM per process >       8.38 GB

     Check: negative core charge=   -0.000001

     Initial potential from superposition of free atoms

     starting charge  369.99379, renormalised to  370.00000

     negative rho (up, down):  1.140E-02 0.000E+00


     %%%%%%%%%%%%%%%%%%%%%%%%%%%%%%%%%%%%%%%%%%%%%%%%%%%%%%%%%%%%%%%%%%%%%%%%
     %                                                                      %
     % You are using vdW-DF, which was implemented by the Thonhauser group. %
     % Please cite the following two papers that made this development      %
     % possible and the two reviews that describe the various versions:     %
     %                                                                      %
     %   T. Thonhauser et al., PRL 115, 136402 (2015).                      %
     %   T. Thonhauser et al., PRB 76, 125112 (2007).                       %
     %   K. Berland et al., Rep. Prog. Phys. 78, 066501 (2015).             %
     %   D.C. Langreth et al., J. Phys.: Condens. Matter 21, 084203 (2009). %
     %                                                                      %
     %                                                                      %
     % If you are calculating the stress with vdW-DF, please also cite:     %
     %                                                                      %
     %   R. Sabatini et al., J. Phys.: Condens. Matter 24, 424209 (2012).   %
     %                                                                      %
     %%%%%%%%%%%%%%%%%%%%%%%%%%%%%%%%%%%%%%%%%%%%%%%%%%%%%%%%%%%%%%%%%%%%%%%%


     Starting wfcs are  334 randomized atomic wfcs
     Checking if some PAW data can be deallocated... 

     total cpu time spent up to now is      300.9 secs

     Self-consistent Calculation

     iteration #  1     ecut=    60.00 Ry     beta= 0.70
     Davidson diagonalization with overlap
     ethr =  1.00E-02,  avg # of iterations =  2.0

     Threshold (ethr) on eigenvalues was too large:
     Diagonalizing with lowered threshold

     Davidson diagonalization with overlap
     ethr =  7.06E-04,  avg # of iterations =  3.2

     negative rho (up, down):  1.294E-02 0.000E+00

     total cpu time spent up to now is     1471.6 secs

     total energy              =  -27794.32932968 Ry
     estimated scf accuracy    <       2.89151832 Ry

     iteration #  2     ecut=    60.00 Ry     beta= 0.70
     Davidson diagonalization with overlap
     ethr =  7.81E-04,  avg # of iterations =  2.0

     negative rho (up, down):  1.105E-02 0.000E+00

     total cpu time spent up to now is     1991.1 secs

     total energy              =  -27794.54261721 Ry
     estimated scf accuracy    <       1.29183234 Ry

     iteration #  3     ecut=    60.00 Ry     beta= 0.70
     Davidson diagonalization with overlap
     ethr =  3.49E-04,  avg # of iterations =  1.9

     negative rho (up, down):  8.753E-03 0.000E+00

     total cpu time spent up to now is     2510.6 secs

     total energy              =  -27794.60973247 Ry
     estimated scf accuracy    <       0.53558393 Ry

     iteration #  4     ecut=    60.00 Ry     beta= 0.70
     Davidson diagonalization with overlap
     ethr =  1.45E-04,  avg # of iterations = 11.1

     negative rho (up, down):  6.865E-03 0.000E+00

     total cpu time spent up to now is     3144.7 secs

     total energy              =  -27794.65033897 Ry
     estimated scf accuracy    <       0.14705626 Ry

     iteration #  5     ecut=    60.00 Ry     beta= 0.70
     Davidson diagonalization with overlap
     c_bands:  1 eigenvalues not converged
     ethr =  3.97E-05,  avg # of iterations = 10.0

     negative rho (up, down):  5.199E-03 0.000E+00

     total cpu time spent up to now is     3868.5 secs

     total energy              =  -27794.67346409 Ry
     estimated scf accuracy    <       0.06312964 Ry

     iteration #  6     ecut=    60.00 Ry     beta= 0.70
     Davidson diagonalization with overlap
     c_bands:  2 eigenvalues not converged
     c_bands:  1 eigenvalues not converged
     ethr =  1.71E-05,  avg # of iterations =  9.9

     negative rho (up, down):  4.065E-03 0.000E+00

     total cpu time spent up to now is     4484.6 secs

     total energy              =  -27794.67742564 Ry
     estimated scf accuracy    <       0.01066113 Ry

     iteration #  7     ecut=    60.00 Ry     beta= 0.70
     Davidson diagonalization with overlap
     ethr =  2.88E-06,  avg # of iterations = 11.5

     negative rho (up, down):  3.828E-03 0.000E+00

     total cpu time spent up to now is     5297.0 secs

     total energy              =  -27794.68045461 Ry
     estimated scf accuracy    <       0.00289599 Ry

     iteration #  8     ecut=    60.00 Ry     beta= 0.70
     Davidson diagonalization with overlap
     ethr =  7.83E-07,  avg # of iterations =  3.5

     negative rho (up, down):  3.854E-03 0.000E+00

     total cpu time spent up to now is     5879.5 secs

     total energy              =  -27794.68081325 Ry
     estimated scf accuracy    <       0.00197595 Ry

     iteration #  9     ecut=    60.00 Ry     beta= 0.70
     Davidson diagonalization with overlap
     ethr =  5.34E-07,  avg # of iterations =  2.3

     negative rho (up, down):  4.419E-03 0.000E+00

     total cpu time spent up to now is     6398.6 secs

     total energy              =  -27794.68091377 Ry
     estimated scf accuracy    <       0.00149630 Ry

     iteration # 10     ecut=    60.00 Ry     beta= 0.70
     Davidson diagonalization with overlap
     ethr =  4.04E-07,  avg # of iterations =  5.2

     negative rho (up, down):  5.008E-03 0.000E+00

     total cpu time spent up to now is     6933.9 secs

     total energy              =  -27794.68094627 Ry
     estimated scf accuracy    <       0.00096249 Ry

     iteration # 11     ecut=    60.00 Ry     beta= 0.70
     Davidson diagonalization with overlap
     ethr =  2.60E-07,  avg # of iterations =  1.7

     negative rho (up, down):  7.880E-03 0.000E+00

     total cpu time spent up to now is     7419.7 secs

     total energy              =  -27794.68092450 Ry
     estimated scf accuracy    <       0.00061947 Ry

     iteration # 12     ecut=    60.00 Ry     beta= 0.70
     Davidson diagonalization with overlap
     c_bands:  2 eigenvalues not converged
     c_bands:  1 eigenvalues not converged
     ethr =  1.67E-07,  avg # of iterations =  4.8

     negative rho (up, down):  8.578E-03 0.000E+00

     total cpu time spent up to now is     7954.0 secs

     total energy              =  -27794.68097675 Ry
     estimated scf accuracy    <       0.00023596 Ry

     iteration # 13     ecut=    60.00 Ry     beta= 0.70
     Davidson diagonalization with overlap
     ethr =  6.38E-08,  avg # of iterations =  3.1

     negative rho (up, down):  1.028E-02 0.000E+00

     total cpu time spent up to now is     8483.5 secs

     total energy              =  -27794.68101490 Ry
     estimated scf accuracy    <       0.00015768 Ry

     iteration # 14     ecut=    60.00 Ry     beta= 0.70
     Davidson diagonalization with overlap
     ethr =  4.26E-08,  avg # of iterations =  2.0

     negative rho (up, down):  1.005E-02 0.000E+00

     total cpu time spent up to now is     9006.5 secs

     total energy              =  -27794.68102651 Ry
     estimated scf accuracy    <       0.00004603 Ry

     iteration # 15     ecut=    60.00 Ry     beta= 0.70
     Davidson diagonalization with overlap
     ethr =  1.24E-08,  avg # of iterations =  4.0

     negative rho (up, down):  1.144E-02 0.000E+00

     total cpu time spent up to now is     9626.4 secs

     total energy              =  -27794.68103261 Ry
     estimated scf accuracy    <       0.00004494 Ry

     iteration # 16     ecut=    60.00 Ry     beta= 0.70
     Davidson diagonalization with overlap
     ethr =  1.21E-08,  avg # of iterations =  1.1

     negative rho (up, down):  1.245E-02 0.000E+00

     total cpu time spent up to now is    10100.8 secs

     total energy              =  -27794.68103143 Ry
     estimated scf accuracy    <       0.00000869 Ry

     iteration # 17     ecut=    60.00 Ry     beta= 0.70
     Davidson diagonalization with overlap
     ethr =  2.35E-09,  avg # of iterations =  4.2

     negative rho (up, down):  1.261E-02 0.000E+00

     total cpu time spent up to now is    10811.8 secs

     total energy              =  -27794.68103374 Ry
     estimated scf accuracy    <       0.00000195 Ry

     iteration # 18     ecut=    60.00 Ry     beta= 0.70
     Davidson diagonalization with overlap
     ethr =  5.28E-10,  avg # of iterations =  3.7

     negative rho (up, down):  1.266E-02 0.000E+00

     total cpu time spent up to now is    11416.2 secs

     total energy              =  -27794.68103406 Ry
     estimated scf accuracy    <       0.00000134 Ry

     iteration # 19     ecut=    60.00 Ry     beta= 0.70
     Davidson diagonalization with overlap
     ethr =  3.63E-10,  avg # of iterations =  1.7

     negative rho (up, down):  1.264E-02 0.000E+00

     total cpu time spent up to now is    11897.2 secs

     End of self-consistent calculation

          k = 0.0000 0.0000 0.0000 ( 87183 PWs)   bands (ev):

   -13.2452  -7.9827  -6.6774  -5.9426  -5.3858  -4.4522  -4.3490  -4.3015
    -4.2703  -4.2636  -4.2341  -4.2296  -4.1872  -3.9392  -3.7825  -3.7703
    -3.7100  -3.7005  -3.6687  -3.5306  -3.4980  -3.4390  -3.2713  -3.2678
    -3.2251  -3.1764  -3.0889  -3.0474  -3.0375  -3.0337  -3.0167  -2.9264
    -2.8911  -2.8902  -2.8739  -2.8194  -2.7969  -2.7935  -2.7476  -2.7410
    -2.7191  -2.7150  -2.7140  -2.6263  -2.3681  -2.2981  -2.2163  -2.1843
    -2.1768  -2.1708  -2.1133  -2.1122  -2.0948  -2.0608  -1.9987  -1.9721
    -1.9142  -1.9048  -1.7871  -1.7571  -1.4835  -1.4712  -1.4048  -1.3742
    -1.3688  -1.3308  -1.3024  -1.2299  -1.2274  -1.1830  -1.1764  -1.1719
    -1.1642  -1.1545  -1.1381  -1.1181  -1.1129  -1.0829  -1.0808  -1.0609
    -1.0591  -1.0414  -1.0224  -0.9910  -0.9741  -0.9642  -0.9466  -0.9071
    -0.7872  -0.7821  -0.7636  -0.7398  -0.7132  -0.7044  -0.6885  -0.6717
    -0.6537  -0.6257  -0.6249  -0.5835  -0.5240  -0.5224  -0.4788  -0.4744
    -0.4616  -0.4526  -0.3770  -0.3688  -0.3441  -0.3298  -0.2982  -0.2844
    -0.1827   0.0035   0.0483   0.0826   0.0975   0.1663   0.1747   0.1780
     0.2122   0.2434   0.3084   0.3117   0.3175   0.3664   0.3838   0.4046
     0.4162   0.4317   0.4620   0.5416   0.5905   0.5964   0.6394   0.6711
     0.6772   0.7096   0.8328   0.8691   0.8899   0.9107   0.9109   0.9413
     0.9495   0.9807   1.0448   1.1045   1.1054   1.1162   1.1655   1.1961
     1.1983   1.2338   1.2620   1.2655   1.3389   1.3412   1.3558   1.3619
     1.3686   1.3721   1.3801   1.3962   1.4058   1.4467   1.4600   1.4729
     1.4742   1.4815   1.5404   1.5548   1.5835   1.5858   1.5964   1.6272
     1.6441   1.6683   1.7091   1.7223   1.7273   1.7287   1.7444   1.7532
     1.7649   1.7945   1.8003   1.8291   1.8408   1.8747   1.8889   1.9645
     2.0057   2.1186   2.1261   2.1305   2.1723   2.1765   2.1938   2.2344
     2.5963   2.6842   2.9762   3.0077   3.0540   3.0668   3.5064   4.1815
     4.8346   5.2358   5.3559   5.3639   5.7111   5.8319   6.0444   6.1558
     6.8212   6.8694   6.9526   6.9884   6.9934   7.0144

          k = 0.0000 0.2309 0.0000 ( 87126 PWs)   bands (ev):

   -13.2448  -7.9819  -6.5335  -5.9216  -5.2632  -4.7869  -4.3842  -4.3668
    -4.3258  -4.1352  -4.1250  -4.0285  -4.0032  -3.9694  -3.8135  -3.7119
    -3.6714  -3.6581  -3.6327  -3.5309  -3.4490  -3.3501  -3.3138  -3.2159
    -3.1906  -3.1855  -3.1131  -3.1019  -3.0490  -3.0114  -3.0000  -2.9612
    -2.9454  -2.9046  -2.8786  -2.8376  -2.8156  -2.8068  -2.7530  -2.6915
    -2.6352  -2.5791  -2.5708  -2.5193  -2.4332  -2.3541  -2.3119  -2.2911
    -2.2342  -2.2322  -2.1631  -2.1057  -2.0898  -2.0212  -1.9835  -1.9513
    -1.8950  -1.8790  -1.7886  -1.7785  -1.6549  -1.5734  -1.5367  -1.5126
    -1.4965  -1.4582  -1.4222  -1.4173  -1.3570  -1.3568  -1.3117  -1.2601
    -1.2435  -1.2204  -1.2013  -1.1730  -1.1406  -1.0845  -1.0735  -1.0458
    -1.0074  -0.9916  -0.9772  -0.9624  -0.9304  -0.9250  -0.9108  -0.8496
    -0.8356  -0.8124  -0.7570  -0.7505  -0.7230  -0.7228  -0.7023  -0.6687
    -0.6387  -0.6237  -0.5922  -0.5839  -0.5523  -0.5405  -0.5283  -0.4819
    -0.4817  -0.4544  -0.4501  -0.4061  -0.3894  -0.3469  -0.2969  -0.2867
    -0.2589  -0.2296  -0.2287  -0.1786  -0.1673  -0.0557   0.0335   0.0914
     0.1712   0.1748   0.1958   0.2031   0.2670   0.2834   0.3420   0.3548
     0.4363   0.4487   0.4941   0.5171   0.5505   0.5665   0.5974   0.6134
     0.6391   0.6396   0.7544   0.7610   0.7891   0.8051   0.8184   0.8467
     0.9400   0.9422   0.9796   1.0004   1.0091   1.0759   1.0895   1.1327
     1.1615   1.1626   1.1810   1.2152   1.2597   1.2799   1.3077   1.3478
     1.3788   1.3801   1.4072   1.4393   1.5001   1.5380   1.5386   1.5838
     1.6065   1.6327   1.6783   1.7008   1.7206   1.7315   1.7352   1.7892
     1.7977   1.8110   1.8386   1.8395   1.8740   1.8955   1.9549   1.9733
     2.0278   2.0534   2.0747   2.0894   2.1069   2.1085   2.1385   2.1634
     2.1687   2.2318   2.2490   2.3066   2.3243   2.4468   2.4669   2.4877
     2.6992   2.7411   2.8511   3.3910   3.5186   3.6798   3.7628   4.2492
     4.7072   4.9966   5.3122   5.5895   5.6122   5.8815   5.9125   6.0871
     6.3499   6.3603   6.7820   6.9013   6.9523   6.9756

          k = 0.0000 0.4619 0.0000 ( 87100 PWs)   bands (ev):

   -13.2440  -7.9807  -6.1292  -5.8865  -5.4686  -4.9024  -4.4390  -4.4149
    -4.3635  -4.0643  -4.0119  -3.8783  -3.7445  -3.7187  -3.6983  -3.6359
    -3.5833  -3.5531  -3.4843  -3.4575  -3.4267  -3.3650  -3.2994  -3.2895
    -3.2558  -3.2313  -3.2089  -3.1674  -3.1283  -3.1062  -3.0551  -3.0212
    -2.8890  -2.8557  -2.8443  -2.8420  -2.8024  -2.7072  -2.6806  -2.6289
    -2.5942  -2.5937  -2.5303  -2.4770  -2.4448  -2.3376  -2.3146  -2.2685
    -2.2432  -2.1872  -2.1506  -2.1309  -2.1218  -2.1034  -2.0768  -2.0437
    -1.9877  -1.9120  -1.9026  -1.8536  -1.8051  -1.7606  -1.7250  -1.6948
    -1.6778  -1.6639  -1.5165  -1.4942  -1.4805  -1.4349  -1.4247  -1.3458
    -1.3431  -1.3281  -1.2415  -1.2007  -1.1903  -1.1470  -1.1263  -1.1246
    -1.0724  -1.0603  -1.0472  -1.0204  -1.0011  -0.9750  -0.9541  -0.9376
    -0.9301  -0.8974  -0.8904  -0.8281  -0.8240  -0.8090  -0.7705  -0.7543
    -0.7030  -0.7001  -0.6719  -0.6505  -0.5638  -0.5517  -0.5404  -0.5217
    -0.4770  -0.4355  -0.4276  -0.3820  -0.3563  -0.2914  -0.2778  -0.2542
    -0.2026  -0.1847  -0.1629  -0.1102  -0.0149   0.0045   0.0050   0.0522
     0.0692   0.0854   0.0931   0.1535   0.1714   0.1833   0.2215   0.2244
     0.2629   0.2732   0.2831   0.3173   0.3768   0.4118   0.4724   0.4736
     0.4843   0.5061   0.5484   0.7091   0.7107   0.7495   0.7530   0.7954
     0.8860   0.9302   0.9306   0.9660   0.9972   1.0440   1.0530   1.0971
     1.1001   1.1200   1.1595   1.2147   1.2352   1.2793   1.2913   1.3258
     1.3423   1.3898   1.3942   1.4801   1.5187   1.5641   1.5753   1.5961
     1.6706   1.7086   1.7297   1.7353   1.7701   1.8097   1.8445   1.8634
     1.9019   1.9344   1.9661   1.9978   2.0325   2.0462   2.0527   2.0695
     2.0932   2.1288   2.2091   2.2498   2.2905   2.3011   2.3162   2.3919
     2.4215   2.5603   2.6847   2.7286   2.9564   3.2471   3.3015   3.3717
     3.5921   3.5994   3.8963   4.0462   4.0884   4.3321   4.5222   4.6085
     4.6886   4.6944   4.8165   4.9808   5.0469   5.2822   5.5452   5.7070
     5.9029   5.9513   6.2820   6.5488   6.7851   6.9158

          k = 0.2000-0.1155 0.0000 ( 87126 PWs)   bands (ev):

   -13.2448  -7.9849  -6.5319  -5.9241  -5.2561  -4.7675  -4.4296  -4.3661
    -4.3162  -4.1267  -4.0887  -4.0549  -4.0037  -3.9213  -3.8426  -3.7910
    -3.7112  -3.6430  -3.6166  -3.4796  -3.4359  -3.3829  -3.3014  -3.2168
    -3.1908  -3.1802  -3.1156  -3.0968  -3.0671  -3.0279  -3.0092  -2.9781
    -2.9390  -2.9157  -2.8704  -2.8528  -2.8138  -2.7971  -2.7318  -2.6717
    -2.6138  -2.5829  -2.5580  -2.5019  -2.3961  -2.3481  -2.2987  -2.2726
    -2.2446  -2.2321  -2.1882  -2.1222  -2.0327  -2.0050  -1.9756  -1.9314
    -1.9266  -1.8806  -1.8106  -1.7888  -1.6349  -1.5574  -1.5426  -1.5100
    -1.4909  -1.4585  -1.4232  -1.3976  -1.3650  -1.3488  -1.3202  -1.2997
    -1.2466  -1.2185  -1.1918  -1.1721  -1.1503  -1.1218  -1.0715  -1.0584
    -1.0021  -0.9784  -0.9657  -0.9609  -0.9278  -0.9106  -0.8908  -0.8503
    -0.8287  -0.7897  -0.7683  -0.7460  -0.7333  -0.7202  -0.6945  -0.6712
    -0.6555  -0.6452  -0.6042  -0.5925  -0.5615  -0.5452  -0.5338  -0.5158
    -0.4909  -0.4592  -0.4436  -0.4175  -0.3508  -0.3403  -0.2975  -0.2809
    -0.2636  -0.2370  -0.2294  -0.2147  -0.1599  -0.0318   0.0357   0.1025
     0.1161   0.1539   0.1829   0.1912   0.2146   0.2500   0.3185   0.3818
     0.4294   0.4422   0.5020   0.5087   0.5430   0.5636   0.5869   0.6148
     0.6380   0.6645   0.7120   0.7657   0.7884   0.8019   0.8280   0.9080
     0.9327   0.9464   0.9638   0.9852   0.9921   1.0562   1.0817   1.1480
     1.1636   1.1902   1.2013   1.2155   1.2557   1.2971   1.3026   1.3635
     1.3793   1.3857   1.4134   1.4609   1.4916   1.5318   1.5450   1.5847
     1.6007   1.6660   1.6729   1.6952   1.7038   1.7229   1.7467   1.7866
     1.8083   1.8175   1.8376   1.8551   1.8727   1.8849   1.9375   1.9997
     2.0274   2.0403   2.0780   2.0965   2.1152   2.1341   2.1508   2.1717
     2.1895   2.2459   2.2847   2.3064   2.3367   2.4455   2.4659   2.4871
     2.5105   2.8060   3.0088   3.3071   3.5807   3.6811   3.7421   4.1128
     4.7316   5.0313   5.2970   5.5799   5.7178   5.8576   5.9619   6.1635
     6.2323   6.3947   6.7383   6.8802   6.9922   7.1880

          k = 0.2000 0.1155 0.0000 ( 87126 PWs)   bands (ev):

   -13.2448  -7.9849  -6.5319  -5.9239  -5.2561  -4.7675  -4.4298  -4.3658
    -4.3165  -4.1267  -4.0889  -4.0545  -4.0039  -3.9223  -3.8431  -3.7910
    -3.7092  -3.6427  -3.6162  -3.4817  -3.4360  -3.3817  -3.3011  -3.2168
    -3.1909  -3.1802  -3.1155  -3.0966  -3.0672  -3.0280  -3.0089  -2.9780
    -2.9389  -2.9159  -2.8703  -2.8526  -2.8138  -2.7969  -2.7319  -2.6715
    -2.6140  -2.5830  -2.5579  -2.5021  -2.3968  -2.3475  -2.2988  -2.2731
    -2.2448  -2.2317  -2.1884  -2.1222  -2.0331  -2.0048  -1.9761  -1.9316
    -1.9268  -1.8803  -1.8105  -1.7886  -1.6355  -1.5577  -1.5429  -1.5098
    -1.4913  -1.4593  -1.4230  -1.3972  -1.3650  -1.3486  -1.3202  -1.2999
    -1.2469  -1.2187  -1.1928  -1.1726  -1.1496  -1.1208  -1.0700  -1.0580
    -1.0024  -0.9787  -0.9659  -0.9610  -0.9279  -0.9111  -0.8907  -0.8493
    -0.8286  -0.7899  -0.7690  -0.7463  -0.7335  -0.7199  -0.6948  -0.6713
    -0.6559  -0.6450  -0.6041  -0.5922  -0.5611  -0.5451  -0.5338  -0.5158
    -0.4909  -0.4594  -0.4433  -0.4173  -0.3501  -0.3398  -0.2975  -0.2809
    -0.2633  -0.2369  -0.2295  -0.2143  -0.1608  -0.0323   0.0355   0.1022
     0.1162   0.1542   0.1833   0.1914   0.2147   0.2500   0.3181   0.3821
     0.4296   0.4424   0.5021   0.5089   0.5437   0.5630   0.5868   0.6154
     0.6380   0.6646   0.7123   0.7657   0.7886   0.8018   0.8281   0.9080
     0.9330   0.9464   0.9640   0.9853   0.9922   1.0560   1.0817   1.1477
     1.1635   1.1900   1.2014   1.2151   1.2556   1.2969   1.3025   1.3632
     1.3792   1.3856   1.4134   1.4613   1.4915   1.5319   1.5450   1.5846
     1.6012   1.6661   1.6730   1.6954   1.7038   1.7229   1.7469   1.7865
     1.8082   1.8174   1.8377   1.8548   1.8728   1.8852   1.9376   2.0000
     2.0280   2.0401   2.0774   2.0963   2.1148   2.1337   2.1501   2.1713
     2.1893   2.2459   2.2846   2.3064   2.3369   2.4455   2.4658   2.4868
     2.5109   2.8054   3.0079   3.3071   3.5811   3.6813   3.7424   4.1133
     4.7322   5.0303   5.2959   5.5802   5.7180   5.8575   5.9620   6.1636
     6.2319   6.3960   6.7385   6.8804   6.9921   7.1846

          k = 0.2000 0.3464 0.0000 ( 87124 PWs)   bands (ev):

   -13.2442  -7.9838  -6.2559  -5.8973  -5.0469  -5.0215  -4.9775  -4.1885
    -4.1020  -3.9783  -3.9338  -3.9214  -3.8919  -3.8622  -3.8349  -3.7628
    -3.7426  -3.5806  -3.4685  -3.4056  -3.3508  -3.3385  -3.3291  -3.2855
    -3.2308  -3.1831  -3.1376  -3.1161  -3.0808  -3.0289  -2.9977  -2.9853
    -2.9721  -2.9309  -2.8825  -2.8675  -2.8561  -2.8077  -2.7492  -2.6938
    -2.6190  -2.5215  -2.4449  -2.4185  -2.3699  -2.3507  -2.3182  -2.3028
    -2.2597  -2.2225  -2.1429  -2.1256  -2.0949  -2.0592  -2.0213  -1.9566
    -1.9108  -1.8765  -1.8616  -1.8317  -1.8024  -1.7872  -1.6691  -1.6304
    -1.6158  -1.5833  -1.5108  -1.4960  -1.4756  -1.4541  -1.4157  -1.3913
    -1.3006  -1.2710  -1.2557  -1.2268  -1.1955  -1.1847  -1.1309  -1.1097
    -1.0747  -1.0485  -1.0183  -0.9738  -0.9512  -0.9400  -0.9347  -0.8938
    -0.8853  -0.8568  -0.8319  -0.8067  -0.7926  -0.7499  -0.7215  -0.6928
    -0.6683  -0.6398  -0.6353  -0.6098  -0.5902  -0.5649  -0.5440  -0.5323
    -0.5095  -0.5004  -0.4920  -0.4653  -0.4378  -0.4045  -0.3684  -0.3222
    -0.2961  -0.2431  -0.2122  -0.1774  -0.1377  -0.1142  -0.0201   0.0212
     0.0659   0.1194   0.1349   0.1654   0.1919   0.2185   0.2375   0.2733
     0.3052   0.3331   0.3546   0.3993   0.4189   0.4735   0.5110   0.5480
     0.5877   0.5902   0.6328   0.6721   0.7340   0.7675   0.7840   0.8239
     0.8383   0.8994   0.9192   0.9521   0.9784   1.0225   1.0638   1.0815
     1.1090   1.1304   1.1444   1.1654   1.1845   1.2014   1.2271   1.2800
     1.3486   1.3906   1.4041   1.4912   1.5693   1.6181   1.6810   1.6904
     1.7093   1.7431   1.7976   1.8219   1.8362   1.8605   1.8900   1.9054
     1.9209   1.9402   1.9478   1.9741   1.9905   2.0355   2.0528   2.0847
     2.1145   2.1313   2.1667   2.2187   2.2659   2.3051   2.3456   2.3763
     2.4012   2.4457   2.4679   2.5898   2.5986   2.9176   3.0842   3.1739
     3.3728   3.4696   3.5976   3.6790   4.0125   4.1542   4.4301   4.5154
     4.5787   4.6625   4.8322   5.3117   5.4731   5.7672   5.8364   5.9596
     6.1298   6.3013   6.4743   6.5378   6.6142   6.7161

          k = 0.2000-0.5774 0.0000 ( 87110 PWs)   bands (ev):

   -13.2438  -7.9831  -5.9389  -5.7143  -5.6675  -5.0875  -4.6045  -4.5358
    -4.0473  -3.9674  -3.8561  -3.8288  -3.7304  -3.6877  -3.6489  -3.6118
    -3.5535  -3.5194  -3.4500  -3.4258  -3.3993  -3.3940  -3.3659  -3.3151
    -3.2638  -3.2318  -3.2067  -3.1881  -3.1562  -3.1073  -3.0721  -3.0249
    -2.9404  -2.9207  -2.8824  -2.8261  -2.7910  -2.7843  -2.7482  -2.7235
    -2.5807  -2.5746  -2.5393  -2.4332  -2.3762  -2.3449  -2.3212  -2.2532
    -2.2322  -2.1671  -2.1124  -2.0635  -2.0395  -2.0073  -1.9625  -1.9550
    -1.9487  -1.9110  -1.8707  -1.8126  -1.7946  -1.7829  -1.7427  -1.7329
    -1.7244  -1.6761  -1.6469  -1.6264  -1.5489  -1.4973  -1.4689  -1.4455
    -1.4000  -1.3458  -1.3277  -1.2812  -1.2650  -1.2404  -1.2106  -1.1961
    -1.1443  -1.1151  -1.0918  -1.0534  -1.0380  -1.0055  -0.9888  -0.9091
    -0.8995  -0.8882  -0.8740  -0.8475  -0.7555  -0.7189  -0.7128  -0.6663
    -0.6570  -0.6461  -0.6310  -0.6081  -0.5697  -0.5616  -0.5573  -0.5331
    -0.5222  -0.4928  -0.4662  -0.4581  -0.4333  -0.4218  -0.4080  -0.3823
    -0.3637  -0.2581  -0.2023  -0.1507  -0.1161  -0.0674  -0.0586   0.0123
     0.0203   0.0605   0.0900   0.1002   0.1405   0.1521   0.2031   0.2169
     0.2630   0.2926   0.3019   0.3628   0.4150   0.4215   0.4309   0.5359
     0.5701   0.6075   0.6300   0.6680   0.7203   0.7468   0.7776   0.7914
     0.8358   0.8606   0.8721   0.8978   0.9596   0.9640   0.9813   1.0054
     1.0387   1.0621   1.0841   1.1377   1.1591   1.2306   1.2805   1.3489
     1.3856   1.4189   1.5272   1.5405   1.5484   1.5836   1.6543   1.6772
     1.7181   1.7827   1.7935   1.8406   1.8606   1.8938   1.9144   1.9359
     1.9382   2.0020   2.0338   2.0451   2.0614   2.0694   2.0995   2.1284
     2.1795   2.2295   2.2538   2.2985   2.3135   2.3315   2.3760   2.3893
     2.4777   2.5229   2.6195   3.0798   3.3065   3.4785   3.5423   3.7383
     3.7791   3.8090   3.9988   4.0460   4.3132   4.4079   4.5741   4.6247
     4.7246   4.9898   5.0962   5.1658   5.2628   5.3805   5.4509   5.5463
     5.6376   5.8734   5.9140   6.3299   6.4031   6.5799

          k = 0.2000-0.3464 0.0000 ( 87124 PWs)   bands (ev):

   -13.2442  -7.9837  -6.2560  -5.8976  -5.0468  -5.0213  -4.9776  -4.1883
    -4.1013  -3.9782  -3.9343  -3.9213  -3.8919  -3.8622  -3.8344  -3.7628
    -3.7424  -3.5807  -3.4705  -3.4050  -3.3506  -3.3385  -3.3289  -3.2861
    -3.2311  -3.1833  -3.1378  -3.1160  -3.0804  -3.0289  -2.9973  -2.9852
    -2.9721  -2.9308  -2.8826  -2.8673  -2.8563  -2.8078  -2.7498  -2.6941
    -2.6201  -2.5206  -2.4443  -2.4181  -2.3700  -2.3505  -2.3186  -2.3027
    -2.2597  -2.2221  -2.1427  -2.1252  -2.0945  -2.0588  -2.0213  -1.9565
    -1.9110  -1.8760  -1.8621  -1.8315  -1.8024  -1.7870  -1.6686  -1.6302
    -1.6158  -1.5826  -1.5104  -1.4954  -1.4756  -1.4539  -1.4155  -1.3911
    -1.3006  -1.2711  -1.2565  -1.2268  -1.1955  -1.1848  -1.1311  -1.1102
    -1.0750  -1.0488  -1.0177  -0.9740  -0.9513  -0.9400  -0.9351  -0.8943
    -0.8854  -0.8562  -0.8319  -0.8071  -0.7935  -0.7509  -0.7214  -0.6927
    -0.6681  -0.6402  -0.6349  -0.6099  -0.5906  -0.5649  -0.5443  -0.5318
    -0.5098  -0.5006  -0.4920  -0.4653  -0.4377  -0.4049  -0.3681  -0.3222
    -0.2959  -0.2433  -0.2124  -0.1779  -0.1380  -0.1144  -0.0205   0.0218
     0.0659   0.1192   0.1345   0.1653   0.1917   0.2181   0.2378   0.2738
     0.3051   0.3332   0.3547   0.4002   0.4189   0.4735   0.5107   0.5472
     0.5874   0.5902   0.6327   0.6721   0.7337   0.7674   0.7839   0.8240
     0.8384   0.8991   0.9192   0.9518   0.9782   1.0227   1.0639   1.0816
     1.1090   1.1307   1.1448   1.1656   1.1844   1.2018   1.2271   1.2802
     1.3486   1.3908   1.4039   1.4910   1.5692   1.6184   1.6811   1.6904
     1.7094   1.7430   1.7974   1.8218   1.8365   1.8606   1.8897   1.9054
     1.9207   1.9401   1.9476   1.9738   1.9908   2.0354   2.0526   2.0847
     2.1145   2.1313   2.1668   2.2187   2.2661   2.3057   2.3461   2.3767
     2.4015   2.4460   2.4679   2.5897   2.5986   2.9170   3.0837   3.1736
     3.3727   3.4706   3.5983   3.6796   4.0127   4.1535   4.4298   4.5157
     4.5787   4.6626   4.8327   5.3118   5.4737   5.7673   5.8357   5.9603
     6.1294   6.3002   6.4739   6.5376   6.6148   6.7161

          k = 0.4000-0.2309 0.0000 ( 87100 PWs)   bands (ev):

   -13.2442  -7.9881  -6.1274  -5.8907  -5.4537  -4.8781  -4.4721  -4.4011
    -4.3409  -4.0306  -4.0132  -3.9090  -3.8670  -3.7444  -3.6753  -3.6433
    -3.6165  -3.5247  -3.4754  -3.4500  -3.4281  -3.3451  -3.3226  -3.2863
    -3.2761  -3.2379  -3.2175  -3.1580  -3.1408  -3.0937  -3.0791  -3.0434
    -2.8808  -2.8554  -2.8278  -2.8114  -2.7685  -2.6992  -2.6167  -2.6141
    -2.5894  -2.5616  -2.5035  -2.4584  -2.3616  -2.3505  -2.2992  -2.2663
    -2.2290  -2.1990  -2.1707  -2.1362  -2.1185  -2.0799  -2.0367  -2.0353
    -1.9912  -1.9043  -1.8956  -1.8611  -1.8104  -1.7325  -1.7133  -1.6820
    -1.6660  -1.6235  -1.5478  -1.5029  -1.4822  -1.4442  -1.4125  -1.3616
    -1.3565  -1.3218  -1.2818  -1.2459  -1.2144  -1.1867  -1.1272  -1.1135
    -1.0899  -1.0482  -1.0322  -1.0204  -0.9793  -0.9669  -0.9510  -0.9354
    -0.9304  -0.9076  -0.8908  -0.8683  -0.8261  -0.7898  -0.7769  -0.7577
    -0.7263  -0.6892  -0.6530  -0.6163  -0.6062  -0.5724  -0.5515  -0.5153
    -0.4954  -0.4702  -0.4408  -0.4009  -0.3620  -0.3198  -0.3014  -0.2567
    -0.2349  -0.2122  -0.1598  -0.1133  -0.0769  -0.0405  -0.0026   0.0410
     0.0865   0.0982   0.1195   0.1482   0.1685   0.1974   0.2130   0.2287
     0.2465   0.2633   0.2853   0.3120   0.3469   0.4141   0.4431   0.4683
     0.4902   0.5253   0.5666   0.6241   0.7036   0.7350   0.7782   0.8026
     0.8955   0.9023   0.9384   0.9667   1.0002   1.0332   1.0594   1.0801
     1.1109   1.1272   1.1729   1.2204   1.2308   1.2794   1.3092   1.3200
     1.3444   1.3590   1.4137   1.4785   1.5447   1.5659   1.5669   1.6061
     1.6788   1.6947   1.7248   1.7339   1.7873   1.8051   1.8601   1.8786
     1.8911   1.9114   1.9804   2.0069   2.0463   2.0543   2.0654   2.0759
     2.1243   2.1456   2.2301   2.2827   2.2982   2.3148   2.3340   2.4087
     2.4697   2.5623   2.6540   2.8224   2.9571   3.2050   3.3566   3.3623
     3.5531   3.6348   3.7569   3.9984   4.1548   4.3453   4.4913   4.5903
     4.6579   4.7540   4.8261   5.0365   5.1455   5.3041   5.4405   5.7128
     5.8741   6.1601   6.2392   6.5837   6.7325   6.9116

          k = 0.4000-0.0000 0.0000 ( 87124 PWs)   bands (ev):

   -13.2443  -7.9884  -6.2531  -5.8996  -5.0302  -5.0129  -4.9830  -4.2002
    -4.0822  -3.9676  -3.9323  -3.9310  -3.9230  -3.8641  -3.8369  -3.7629
    -3.7414  -3.6442  -3.4653  -3.3972  -3.3529  -3.3416  -3.3235  -3.2959
    -3.2465  -3.1847  -3.1363  -3.1290  -3.0807  -3.0205  -2.9950  -2.9714
    -2.9611  -2.9245  -2.9146  -2.8761  -2.8498  -2.7945  -2.7303  -2.7011
    -2.5669  -2.4711  -2.4526  -2.3768  -2.3538  -2.3437  -2.3063  -2.2611
    -2.2413  -2.1919  -2.1427  -2.1254  -2.0980  -2.0281  -2.0023  -1.9808
    -1.9485  -1.9065  -1.8688  -1.8316  -1.8113  -1.7918  -1.6469  -1.6095
    -1.5806  -1.5712  -1.5534  -1.4869  -1.4669  -1.4348  -1.4212  -1.3860
    -1.3238  -1.2860  -1.2535  -1.2341  -1.2231  -1.2077  -1.1621  -1.0986
    -1.0868  -1.0378  -1.0196  -0.9624  -0.9561  -0.9334  -0.9128  -0.9015
    -0.8810  -0.8544  -0.8496  -0.8199  -0.8012  -0.7763  -0.7668  -0.7051
    -0.6695  -0.6487  -0.6336  -0.5983  -0.5814  -0.5751  -0.5651  -0.5344
    -0.5073  -0.4945  -0.4799  -0.4613  -0.4313  -0.3974  -0.3795  -0.3228
    -0.3147  -0.2840  -0.2259  -0.1892  -0.1546  -0.0976  -0.0355   0.0145
     0.0617   0.0794   0.1359   0.1438   0.1680   0.2057   0.2537   0.2873
     0.2924   0.3276   0.3700   0.3777   0.4358   0.4921   0.5118   0.5436
     0.5788   0.5906   0.6010   0.6930   0.7291   0.7662   0.8013   0.8152
     0.8489   0.9025   0.9286   0.9431   0.9605   1.0476   1.0678   1.1055
     1.1169   1.1320   1.1473   1.1757   1.1793   1.2162   1.2245   1.2928
     1.3378   1.3908   1.4172   1.4740   1.5463   1.6234   1.6764   1.6919
     1.7200   1.7346   1.7850   1.8187   1.8474   1.8637   1.8852   1.9005
     1.9070   1.9343   1.9465   1.9779   1.9897   2.0399   2.0644   2.0885
     2.1039   2.1376   2.1662   2.1943   2.3026   2.3276   2.3856   2.3882
     2.4065   2.4525   2.5186   2.5652   2.7420   2.7672   3.0735   3.0994
     3.4300   3.6002   3.6464   3.6850   3.8927   4.1787   4.3964   4.4142
     4.5849   4.6147   4.9938   5.3258   5.4373   5.7690   5.8573   6.0410
     6.1389   6.3455   6.4986   6.5488   6.6080   6.6821

          k = 0.4000 0.2309 0.0000 ( 87100 PWs)   bands (ev):

   -13.2442  -7.9882  -6.1271  -5.8902  -5.4540  -4.8784  -4.4725  -4.4009
    -4.3416  -4.0311  -4.0129  -3.9092  -3.8667  -3.7442  -3.6748  -3.6435
    -3.6148  -3.5258  -3.4756  -3.4497  -3.4280  -3.3451  -3.3230  -3.2860
    -3.2764  -3.2374  -3.2173  -3.1581  -3.1409  -3.0925  -3.0787  -3.0430
    -2.8810  -2.8553  -2.8281  -2.8117  -2.7687  -2.6987  -2.6167  -2.6143
    -2.5895  -2.5618  -2.5037  -2.4591  -2.3618  -2.3509  -2.2993  -2.2665
    -2.2291  -2.1990  -2.1712  -2.1361  -2.1186  -2.0796  -2.0369  -2.0356
    -1.9925  -1.9047  -1.8960  -1.8618  -1.8098  -1.7329  -1.7137  -1.6827
    -1.6661  -1.6242  -1.5485  -1.5032  -1.4823  -1.4441  -1.4121  -1.3621
    -1.3563  -1.3213  -1.2811  -1.2454  -1.2141  -1.1851  -1.1270  -1.1142
    -1.0899  -1.0483  -1.0321  -1.0206  -0.9793  -0.9672  -0.9518  -0.9353
    -0.9298  -0.9074  -0.8909  -0.8683  -0.8256  -0.7899  -0.7772  -0.7578
    -0.7257  -0.6898  -0.6535  -0.6159  -0.6061  -0.5717  -0.5512  -0.5144
    -0.4945  -0.4696  -0.4403  -0.4007  -0.3614  -0.3196  -0.3015  -0.2565
    -0.2347  -0.2119  -0.1599  -0.1126  -0.0769  -0.0405  -0.0026   0.0408
     0.0863   0.0980   0.1189   0.1480   0.1681   0.1972   0.2129   0.2289
     0.2466   0.2631   0.2854   0.3118   0.3468   0.4140   0.4437   0.4686
     0.4907   0.5255   0.5673   0.6247   0.7042   0.7354   0.7780   0.8020
     0.8957   0.9020   0.9387   0.9663   1.0006   1.0331   1.0592   1.0802
     1.1107   1.1269   1.1727   1.2202   1.2306   1.2792   1.3092   1.3200
     1.3453   1.3592   1.4139   1.4784   1.5446   1.5658   1.5669   1.6061
     1.6789   1.6947   1.7247   1.7339   1.7875   1.8051   1.8605   1.8784
     1.8916   1.9119   1.9807   2.0070   2.0462   2.0541   2.0649   2.0758
     2.1234   2.1449   2.2294   2.2822   2.2975   2.3142   2.3338   2.4086
     2.4696   2.5623   2.6546   2.8221   2.9570   3.2045   3.3565   3.3624
     3.5537   3.6346   3.7576   3.9981   4.1540   4.3451   4.4901   4.5901
     4.6578   4.7545   4.8264   5.0361   5.1454   5.3040   5.4402   5.7131
     5.8737   6.1608   6.2399   6.5833   6.7333   6.9118

          k = 0.4000-0.6928 0.0000 ( 87110 PWs)   bands (ev):

   -13.2440  -7.9877  -5.9450  -5.7150  -5.6471  -5.1050  -4.5594  -4.5163
    -4.1464  -3.9325  -3.8675  -3.8153  -3.7651  -3.7041  -3.6402  -3.6004
    -3.5442  -3.5262  -3.4902  -3.4196  -3.4088  -3.3829  -3.3586  -3.3416
    -3.2550  -3.2194  -3.2098  -3.1876  -3.1717  -3.1490  -3.0518  -3.0200
    -2.9385  -2.9059  -2.8736  -2.8390  -2.7922  -2.7453  -2.7323  -2.6503
    -2.5955  -2.5404  -2.4993  -2.4318  -2.3859  -2.3514  -2.3050  -2.2438
    -2.2173  -2.1402  -2.1289  -2.0794  -2.0456  -2.0122  -1.9841  -1.9783
    -1.8963  -1.8703  -1.8583  -1.8241  -1.7971  -1.7587  -1.7379  -1.7275
    -1.6970  -1.6746  -1.6485  -1.6018  -1.5734  -1.5249  -1.4821  -1.4427
    -1.4011  -1.3451  -1.3274  -1.2922  -1.2573  -1.2422  -1.2322  -1.2060
    -1.1544  -1.1289  -1.0821  -1.0659  -1.0519  -1.0441  -0.9608  -0.9199
    -0.9097  -0.8917  -0.8732  -0.8308  -0.7806  -0.7327  -0.7153  -0.6834
    -0.6739  -0.6389  -0.6268  -0.6158  -0.5914  -0.5801  -0.5683  -0.5364
    -0.5158  -0.4808  -0.4630  -0.4526  -0.4391  -0.4135  -0.4076  -0.3894
    -0.3782  -0.2793  -0.2316  -0.1505  -0.1262  -0.0788  -0.0277   0.0184
     0.0332   0.0592   0.0991   0.1104   0.1408   0.1613   0.1808   0.2161
     0.2479   0.2756   0.2990   0.3493   0.4173   0.4253   0.4477   0.5118
     0.5387   0.5605   0.6255   0.6691   0.7280   0.7524   0.7748   0.7858
     0.8376   0.8556   0.8695   0.8832   0.9415   0.9678   0.9946   1.0093
     1.0539   1.0735   1.1058   1.1293   1.1836   1.2322   1.2721   1.3502
     1.3873   1.4234   1.5173   1.5461   1.5637   1.6078   1.6625   1.6786
     1.7059   1.7686   1.8066   1.8366   1.8564   1.8781   1.9093   1.9502
     1.9586   2.0112   2.0317   2.0456   2.0679   2.0725   2.1000   2.1157
     2.1771   2.2082   2.2457   2.3080   2.3261   2.3482   2.3832   2.4000
     2.4511   2.5509   2.7042   3.1355   3.2981   3.4856   3.4988   3.7152
     3.7215   3.8194   3.8909   4.1188   4.3515   4.4502   4.5659   4.6178
     4.8458   4.9982   5.0448   5.1822   5.2464   5.3703   5.3913   5.5322
     5.6629   5.8449   5.9995   6.3787   6.4551   6.5693

          k = 0.4000-0.4619 0.0000 ( 87110 PWs)   bands (ev):

   -13.2440  -7.9876  -5.9456  -5.7159  -5.6459  -5.1051  -4.5593  -4.5156
    -4.1467  -3.9326  -3.8690  -3.8137  -3.7648  -3.7044  -3.6400  -3.6004
    -3.5444  -3.5261  -3.4904  -3.4199  -3.4091  -3.3828  -3.3585  -3.3416
    -3.2554  -3.2192  -3.2093  -3.1880  -3.1720  -3.1498  -3.0516  -3.0202
    -2.9384  -2.9058  -2.8736  -2.8392  -2.7922  -2.7452  -2.7324  -2.6502
    -2.5949  -2.5398  -2.4991  -2.4317  -2.3861  -2.3514  -2.3050  -2.2438
    -2.2171  -2.1405  -2.1279  -2.0798  -2.0457  -2.0121  -1.9839  -1.9782
    -1.8956  -1.8700  -1.8583  -1.8239  -1.7971  -1.7585  -1.7378  -1.7267
    -1.6971  -1.6745  -1.6482  -1.6017  -1.5726  -1.5250  -1.4818  -1.4431
    -1.4016  -1.3450  -1.3271  -1.2928  -1.2574  -1.2427  -1.2325  -1.2065
    -1.1545  -1.1289  -1.0815  -1.0662  -1.0520  -1.0441  -0.9609  -0.9201
    -0.9101  -0.8914  -0.8726  -0.8312  -0.7807  -0.7326  -0.7149  -0.6837
    -0.6736  -0.6391  -0.6270  -0.6162  -0.5919  -0.5809  -0.5685  -0.5370
    -0.5172  -0.4796  -0.4627  -0.4526  -0.4392  -0.4128  -0.4075  -0.3893
    -0.3786  -0.2798  -0.2319  -0.1507  -0.1264  -0.0793  -0.0278   0.0184
     0.0336   0.0592   0.0993   0.1103   0.1404   0.1623   0.1810   0.2163
     0.2478   0.2757   0.2988   0.3494   0.4172   0.4252   0.4474   0.5116
     0.5384   0.5604   0.6253   0.6694   0.7285   0.7523   0.7749   0.7857
     0.8376   0.8556   0.8697   0.8832   0.9414   0.9678   0.9948   1.0094
     1.0541   1.0735   1.1055   1.1289   1.1834   1.2320   1.2714   1.3504
     1.3872   1.4232   1.5178   1.5464   1.5640   1.6078   1.6627   1.6788
     1.7060   1.7685   1.8064   1.8364   1.8565   1.8776   1.9091   1.9503
     1.9588   2.0111   2.0318   2.0456   2.0679   2.0726   2.1001   2.1154
     2.1770   2.2082   2.2454   2.3086   2.3270   2.3486   2.3836   2.4001
     2.4512   2.5510   2.7050   3.1343   3.2986   3.4854   3.4988   3.7155
     3.7211   3.8187   3.8908   4.1191   4.3523   4.4506   4.5663   4.6183
     4.8456   4.9982   5.0443   5.1827   5.2484   5.3704   5.3914   5.5314
     5.6628   5.8440   6.0000   6.3787   6.4538   6.5685

     the Fermi energy is     2.1176 ev

!    total energy              =  -27794.68103383 Ry

     total all-electron energy =  -1326796.974640 Ry
     estimated scf accuracy    <       0.00000065 Ry
     smearing contrib. (-TS)   =       0.00231137 Ry
     internal energy E=F+TS    =  -27794.68334520 Ry

     The total energy is F=E-TS. E is the sum of the following terms:
     one-electron contribution =  -25879.76756368 Ry
     hartree contribution      =   13244.65327202 Ry
     xc contribution           =    -901.11907026 Ry
     ewald contribution        =   11228.64063461 Ry
     one-center paw contrib.   =  -25487.09061790 Ry

     convergence has been achieved in  19 iterations

     negative rho (up, down):  1.264E-02 0.000E+00

     Forces acting on atoms (cartesian axes, Ry/au):

     atom    1 type  1   force =     0.00137714   -0.00179093   -0.00477134
     atom    2 type  1   force =     0.00003569   -0.00083157   -0.00428554
     atom    3 type  1   force =    -0.00132645   -0.00181688   -0.00479879
     atom    4 type  1   force =    -0.00082176   -0.00096829   -0.00312479
     atom    5 type  1   force =     0.00086353   -0.00097442   -0.00311744
     atom    6 type  1   force =     0.00004904    0.00201645   -0.00587339
     atom    7 type  1   force =     0.00001169    0.00048526   -0.00304302
     atom    8 type  1   force =     0.00056425   -0.00060497   -0.00466767
     atom    9 type  1   force =    -0.00048584   -0.00061775   -0.00467818
     atom   10 type  1   force =    -0.00272097    0.00220648    0.00238134
     atom   11 type  1   force =     0.00266114    0.00219590    0.00242530
     atom   12 type  1   force =    -0.00005549   -0.00387852    0.00325190
     atom   13 type  1   force =    -0.00004401    0.00153661    0.00970735
     atom   14 type  1   force =     0.00048883   -0.00230640    0.00337284
     atom   15 type  1   force =    -0.00052862   -0.00230237    0.00336567
     atom   16 type  1   force =    -0.00437323    0.00281621    0.00684653
     atom   17 type  1   force =     0.00000499    0.00117475   -0.00020275
     atom   18 type  1   force =     0.00431889    0.00281460    0.00688828
     atom   19 type  1   force =    -0.00031061   -0.00026472   -0.00019488
     atom   20 type  1   force =     0.00003246   -0.00022394   -0.00003185
     atom   21 type  1   force =     0.00031933   -0.00028468   -0.00015391
     atom   22 type  1   force =     0.00018761   -0.00035277   -0.00015971
     atom   23 type  1   force =    -0.00020149   -0.00034296   -0.00017506
     atom   24 type  1   force =     0.00000706   -0.00024549   -0.00030326
     atom   25 type  1   force =    -0.00002054    0.00024170   -0.00006335
     atom   26 type  1   force =    -0.00017512    0.00016407   -0.00025153
     atom   27 type  1   force =     0.00016577    0.00017487   -0.00030288
     atom   28 type  1   force =     0.00006066    0.00045649    0.00058184
     atom   29 type  1   force =     0.00003795   -0.00017724    0.00016388
     atom   30 type  1   force =    -0.00009840    0.00039559    0.00055154
     atom   31 type  1   force =    -0.00016040    0.00038520    0.00018460
     atom   32 type  1   force =     0.00048932    0.00032886    0.00018305
     atom   33 type  1   force =     0.00003606    0.00047371    0.00000423
     atom   34 type  1   force =     0.00002413    0.00006563   -0.00007265
     atom   35 type  1   force =     0.00024052   -0.00013499    0.00045967
     atom   36 type  1   force =    -0.00021388   -0.00010451    0.00047087
     atom   37 type  2   force =    -0.00015091   -0.00027541   -0.00022908
     atom   38 type  2   force =     0.00460064    0.00262501    0.00786813
     atom   39 type  3   force =     0.00054640    0.00017076   -0.00024868
     atom   40 type  3   force =    -0.00543536   -0.00222936   -0.00795726

     Total force =     0.013861     Total SCF correction =     0.001623
     SCF correction compared to forces is large: reduce conv_thr to get better values

     negative rho (up, down):  1.264E-02 0.000E+00

     negative rho (up, down):  1.264E-02 0.000E+00

     negative rho (up, down):  1.264E-02 0.000E+00

     negative rho (up, down):  1.264E-02 0.000E+00

     negative rho (up, down):  1.264E-02 0.000E+00

     negative rho (up, down):  1.264E-02 0.000E+00

     negative rho (up, down):  1.264E-02 0.000E+00

     negative rho (up, down):  1.264E-02 0.000E+00

     negative rho (up, down):  1.264E-02 0.000E+00

     negative rho (up, down):  1.264E-02 0.000E+00

     negative rho (up, down):  1.264E-02 0.000E+00

     negative rho (up, down):  1.264E-02 0.000E+00

     negative rho (up, down):  1.264E-02 0.000E+00

     negative rho (up, down):  1.264E-02 0.000E+00

     negative rho (up, down):  1.264E-02 0.000E+00

     negative rho (up, down):  1.264E-02 0.000E+00

     negative rho (up, down):  1.264E-02 0.000E+00

     negative rho (up, down):  1.264E-02 0.000E+00

     negative rho (up, down):  1.264E-02 0.000E+00

     negative rho (up, down):  1.264E-02 0.000E+00

     negative rho (up, down):  1.264E-02 0.000E+00

     negative rho (up, down):  1.264E-02 0.000E+00

     negative rho (up, down):  1.264E-02 0.000E+00

     negative rho (up, down):  1.264E-02 0.000E+00

     negative rho (up, down):  1.264E-02 0.000E+00

     negative rho (up, down):  1.264E-02 0.000E+00

     negative rho (up, down):  1.264E-02 0.000E+00

     negative rho (up, down):  1.264E-02 0.000E+00

     negative rho (up, down):  1.264E-02 0.000E+00

     negative rho (up, down):  1.264E-02 0.000E+00

     negative rho (up, down):  1.264E-02 0.000E+00

     negative rho (up, down):  1.264E-02 0.000E+00

     negative rho (up, down):  1.264E-02 0.000E+00

     negative rho (up, down):  1.264E-02 0.000E+00
 BEEFens 2000 ensemble energies
             -0.602682887682079E+02
             -0.359769911122365E+01
             -0.157580901712718E+02
              0.426578545159449E+02
             -0.219811296071879E+02
             -0.204352127713268E+02
             -0.349166343442670E+02
             -0.858828638024420E+02
             -0.463055550172825E+02
             -0.470523771652097E+02
             -0.366967272698752E+02
              0.222083376394333E+01
              0.405039862907313E+01
              0.766503454616281E+01
              0.263209361952048E+01
              0.471939075455796E+02
             -0.207657545313558E+02
             -0.229836664514723E+02
              0.191573937307300E+02
             -0.111685187267728E+03
              0.532719777447009E+02
             -0.288661585674612E+02
             -0.330444959166092E+01
             -0.113517843795184E+02
             -0.887003958287232E+01
             -0.462196838880283E+01
              0.877278507591125E+02
             -0.185325945492167E+02
             -0.896131594897304E+01
             -0.514892518487397E+02
              0.811519968474574E+02
             -0.187238975252125E+02
             -0.372441717858961E+02
              0.248217049568013E+02
             -0.282140174793881E+01
              0.162171388811689E+02
             -0.487142059592509E+01
              0.108171432026593E+02
              0.285804698352643E+02
             -0.102662462879995E+03
              0.554864607866745E+02
              0.141556076229612E+02
             -0.162122060350907E+01
             -0.359723241654776E+02
              0.122423721642748E+02
             -0.145385542829504E+02
              0.395225933321914E+02
              0.362666360386442E+02
             -0.307032244645914E+02
             -0.273167112390888E+02
             -0.326510476282793E+02
             -0.349719256530965E+02
              0.134768873807344E+02
             -0.487647048821821E+02
              0.114455782023557E+02
              0.619203672281962E+02
              0.630438387836108E+02
              0.353800953210097E+02
              0.153116492117379E+02
              0.268307348262689E+02
              0.885610411895177E+02
              0.211832919562621E+02
             -0.545118368807434E+02
             -0.156575080915233E+02
             -0.234069948044933E+02
              0.626021107643992E+02
             -0.769034297412861E+02
             -0.668078424834615E+02
             -0.257141448211531E+02
             -0.631922226121003E+01
             -0.468616814721877E+02
              0.268943014851739E+02
              0.793288346420741E+01
              0.857276386558465E+01
             -0.394735620508977E+02
             -0.344611726062603E+02
             -0.538063827797765E+02
              0.388539903139642E+02
             -0.293719935736892E+02
              0.263082139025320E+02
             -0.709181274129896E+01
             -0.316369141847662E+02
             -0.573225296240936E+02
             -0.175798816172566E+02
             -0.895809753388119E+01
             -0.123888997364156E+02
              0.409714487966517E+02
              0.677638091908423E+02
             -0.382637696893214E+02
             -0.789679518387341E+02
             -0.218481647621406E+02
              0.110831043089011E+03
             -0.588806304669663E+02
              0.354266892917743E+02
             -0.949457660444659E+01
             -0.659598283668844E+02
              0.252727988756604E+02
              0.396211845358029E+02
             -0.197863541286750E+02
              0.398541304162939E+02
             -0.294588006235522E+02
             -0.474142539160319E+02
              0.859441852147122E+02
              0.451172586823855E+02
              0.335173862871795E+02
              0.145672981863283E+02
              0.203970908581909E+02
              0.851444585615412E+02
             -0.254999399296800E+02
              0.785572074750222E+01
             -0.141546745586013E+03
              0.180124162059374E+02
             -0.712156785023225E+02
              0.150100501417169E+02
              0.203184462927635E+02
             -0.330458554098796E+02
             -0.554105315504884E+02
              0.653673273451420E+01
             -0.302221853685790E+02
              0.305098531839856E+02
             -0.526963463336091E+02
              0.177078426504397E+01
             -0.354573906664262E+02
             -0.421657533763425E+01
             -0.107451648713896E+01
              0.179538931951112E+02
              0.143380059975584E+01
             -0.648249687102566E+01
              0.586005202762082E+02
              0.902413286622313E+02
              0.481013901230196E+02
              0.826401625169556E+02
             -0.114262332053486E+02
              0.142655021648799E+02
              0.537762477219095E+02
             -0.111300157330628E+02
             -0.730816072021169E+02
             -0.381187293861160E+02
             -0.518630883200491E+02
             -0.274835951434077E+02
              0.325627198017625E+02
             -0.116016453526717E+03
             -0.186394516709012E+02
              0.411102265710383E+02
             -0.383775700351298E+02
             -0.363689872079503E+02
              0.540281468675677E+02
              0.397679153987835E+02
             -0.352113623308280E+02
              0.135386205915390E+02
             -0.271579879152623E+02
              0.340800458678872E+02
              0.442267276417903E+01
              0.210595976019594E+02
             -0.879552356698166E+02
             -0.477169919465832E+02
             -0.989163818727570E+01
              0.325355416127987E+01
             -0.363934572465541E+02
              0.105321586413877E+03
             -0.230167244980853E+02
             -0.396964633375442E+02
              0.386482098178155E+02
             -0.491461530018181E+02
             -0.360903962344158E+02
              0.322778421043099E+02
              0.123708034638081E+02
              0.163767902092129E+02
              0.115427562644122E+02
             -0.132201877240657E+02
              0.224569777965247E+02
              0.586492753535826E+02
             -0.310014160161073E+02
              0.161094408511141E+02
              0.928784136323359E+02
              0.338720198550449E+02
             -0.725774260848823E+01
             -0.187253802179341E+02
              0.152355139121928E+03
             -0.162477603049158E+02
              0.360753797025786E+02
              0.192424961772253E+02
              0.360010551288945E+02
              0.886266001219290E+02
              0.540101036563827E+02
             -0.237142144435671E+01
              0.226100557393296E+02
              0.481647106721463E+02
              0.361053420832577E+02
             -0.521546719134209E+02
              0.930014713435047E+02
             -0.820127912669172E+02
             -0.197540464640460E+02
              0.579341669137380E+02
              0.663542875774437E+01
              0.786810584414354E+01
              0.339219850132763E+02
              0.298201678043146E+02
              0.351524233930240E+02
             -0.633715664678479E+02
              0.285666588598474E+01
             -0.296081201937545E+02
             -0.867458350413335E+01
             -0.143800477508034E+01
             -0.714065608528512E+01
             -0.410557952282937E+01
              0.854038204791313E+02
             -0.100760911485077E+02
             -0.274589392752418E+02
             -0.495933412899812E+01
              0.139064722578321E+02
             -0.559956130076112E+02
             -0.403549156846745E+02
             -0.379940048331745E+02
             -0.626294251098213E+02
             -0.168557376787421E+02
             -0.444946399438389E+02
              0.162187251025849E+02
             -0.241677119613030E+01
             -0.103522681639108E+02
             -0.929166033796258E+01
              0.804794385247737E+01
             -0.242121892952105E+02
              0.685151819214588E+02
             -0.801474220306594E+02
             -0.140177386530454E+02
             -0.173242303098476E+02
              0.180980866975554E+02
              0.212991554639169E+02
             -0.460638833828596E+02
             -0.201255814854801E+02
              0.438036067187915E+02
             -0.274973908096945E+02
              0.186086072154453E+02
              0.380738143128802E+02
             -0.321796341483218E+01
              0.113421799530223E+03
             -0.229558369229451E+02
             -0.338925728889920E+02
              0.577988470031386E+01
             -0.226433259842599E+02
              0.524113731045337E+02
             -0.334118760011766E+02
              0.105681077726400E+02
              0.637468689381449E+02
             -0.125419430372994E+02
              0.119486917043574E+03
              0.125050999811418E+03
             -0.645397452988768E+02
              0.586916843748669E+02
              0.164967281472557E+02
             -0.514124143313381E+02
              0.215198714142560E+02
              0.351021964715806E+02
              0.359643633622881E+02
              0.132466604209247E+01
              0.158557323820127E+02
              0.690821339151560E+02
             -0.245512141542054E+02
              0.180670946248241E+02
              0.734671988787400E+02
             -0.370252732078058E+02
             -0.128030818774461E+02
              0.504748288072800E+02
              0.295474066799620E+02
              0.775590821808422E+02
              0.220461219962711E+02
              0.615480900988609E+01
              0.278829984906067E+02
              0.380556392744670E+02
             -0.468208179481171E+02
              0.325912212716980E+01
              0.127840848352095E+02
              0.112961709830772E+02
              0.218952322211381E+02
             -0.570820039619863E+02
              0.364185637439922E+02
             -0.441203718623996E+02
             -0.345399524896791E+02
              0.176656751799102E+02
             -0.180934598848957E+02
              0.551247909307277E+02
             -0.255382877811525E+02
              0.264860705080492E+02
              0.366448341001535E+02
              0.824360967008174E+02
              0.571337826536525E+02
              0.458408241225609E+02
             -0.105616351002559E+02
             -0.383776774686095E+01
             -0.330110795319092E+02
              0.745382316718308E+02
              0.791979487999682E+02
              0.359338088657335E+02
             -0.190111007531626E+02
              0.508752410035005E+02
             -0.162901690744245E+02
              0.213799314131275E+02
              0.610019785345255E+02
              0.216056080743166E+01
             -0.103735921385141E+02
             -0.281848349373795E+02
             -0.507576146955948E+02
              0.939232359995099E+02
              0.436332289761406E+02
             -0.554966399686259E+02
             -0.949185548671113E+01
              0.248277506270649E+02
             -0.989983639469420E+01
              0.587924121024799E+02
              0.151303334868028E+02
              0.794147575343859E+02
              0.277383526676806E+02
             -0.262633801932809E+02
              0.247930950360440E+02
             -0.497846009522232E+01
             -0.322155312029353E+02
              0.132195632176098E+02
              0.204855029141690E+02
              0.927004313010864E+02
              0.792516487130269E+02
              0.547375393662303E+02
              0.726686652568321E+02
              0.795794192588647E+01
             -0.272111013850235E+02
              0.162340220353694E+02
             -0.365945162217068E+02
             -0.472606257485555E+02
             -0.560016718631441E+02
             -0.264496485276119E+02
             -0.109018143010123E+03
             -0.289018689085205E+02
             -0.831682647767637E+02
              0.208689758725083E+02
             -0.474146434650651E+02
              0.393586826528231E+02
             -0.934983823470559E+02
             -0.328244352262167E+02
              0.546234786779606E+02
              0.206330596906428E+02
             -0.824846916400509E+02
              0.627780986897941E+02
             -0.254954519196729E+02
              0.508936398892487E+02
             -0.240992758038977E+02
             -0.746266212048906E+02
              0.110896672432633E+02
             -0.607085425055047E+02
             -0.168031146510383E+02
             -0.147077560286150E+01
              0.415665146627152E+02
              0.126214807777520E+03
             -0.459066129139831E+02
             -0.360336437792502E+02
             -0.940981822154754E+00
             -0.129724356480477E+02
             -0.817525296005381E+02
             -0.593273416816284E+02
              0.514175009934907E+02
             -0.287863804771999E+02
              0.167843018138448E+02
             -0.486320673358026E+02
             -0.130832800473776E+02
             -0.434707123910626E+02
              0.562527702723843E+02
              0.150451236087586E+02
             -0.230142711939933E+02
             -0.125717430785875E+02
              0.658469120040438E+01
             -0.613873866146196E+01
              0.439010685864531E+02
             -0.250390428821227E+02
              0.268067845356256E+01
              0.337103945218253E+02
              0.170580186741395E+02
             -0.158194110757576E+02
              0.155301281559895E+03
              0.534102332699345E+02
              0.110635096156659E+01
              0.161365580400625E+02
             -0.610836881663223E+02
              0.312932586987325E+02
             -0.716811681540595E+02
             -0.250005188461682E+02
             -0.518911298702808E+02
             -0.218927612330085E+02
              0.565479495827788E+02
             -0.533333459561597E+02
              0.159121343114468E+02
             -0.405783304003273E+01
              0.387143369054388E+01
             -0.431941127432410E+02
             -0.475775884114213E+02
             -0.396760124414845E+01
             -0.422973169481699E+02
             -0.215824535608198E+02
             -0.435909080868335E+02
             -0.118935169608873E+02
             -0.356917560205294E+02
             -0.513422097485918E+02
              0.211398988453978E+02
             -0.208562041212007E+02
              0.186275790415230E+02
              0.969503164176143E+01
             -0.733207269797300E+02
             -0.544926661884586E+02
             -0.394960896322745E+02
              0.352187856722701E+02
              0.274899812224518E+01
             -0.622789894038434E+02
              0.582040508721834E+02
             -0.398486170296601E+02
              0.541069877718066E+02
             -0.287524405260880E+02
             -0.442898493309309E+02
              0.297093872609432E+02
             -0.653148547877930E+02
             -0.377855837823689E+02
              0.669043666183474E+02
              0.202742509485249E+02
             -0.357169711054979E+02
              0.485842634696882E+02
             -0.172896418356892E+02
             -0.320342136426455E+02
             -0.299870559697017E+02
             -0.497425580864486E+02
              0.247722761029445E+02
             -0.927556701206898E+02
             -0.835413881863946E+02
             -0.728422139248016E+01
             -0.305018131944727E+02
             -0.571801510287673E+02
              0.717093626955528E+02
              0.130666598716203E+03
             -0.359591127440220E+02
             -0.253123193670388E+01
             -0.633274114427608E+02
              0.646476052430920E+02
              0.169287017799500E+02
             -0.180127862926364E+02
             -0.407800663337588E+02
              0.147731820288616E+02
             -0.582408685804572E+02
             -0.196918208607509E+02
             -0.899289170394385E+02
              0.334706938041179E+02
              0.168354630416263E+02
              0.187838255225586E+01
             -0.698257706712695E+01
             -0.326843591075881E+02
             -0.750176570648216E+01
              0.124655521220198E+03
             -0.198094380417439E+02
             -0.434222835255145E+02
             -0.679571218354063E+02
              0.108289278731559E+02
             -0.339673723447629E+02
              0.583267235894601E+01
              0.259358827802614E+02
              0.101817322655619E+02
              0.275630245389999E+02
              0.118718647300452E+02
              0.625994931554606E+02
              0.315300718418288E+02
             -0.324226122691440E+02
              0.352074186552638E+02
              0.377412697582914E+02
              0.120119788067738E+02
              0.484626579864988E+02
             -0.222741151407551E+02
              0.761294642660864E+02
              0.170713686712500E+02
             -0.269987560248399E+02
             -0.719380996999026E+01
             -0.185298822475757E+02
              0.260932985390996E+02
             -0.232969784550104E+02
             -0.458250963614830E-01
             -0.840119133523615E+01
              0.804701573021033E+02
              0.496374777442207E+02
             -0.683164043167484E+02
             -0.470487847631074E+01
             -0.552354335632577E+02
             -0.158775269208566E+02
             -0.266909290046122E+02
              0.368159689842332E+01
              0.604892432244101E+00
             -0.255718701976425E+02
              0.802677305293071E+01
             -0.596980648800400E+01
             -0.128114269133290E+02
              0.853558334595586E+02
              0.180939132919867E+02
             -0.801695821983046E+02
             -0.456006307507715E+02
              0.938869028685526E+02
              0.276241279886026E+02
             -0.106333028221447E+02
              0.103862120123530E+03
             -0.193925239625352E+02
             -0.122613783521950E+02
             -0.531843948549135E+01
              0.106339776029028E+02
              0.270274054111097E+02
              0.779259866857592E+01
              0.303616657070397E+02
             -0.187361912620009E+02
             -0.301184380787504E+02
             -0.415284968393665E+02
             -0.473784894104923E+02
              0.461517963360985E+02
              0.125969453072682E+02
              0.385184188084737E+02
              0.132478621406537E+02
              0.849924677176586E+02
              0.155168547852235E+02
             -0.841234628195245E+02
             -0.332371422693031E+02
              0.133619949441600E+02
             -0.301103562365501E+02
              0.622538071423941E+02
             -0.875264266005252E+01
              0.147694641588641E+02
              0.493763216457485E+02
             -0.702275070247315E+02
              0.148811141823804E+03
              0.207460422822886E+02
              0.269912609876243E+02
              0.345208335255530E+02
              0.103405541717796E+02
             -0.156671663723426E+01
              0.356435503063423E+02
             -0.354820282351797E+02
              0.767769779775682E+02
              0.680032022291802E+02
             -0.403469059065055E+02
              0.148368406775054E+02
              0.665612881711305E+02
             -0.222642464114259E+02
              0.153108019821818E+02
              0.433066263946950E+02
              0.419708684792831E+02
             -0.780042953169844E+02
             -0.152291842085430E+02
             -0.354457215005045E+02
             -0.144306598713490E+01
             -0.761004409921262E+01
             -0.549752099596958E+01
             -0.180005072024597E+02
             -0.291731942238046E+02
              0.622759531813284E+01
              0.111381332983376E+02
              0.532276934992348E+02
             -0.387320731816561E+02
              0.371412472456444E+02
              0.435349661338832E+02
             -0.186101082476294E+02
              0.867481137013290E+02
             -0.693682649943200E+02
             -0.102534345505672E+03
             -0.654136306549453E+01
             -0.263342381820212E+01
              0.386885221859256E+01
              0.784549692158668E+02
             -0.106997686384558E+02
              0.413987891349201E+02
              0.439838033230678E+02
              0.382986574194728E+02
             -0.990563584684196E+01
              0.623977389382095E+02
             -0.132591563461842E+02
             -0.304921926813259E+02
             -0.477144995437325E+02
              0.580997907127124E+01
              0.367403217196525E+02
             -0.601786769535042E+01
              0.391005933502296E+02
             -0.176555457189181E+01
              0.651782418669451E+02
              0.186391920388929E+02
              0.993872458129522E+01
             -0.121877824013908E+02
              0.330296191604644E+02
              0.360147068955490E+02
              0.231840652610275E+02
             -0.494641501322207E+00
             -0.547128198707962E+02
              0.258820394874306E+02
              0.173894339073410E+02
              0.400587445357675E+02
              0.270334142003508E+02
              0.370266410480581E+02
             -0.599250983740146E+01
              0.248832408379987E+02
             -0.296879386331389E+02
             -0.195941288564904E+01
             -0.565969364216547E+02
             -0.305911874629131E+02
              0.376104541991829E+02
             -0.930115166623848E+02
              0.292915794476124E+02
              0.183144000498178E+02
              0.834834547568920E+02
             -0.299786894791088E+02
              0.327335337549477E+02
             -0.137144216009533E+02
             -0.460926539913348E+02
             -0.757664425422514E+02
             -0.516093415869821E+01
             -0.854213611773068E+02
              0.199314164105729E+02
             -0.246187027528243E+02
              0.303788051899010E+02
              0.235467621990460E+02
             -0.239208899284186E+02
             -0.263400749961249E+02
              0.388349396800822E+02
             -0.584538607427340E+02
             -0.115790270818096E+02
             -0.195034680791471E+02
              0.210919684931126E+02
             -0.895214750634324E+01
              0.360482040099274E+01
             -0.199659559282217E+02
              0.555440516089348E+02
             -0.435734273147605E+02
              0.782696210601512E+01
              0.581514742206579E+02
             -0.320984655523527E+02
              0.357934354224750E+01
             -0.883789638598057E+01
             -0.665380583211925E+02
             -0.480314833661657E+02
             -0.859960658330903E+01
              0.238847589782641E+02
              0.300213818821907E+02
              0.856233794613757E+01
             -0.407761151267107E+01
              0.150797444516202E+02
             -0.437430743936282E+02
              0.336520222742956E+01
             -0.527852401343895E+02
             -0.323201885189695E+02
              0.471598558648722E+02
             -0.293296423430164E+02
              0.618010440029246E+02
             -0.213144494492433E+02
              0.351664767514420E+02
              0.240114186693275E+02
             -0.640302308315389E+02
             -0.278901708674815E+02
              0.927326407119352E+01
             -0.369117004281996E+02
             -0.337131323828000E+02
             -0.824500018380829E+02
             -0.535882887376210E+02
             -0.507316689799686E+02
             -0.412735570977038E+02
             -0.992868392462157E+00
              0.980918296899281E+01
              0.965080107098743E+00
              0.151469891130454E+02
             -0.545739247487399E+02
              0.140909924172753E+02
              0.254891032054095E+02
             -0.662543171405648E+02
             -0.698458745302646E+02
             -0.428858261198835E+02
             -0.169868451408603E+02
              0.177570433035602E+02
              0.457733128202437E+01
             -0.423397023064169E+02
              0.364552215646578E+02
             -0.214720628867067E+02
              0.514296307482638E+02
             -0.881759212645302E+02
              0.593671185351162E+02
             -0.205158677966816E+01
             -0.365721192395880E+02
             -0.214718336827087E+02
              0.471720766747588E+01
              0.371594462585443E+02
             -0.751880440387011E+02
             -0.120025722988435E+02
             -0.215570109158609E+02
              0.508537017340540E+02
              0.859797319487907E+02
             -0.958987252800296E+02
              0.938380979692442E+02
              0.465374041113448E+02
             -0.720761561931733E+02
             -0.364664872225507E+02
              0.746996883792091E+02
              0.628525183183208E+02
             -0.179701088818908E+02
             -0.459477595151668E+01
              0.720735619880995E+01
              0.644204385031899E+02
             -0.504702076312521E+02
              0.157627629766408E+02
             -0.467223581104550E+01
              0.346182945503870E+02
             -0.742584513397431E+02
             -0.646598539388976E+01
             -0.349411463944746E+02
              0.457667326074285E+02
              0.466407419454852E+02
             -0.856373098879727E+02
             -0.484107369899199E+02
             -0.255005353962833E+02
             -0.336608840357087E+02
             -0.108530892169058E+02
             -0.241716149057087E+02
              0.424565273941213E+02
              0.398464759488279E+02
             -0.564028690082552E+01
             -0.413477836563177E+02
             -0.845143339110707E+02
              0.440081913501134E+02
             -0.520421396543785E+02
             -0.310696081309706E+02
              0.542605452998055E+01
             -0.320225588126060E+02
             -0.395464168301961E+02
             -0.238202300858452E+02
             -0.382147276155513E+02
             -0.269335103330717E+02
             -0.479403612961613E+02
              0.560461031444212E+02
              0.634454159880544E+02
             -0.165477480164247E+01
             -0.259943791058226E+02
             -0.627859785798887E+01
              0.438504545122480E+02
             -0.862594824753941E+02
             -0.144770473511551E+02
              0.520724124205968E+02
              0.659177342437632E+02
             -0.243866469880647E+02
              0.907569342279294E+01
              0.520141518356265E+02
              0.197223536437842E+02
             -0.829725623191536E+01
             -0.450657731771880E+02
              0.279538000596925E+02
             -0.350444926006626E+02
             -0.164179416973420E+02
             -0.151671851381905E+02
             -0.199329774277898E+02
              0.193414692561678E+02
              0.795367181032031E+02
              0.191585968636812E+01
              0.533394861347682E+01
             -0.881733688362788E+02
             -0.174598031749350E+02
             -0.350397135971255E+02
              0.275763396260140E+01
             -0.406818095532221E+02
              0.724932141639391E+02
              0.779442055642733E+02
              0.122941049470047E+02
             -0.140058857425888E+02
              0.142936954065950E+02
              0.259189064721605E+02
             -0.479116190996930E+02
[...]
              0.282201115190636E+02
              0.140956005646147E+03
              0.240279149563420E+02
              0.121418491193581E+02
             -0.461442956444814E+02
             -0.634073082085855E+02
             -0.188125095183167E+02
              0.327668576230910E+02
             -0.423007019018507E+01
              0.188228710164300E+02
              0.333933934919844E+02
             -0.582761512489118E+02
              0.220613585479327E+02
              0.579974457848557E+02
              0.549381769404930E+02
             -0.414245235655329E+01
             -0.140940163119797E+01
             -0.988929561632855E+01
             -0.479463575621373E+02
             -0.670366784509278E+02
              0.780596801057999E+02
             -0.516852541117495E+01
             -0.584429104199519E+02
              0.166222230889412E+01
             -0.203362583402290E+02
              0.932969275422677E+02
             -0.215073696210655E+02
             -0.351216912434600E+02
              0.332869363826534E+02
             -0.144669460553631E+02
              0.386594826664547E+02
             -0.239299730203902E+01
              0.100492872008167E+03
              0.486248574296215E+02
             -0.517955811907512E+01
             -0.319430405075785E+02
              0.230387756762839E+02
             -0.525020249097598E+02
             -0.127617272611805E+02
              0.581648963942861E+02
             -0.286012254890442E+02
             -0.435589259482066E+02
             -0.221748567483805E+02
              0.515504605537647E+02
              0.124070073765951E+02
             -0.843645873770993E+02
              0.301669152070216E+02
              0.151573333388438E+02
              0.569374072230454E+01
             -0.510385367118639E+02
             -0.383169958727433E+01
              0.320937930225739E+02
              0.509869093183900E+02
              0.628334478101699E+02
              0.226777936847680E+02
              0.723387120944579E+00
             -0.494457933050899E+02
             -0.507262675797283E+02
             -0.743751755647399E+02
             -0.604960113866434E+01
              0.306800418512848E+02
             -0.378153132313562E+01
              0.543631457663147E+02
             -0.315868039124530E+02
              0.165467835808498E+02
             -0.101167182612784E+02
             -0.287703245862760E+02
              0.581773866978686E+02
              0.788949665220963E+01
              0.600127765591153E+02
              0.504761244725591E+01
              0.263769646011997E+02
             -0.191697793920637E+02
              0.582253441832178E+02
             -0.110269639012972E+02
             -0.130307148605308E+00
             -0.785143769564116E+02
             -0.127901157914378E+02
              0.714600356087475E+02
              0.669099589614907E+02
              0.250168041468765E+02
             -0.129335618537452E+02
              0.340139179188594E+01
             -0.172017966334901E+02
             -0.193135980683229E+01
              0.901918903643873E+02
              0.120408167509515E+01
             -0.188476206739001E+02
             -0.110068877120147E+03
             -0.549905956286149E+02
             -0.372518069788767E+02
             -0.654595014667614E+02
             -0.551637387316727E+02
             -0.678072570289837E+02
             -0.444140300814061E+02
             -0.409133982143053E+02
             -0.448760690554925E+02
              0.480597498440736E+02
             -0.293142337711828E+02
             -0.990122024827826E+02
              0.416197793827288E+02
             -0.257809430392491E+02
             -0.785752667186182E+02
              0.937440333735505E+02
             -0.218014348358833E+02
              0.227155671338486E+02
              0.452718213509845E+02
             -0.143783591652380E+01
              0.252678272222408E+02
              0.469349440304890E+01
              0.413664587239513E+00
             -0.149696305890804E+02
             -0.710809037133653E+02
              0.132459834152010E+02
             -0.128612292449711E+03
              0.619380741868324E+02
             -0.437954183936744E+02
             -0.161776268890458E+02
             -0.156908896815427E+02
              0.699908947486004E+01
             -0.226732861193613E+02
              0.295346889544711E+02
             -0.516798421516386E+02
              0.364890312553904E+02
              0.367949069475236E+02
              0.167917826573513E+02
              0.998323529079789E+01
              0.196404833080817E+02
              0.614877784608137E+01
              0.308513916851750E+02
             -0.795093941972272E+01
             -0.587330417905843E+02
              0.750807213638876E+01
             -0.150457142043767E+02
             -0.189954903022033E+01
              0.502513671476302E+02
             -0.821698509383328E+02
             -0.151894106801007E+01
              0.552884290676673E+00
              0.989613332806636E+01
              0.316472163477042E+02
             -0.122784461833379E+02
              0.830383278123031E+02
              0.485288649623186E+02
             -0.182320058409644E+02
             -0.951621406058337E+01
              0.102037481994702E+01
              0.764546905997171E+02
             -0.583108804488861E+02
             -0.105113524006051E+03
              0.307290505924372E+02
             -0.162481625275012E+02
             -0.138372204016650E+02
              0.129311336940273E+02
              0.763560688505876E+02
              0.461387003381967E+02
             -0.152380492492015E+02
             -0.499490826902892E+02
             -0.541526558643776E+01
              0.304613127416365E+02
             -0.110388271375771E+02
             -0.750879538380966E+02
             -0.264991625705642E+01
             -0.883530225551251E+02
             -0.472253329166951E+02
              0.762803884089737E+02
             -0.480088428984665E+02
             -0.631795551776193E+02
             -0.510879362638079E+02
             -0.347188482366709E+02
              0.338584912927445E+02
              0.815998665484156E+02
             -0.350305156122698E+01
              0.274863384388132E+02
             -0.182387308208228E+02
             -0.689485038971272E+02
              0.461715828850725E+02
             -0.441775823023966E+02
              0.320176946377638E+02
              0.374356958580913E+02
             -0.645125665209258E+01
              0.388088084835466E+02
              0.435833571587777E+02
              0.998706070270470E+02
             -0.155406459073816E+02
             -0.452356957938025E+02
             -0.608518249844690E+02
             -0.122688077067703E+02
             -0.230208538401399E+02
              0.102412193393335E+03
             -0.446042953149910E+02
              0.104514339822426E+02
              0.970793913287207E+01
             -0.263363648231922E+02
             -0.793038058866011E+02
             -0.694654533598919E+01
              0.973287070825997E+02
              0.923783436346559E+01
              0.804125839105757E+01
             -0.523074517186993E+02
             -0.601889407313763E+02
             -0.551556145673837E+01
              0.497498380517250E+02
             -0.220109350776418E+02
              0.107315141125329E+03
             -0.432301359256746E+02
              0.145034351065031E+02
             -0.223393039833669E+02
             -0.714441152190268E+02
              0.163586562905215E+01
             -0.498039643853972E+02
             -0.755824783209896E+02
              0.607566878137868E+01
              0.235810195432026E+01
              0.510847982009906E+02
              0.185477255517859E+02
             -0.321263225085756E+02
              0.228549121532930E+02
             -0.805014287996176E+02
             -0.518715232915856E+02
              0.895697987671568E+02
              0.142111367383830E+02
             -0.187742016484785E+02
             -0.350724760326818E+02
             -0.268154462528071E+01
             -0.579494155376301E+01
              0.823967664288980E+02
              0.414927230696085E+02
             -0.165555146637503E+02
             -0.121962597893128E+02
             -0.425138982617982E+02
             -0.199786142128700E+02
             -0.665976918293998E+02
              0.456233249333961E+02
              0.541656142183152E+01
              0.144398548823308E+02
              0.154850693815908E+02
             -0.479789208946809E+00
             -0.166928772777338E+02
             -0.314402429537617E+01
             -0.996938173280529E+02
             -0.229098696214944E+02
             -0.757763098362864E+01
             -0.944219051927749E+01
              0.543332795917678E+02
              0.619488568863472E+02
              0.163694472941476E+02
             -0.964435542582368E+02
              0.643419688854593E+02
             -0.213469051064851E+02
             -0.374554000633971E+02
             -0.858404993823130E+02
             -0.385176936567833E+02
              0.560262608900356E+02
              0.241907655720332E+02
              0.502809922695502E+01
              0.289910872680970E+02
             -0.561211947121987E+02
             -0.419031066443349E+02
              0.511181983958680E+02
              0.384503057698290E+02
              0.515813223908016E+02
             -0.127928547680972E+01
              0.677820894894234E+01
              0.565987167836772E+02
              0.956169750855855E+02
             -0.299106886545957E+02
              0.320055015413411E+02
             -0.116472823001823E+02
             -0.409196585314828E+02
             -0.311903565359033E+02
             -0.297853981035111E+02
             -0.130455112685493E+02
             -0.520302503901307E+02
             -0.215976062319686E+02
             -0.140300602220867E+03
              0.366818531910884E+02
              0.205022562496927E+02
             -0.391390776077047E+01
             -0.377483215283212E+02
             -0.202976627630293E+02
             -0.523099889842304E+02
              0.150748888550279E+02
              0.814769458489838E+02
             -0.250998517211690E+02
             -0.161757502208051E+02
              0.236759479654679E+02
             -0.485959602352091E+02
              0.874830674196418E+02
              0.153396752996047E+02
              0.225895028783669E+02
              0.486866575042890E+02
              0.325091089356039E+01
              0.538263826605454E+02
              0.141679848726684E+02
             -0.106424302182139E+02
              0.724023383166303E+01
              0.865743237673996E+00
              0.722904981549572E+02
              0.100545267897036E+02
              0.119060691049432E+02
             -0.129402130805880E+02
              0.131538093559047E+02
             -0.905008380332168E+02
             -0.323398828423580E+02
             -0.454112909447638E+02
              0.481987233472753E+02
             -0.288800454613395E+02
             -0.654774471006008E+02
              0.534397285110240E+02
             -0.121154096997179E+02
              0.437347150877350E+02
             -0.892718020779881E+02
              0.230834634628467E+02
              0.854942396331464E+01
              0.578819081309734E+01
             -0.823984181908168E+01
             -0.899063731701085E+01
              0.476056566034260E+02
              0.198300494785877E+01
             -0.471548493165113E+02
             -0.174718069637057E+02
              0.275392693238517E+02
             -0.117163467952990E+03
             -0.923998869225394E+02
              0.396460364622624E+01
              0.116562623341687E+02
             -0.409808253184083E+02
             -0.388810199503683E+01
              0.111437665568454E+03
              0.304611607271995E+02
             -0.568046070030016E+02
              0.919802513208060E+01
             -0.957720909339281E+01
              0.104721106621020E+02
             -0.335213997797014E+02
              0.193836891641843E+02
              0.283006057583234E+02
             -0.294171699378558E+01
              0.107426122526978E+03
             -0.140006393751970E+02
             -0.313856531698232E+02
              0.140892126522723E+02
              0.463806569346985E+02
             -0.353674181238869E+02
             -0.317123944621811E+01
              0.958257930459754E+02
             -0.464293692412355E+01
              0.618108272685820E+02
              0.134339542580123E+02
             -0.898284480304190E+01
             -0.304294219954286E+02
              0.563377479854962E+02
             -0.510273454900876E+02
             -0.219711011895942E+01
             -0.168739217842723E+02
             -0.402536189497334E+02
              0.184074161411845E+02
              0.237482312198309E+02
              0.116098700252503E+02
              0.737756526393241E+00
             -0.381767316781371E+02
              0.214466540344370E+02
             -0.673914992136162E+01
             -0.245121845788622E+02
             -0.209294583173411E+02
              0.202297551226559E+02
             -0.595580686727988E+01
             -0.346604364643170E+02
             -0.105903121895190E+03
              0.102426758251165E+02
              0.247748859372287E+02
             -0.383940217543218E+02
             -0.209322653212001E+02
              0.801509057641078E+02
              0.642319827474728E+01
              0.307826181682009E+02
              0.383462690978072E+01
              0.319163839895224E+02
              0.643989132811157E+01
             -0.370316106789431E+02
             -0.223435616828661E+01
              0.872907720501576E+01
              0.271711028350440E+02
              0.776960885981340E+02
              0.504221389056930E+02
              0.153625690768365E+00
              0.168186874011371E+02
              0.609158714247087E+02
              0.234019575270319E+02
             -0.748342259185757E+02
             -0.271869913816072E+02
              0.150309997727021E+02
              0.555507670929325E+01
              0.253393825528036E+02
             -0.544429000644967E+02
              0.895736350515135E+01
              0.383058975567142E+02
              0.494825022154551E+02
             -0.432127368083416E+02
             -0.693105355290226E+01
             -0.205925360101253E+01
             -0.132448236926396E+02
             -0.363958702867334E+02
             -0.214467171564172E+02
             -0.193845368468210E+01
              0.785338538866927E+01
              0.418555133020033E+02
             -0.306201988729221E+02
              0.820819302467200E+02
              0.325236387035646E+02
              0.217886984628186E+02
              0.330505170258200E+02
              0.321554273265074E+02
              0.343732280642593E+02
              0.533536175755009E+02
             -0.430731724226011E+02
              0.615420210265291E+02
             -0.111501919257282E+03
              0.305320408876899E+02
             -0.105831502492271E+03
              0.849383423263639E+02
              0.685412905016819E+02
             -0.109333336835239E+02
             -0.490161215536319E+02
             -0.426683931071438E+02
             -0.619993684556993E+02
             -0.624393409955335E+02
              0.548065354712850E+02
              0.402687450023438E+02
              0.235237458048818E+02
              0.372221841853725E+02
              0.400157813447477E+02
             -0.379453180664607E+02
             -0.196896318386805E+02
              0.582949810924868E+02
             -0.115174335893690E+02
              0.548422343607890E+02
              0.694290550210532E+02
             -0.551436215169553E+01
             -0.701309079238533E+02
             -0.945246362127591E+00
             -0.247185461643188E+01
             -0.875605741078778E+01
             -0.181274135771957E+01
             -0.648721165646018E+02
             -0.210296972576721E+02
              0.530155184862276E+01
              0.888765893959814E+01
              0.465566610473264E+02
             -0.394964444160718E+02
              0.654114637531803E+02
             -0.422776462963203E+02
              0.208501378076159E+02
              0.347492299124112E+02
 
 BEEF-vdW xc energy contributions
           1 :   -778.297159952502     
           2 :    715.484742039534     
           3 :   -606.483588451950     
           4 :    477.804116456558     
           5 :   -356.652245175884     
           6 :    262.823914341230     
           7 :   -204.097892836138     
           8 :    176.111078455553     
           9 :   -166.312996982209     
          10 :    160.098280492310     
          11 :   -146.598560714226     
          12 :    121.951037575625     
          13 :   -89.1892397661900     
          14 :    55.3533262333966     
          15 :   -27.4915198471425     
          16 :    9.37576722727056     
          17 :  -0.210679798670299     
          18 :   -4.40666853687208     
          19 :    9.99031815241938     
          20 :   -20.4488043966608     
          21 :    36.3953709912711     
          22 :   -55.1540261122748     
          23 :    72.2908180531081     
          24 :   -83.8307446254630     
          25 :    88.0685816156072     
          26 :   -86.1788875403191     
          27 :    81.4432245260844     
          28 :   -77.5598642913956     
          29 :    76.8855187609952     
          30 :   -79.4423775844026     
          31 :   -85.2670464642943     
          32 :   -65.4558721664337     

     Writing output data file ./pwscf.save/
 
     init_run     :    296.21s CPU    300.71s WALL (       1 calls)
     electrons    :  11471.10s CPU  11596.35s WALL (       1 calls)
     forces       :     93.12s CPU     94.34s WALL (       1 calls)

     Called by init_run:
     wfcinit      :    249.05s CPU    252.55s WALL (       1 calls)
     potinit      :     44.27s CPU     44.60s WALL (       1 calls)
     hinit0       :      1.10s CPU      1.14s WALL (       1 calls)

     Called by electrons:
     c_bands      :   9612.94s CPU   9711.04s WALL (      20 calls)
     sum_band     :   1278.32s CPU   1290.21s WALL (      20 calls)
     v_of_rho     :    102.22s CPU    106.49s WALL (      20 calls)
     newd         :     28.64s CPU     39.78s WALL (      20 calls)
     PAW_pot      :    137.77s CPU    137.78s WALL (      20 calls)
     mix_rho      :    356.20s CPU    356.92s WALL (      20 calls)
     vdW_kernel   :     33.62s CPU     33.62s WALL (       1 calls)

     Called by c_bands:
     init_us_2    :     74.76s CPU     75.12s WALL (     546 calls)
     cegterg      :   8860.98s CPU   8958.63s WALL (     260 calls)

     Called by *egterg:
     cdiaghg      :     94.91s CPU     94.96s WALL (    1403 calls)
     h_psi        :   5511.39s CPU   5545.47s WALL (    1429 calls)
     s_psi        :    991.33s CPU    991.39s WALL (    1429 calls)
     g_psi        :     16.12s CPU     16.13s WALL (    1156 calls)

     Called by h_psi:
     h_psi:calbec :    926.83s CPU    927.04s WALL (    1429 calls)
     vloc_psi     :   3566.57s CPU   3567.64s WALL (    1429 calls)
     add_vuspsi   :    992.08s CPU    992.23s WALL (    1429 calls)

     General routines
     calbec       :   1363.46s CPU   1363.72s WALL (    1741 calls)
     fft          :     44.81s CPU     44.83s WALL (    3220 calls)
     ffts         :    111.24s CPU    111.27s WALL (    8934 calls)
     fftw         :   3700.90s CPU   3701.41s WALL (  331852 calls)
 
     Parallel routines
 
     PWSCF        :      3h19m CPU      3h21m WALL

 
   This run was terminated on:  19: 8:58  20Dec2022            

=------------------------------------------------------------------------------=
   JOB DONE.
=------------------------------------------------------------------------------=
