
     Program PWSCF v.6.7MaX starts on  4Jan2023 at 10:22:33 

     This program is part of the open-source Quantum ESPRESSO suite
     for quantum simulation of materials; please cite
         "P. Giannozzi et al., J. Phys.:Condens. Matter 21 395502 (2009);
         "P. Giannozzi et al., J. Phys.:Condens. Matter 29 465901 (2017);
          URL http://www.quantum-espresso.org", 
     in publications or presentations arising from this work. More details at
     http://www.quantum-espresso.org/quote

     Parallel version (MPI), running on     1 processors

     MPI processes distributed on     1 nodes
     Reading input from chchc-bi-ensemble.in
Warning: card &CELL ignored
Warning: card / ignored

     Current dimensions of program PWSCF are:
     Max number of different atomic species (ntypx) = 10
     Max number of k-points (npk) =  40000
     Max angular momentum in pseudopotentials (lmaxx) =  3
     file Pt.pbe-n-kjpaw_psl.1.0.0.UPF: wavefunction(s)  6S 5D renormalized
     file C.pbe-n-kjpaw_psl.1.0.0.UPF: wavefunction(s)  2S 2P renormalized
     file H.pbe-kjpaw_psl.1.0.0.UPF: wavefunction(s)  1S renormalized

     **************************************************************************
     Initializing libbeef V0.1.2 with the BEEF-vdW functional.
     Citation: Wellendorff et al., PRB 85, 235149 (2012).
     **************************************************************************


     IMPORTANT: XC functional enforced from input :
     Exchange-correlation= BEEF-VDW
                           (   1   4  43  14   2   0   0)
     Any further DFT definition will be discarded
     Please, verify this is what you really want


     Subspace diagonalization in iterative solution of the eigenvalue problem:
     a serial algorithm will be used

 
     G-vector sticks info
     --------------------
     sticks:   dense  smooth     PW     G-vecs:    dense   smooth      PW
     Sum        4267    4267   1159               724797   724797  102235
 


     bravais-lattice index     =            0
     lattice parameter (alat)  =      16.0349  a.u.
     unit-cell volume          =   11539.0070 (a.u.)^3
     number of atoms/cell      =           41
     number of atomic types    =            3
     number of electrons       =       374.00
     number of Kohn-Sham states=          224
     kinetic-energy cutoff     =      60.0000  Ry
     charge density cutoff     =     240.0000  Ry
     scf convergence threshold =      1.0E-06
     mixing beta               =       0.7000
     number of iterations used =            8  local-TF  mixing
     Exchange-correlation= BEEF-VDW
                           (   1   4  43  14   2   0   0)

     celldm(1)=  16.034858  celldm(2)=   0.000000  celldm(3)=   0.000000
     celldm(4)=   0.000000  celldm(5)=   0.000000  celldm(6)=   0.000000

     crystal axes: (cart. coord. in units of alat)
               a(1) = (   1.000000   0.000000   0.000000 )  
               a(2) = (   0.500000   0.866025   0.000000 )  
               a(3) = (   0.000000   0.000000   3.231785 )  

     reciprocal axes: (cart. coord. in units 2 pi/alat)
               b(1) = (  1.000000 -0.577350  0.000000 )  
               b(2) = (  0.000000  1.154701  0.000000 )  
               b(3) = (  0.000000  0.000000  0.309427 )  


     PseudoPot. # 1 for Pt read from file:
     /users/bkreitz1/quantum-espresso/potentials/Pt.pbe-n-kjpaw_psl.1.0.0.UPF
     MD5 check sum: 04dc8a03c51ece93fc7b5889c2958091
     Pseudo is Projector augmented-wave + core cor, Zval = 10.0
     Generated using 'atomic' code by A. Dal Corso  v.6.7MaX
     Shape of augmentation charge: PSQ
     Using radial grid of 1277 points,  6 beta functions with: 
                l(1) =   0
                l(2) =   0
                l(3) =   1
                l(4) =   1
                l(5) =   2
                l(6) =   2
     Q(r) pseudized with 0 coefficients 


     PseudoPot. # 2 for C  read from file:
     /users/bkreitz1/quantum-espresso/potentials/C.pbe-n-kjpaw_psl.1.0.0.UPF
     MD5 check sum: a169b0ebad56f5ec0d79c4633f80bf22
     Pseudo is Projector augmented-wave + core cor, Zval =  4.0
     Generated using 'atomic' code by A. Dal Corso  v.6.7MaX
     Shape of augmentation charge: PSQ
     Using radial grid of 1073 points,  4 beta functions with: 
                l(1) =   0
                l(2) =   0
                l(3) =   1
                l(4) =   1
     Q(r) pseudized with 0 coefficients 


     PseudoPot. # 3 for H  read from file:
     /users/bkreitz1/quantum-espresso/potentials/H.pbe-kjpaw_psl.1.0.0.UPF
     MD5 check sum: ae98473e6dc62675f0d0baffdab24f65
     Pseudo is Projector augmented-wave, Zval =  1.0
     Generated using 'atomic' code by A. Dal Corso  v.6.7MaX
     Shape of augmentation charge: PSQ
     Using radial grid of  929 points,  2 beta functions with: 
                l(1) =   0
                l(2) =   0
     Q(r) pseudized with 0 coefficients 


     atomic species   valence    mass     pseudopotential
        Pt            10.00   195.08400     Pt( 1.00)
        C              4.00    12.01100     C ( 1.00)
        H              1.00     1.00800     H ( 1.00)

     No symmetry found



   Cartesian axes

     site n.     atom                  positions (alat units)
         1           Pt  tau(   1) = (   0.0000000   0.0000000   1.0017346  )
         2           Pt  tau(   2) = (   0.3333333   0.0000000   1.0017346  )
         3           Pt  tau(   3) = (   0.6666667   0.0000000   1.0017346  )
         4           Pt  tau(   4) = (   0.1666667   0.2886751   1.0017346  )
         5           Pt  tau(   5) = (   0.5000000   0.2886751   1.0017346  )
         6           Pt  tau(   6) = (   0.8333333   0.2886751   1.0017346  )
         7           Pt  tau(   7) = (   0.3333333   0.5773503   1.0017346  )
         8           Pt  tau(   8) = (   0.6666667   0.5773503   1.0017346  )
         9           Pt  tau(   9) = (   1.0000000   0.5773503   1.0017346  )
        10           Pt  tau(  10) = (   0.1666667   0.0962250   1.2739001  )
        11           Pt  tau(  11) = (   0.5000000   0.0962250   1.2739001  )
        12           Pt  tau(  12) = (   0.8333333   0.0962250   1.2739001  )
        13           Pt  tau(  13) = (   0.3333333   0.3849002   1.2739001  )
        14           Pt  tau(  14) = (   0.6666667   0.3849002   1.2739001  )
        15           Pt  tau(  15) = (   1.0000000   0.3849002   1.2739001  )
        16           Pt  tau(  16) = (   0.5000000   0.6735753   1.2739001  )
        17           Pt  tau(  17) = (   0.8333333   0.6735753   1.2739001  )
        18           Pt  tau(  18) = (   1.1666667   0.6735753   1.2739001  )
        19           Pt  tau(  19) = (  -0.0043239   0.1916128   1.5441730  )
        20           Pt  tau(  20) = (   0.3338981   0.1920140   1.5461049  )
        21           Pt  tau(  21) = (   0.6641437   0.1926949   1.5496061  )
        22           Pt  tau(  22) = (   0.1656702   0.4793760   1.5419649  )
        23           Pt  tau(  23) = (   0.4997157   0.4777571   1.5493822  )
        24           Pt  tau(  24) = (   0.8313334   0.4793543   1.5455385  )
        25           Pt  tau(  25) = (   0.3315425   0.7680057   1.5416065  )
        26           Pt  tau(  26) = (   0.6644074   0.7656972   1.5442193  )
        27           Pt  tau(  27) = (   0.9986299   0.7686757   1.5419005  )
        28           Pt  tau(  28) = (  -0.0033804  -0.0027812   1.8170060  )
        29           Pt  tau(  29) = (   0.3282120  -0.0051660   1.8153092  )
        30           Pt  tau(  30) = (   0.6646049  -0.0049031   1.8155462  )
        31           Pt  tau(  31) = (   0.1602688   0.2850594   1.8154164  )
        32           Pt  tau(  32) = (   0.4838007   0.2785940   1.8456164  )
        33           Pt  tau(  33) = (   0.8379898   0.2842611   1.8323912  )
        34           Pt  tau(  34) = (   0.3291295   0.5763359   1.8155188  )
        35           Pt  tau(  35) = (   0.6660086   0.5828359   1.8321533  )
        36           Pt  tau(  36) = (   1.0019372   0.5773298   1.8163854  )
        37           C   tau(  37) = (   0.4841683   0.2796682   2.0846793  )
        38           C   tau(  38) = (   0.6185284   0.3567849   2.1201025  )
        39           C   tau(  39) = (   0.6800619   0.3921746   1.9640250  )
        40           H   tau(  40) = (   0.3950782   0.2281586   2.1601498  )
        41           H   tau(  41) = (   0.6716077   0.3867770   2.2337593  )

     number of k points=    13  Marzari-Vanderbilt smearing, width (Ry)=  0.0200
                       cart. coord. in units 2pi/alat
        k(    1) = (   0.0000000   0.0000000   0.0000000), wk =   0.0800000
        k(    2) = (   0.0000000   0.2309401   0.0000000), wk =   0.1600000
        k(    3) = (   0.0000000   0.4618802   0.0000000), wk =   0.1600000
        k(    4) = (   0.2000000  -0.1154701   0.0000000), wk =   0.1600000
        k(    5) = (   0.2000000   0.1154701   0.0000000), wk =   0.1600000
        k(    6) = (   0.2000000   0.3464102   0.0000000), wk =   0.1600000
        k(    7) = (   0.2000000  -0.5773503   0.0000000), wk =   0.1600000
        k(    8) = (   0.2000000  -0.3464102   0.0000000), wk =   0.1600000
        k(    9) = (   0.4000000  -0.2309401   0.0000000), wk =   0.1600000
        k(   10) = (   0.4000000  -0.0000000   0.0000000), wk =   0.1600000
        k(   11) = (   0.4000000   0.2309401   0.0000000), wk =   0.1600000
        k(   12) = (   0.4000000  -0.6928203   0.0000000), wk =   0.1600000
        k(   13) = (   0.4000000  -0.4618802   0.0000000), wk =   0.1600000

     Dense  grid:   724797 G-vectors     FFT dimensions: (  80,  80, 256)

     Estimated max dynamical RAM per process >       8.75 GB

     Check: negative core charge=   -0.000002

     Initial potential from superposition of free atoms

     starting charge  373.99375, renormalised to  374.00000

     negative rho (up, down):  1.158E-02 0.000E+00


     %%%%%%%%%%%%%%%%%%%%%%%%%%%%%%%%%%%%%%%%%%%%%%%%%%%%%%%%%%%%%%%%%%%%%%%%
     %                                                                      %
     % You are using vdW-DF, which was implemented by the Thonhauser group. %
     % Please cite the following two papers that made this development      %
     % possible and the two reviews that describe the various versions:     %
     %                                                                      %
     %   T. Thonhauser et al., PRL 115, 136402 (2015).                      %
     %   T. Thonhauser et al., PRB 76, 125112 (2007).                       %
     %   K. Berland et al., Rep. Prog. Phys. 78, 066501 (2015).             %
     %   D.C. Langreth et al., J. Phys.: Condens. Matter 21, 084203 (2009). %
     %                                                                      %
     %                                                                      %
     % If you are calculating the stress with vdW-DF, please also cite:     %
     %                                                                      %
     %   R. Sabatini et al., J. Phys.: Condens. Matter 24, 424209 (2012).   %
     %                                                                      %
     %%%%%%%%%%%%%%%%%%%%%%%%%%%%%%%%%%%%%%%%%%%%%%%%%%%%%%%%%%%%%%%%%%%%%%%%


     Starting wfcs are  338 randomized atomic wfcs
     Checking if some PAW data can be deallocated... 

     total cpu time spent up to now is      342.7 secs

     Self-consistent Calculation

     iteration #  1     ecut=    60.00 Ry     beta= 0.70
     Davidson diagonalization with overlap
     ethr =  1.00E-02,  avg # of iterations =  2.0

     Threshold (ethr) on eigenvalues was too large:
     Diagonalizing with lowered threshold

     Davidson diagonalization with overlap
     ethr =  9.92E-04,  avg # of iterations =  2.2

     negative rho (up, down):  1.251E-02 0.000E+00

     total cpu time spent up to now is     1578.8 secs

     total energy              =  -27813.12515720 Ry
     estimated scf accuracy    <       3.98555016 Ry

     iteration #  2     ecut=    60.00 Ry     beta= 0.70
     Davidson diagonalization with overlap
     ethr =  1.07E-03,  avg # of iterations =  2.0

     negative rho (up, down):  1.047E-02 0.000E+00

     total cpu time spent up to now is     2179.7 secs

     total energy              =  -27813.44323150 Ry
     estimated scf accuracy    <       1.33528993 Ry

     iteration #  3     ecut=    60.00 Ry     beta= 0.70
     Davidson diagonalization with overlap
     ethr =  3.57E-04,  avg # of iterations =  2.0

     negative rho (up, down):  8.441E-03 0.000E+00

     total cpu time spent up to now is     2778.4 secs

     total energy              =  -27813.52251013 Ry
     estimated scf accuracy    <       0.69377516 Ry

     iteration #  4     ecut=    60.00 Ry     beta= 0.70
     Davidson diagonalization with overlap
     ethr =  1.86E-04,  avg # of iterations =  4.1

     negative rho (up, down):  6.282E-03 0.000E+00

     total cpu time spent up to now is     3416.2 secs

     total energy              =  -27813.56794198 Ry
     estimated scf accuracy    <       0.14593958 Ry

     iteration #  5     ecut=    60.00 Ry     beta= 0.70
     Davidson diagonalization with overlap
     c_bands:  1 eigenvalues not converged
     c_bands:  2 eigenvalues not converged
     c_bands:  3 eigenvalues not converged
     ethr =  3.90E-05,  avg # of iterations = 17.1

     negative rho (up, down):  4.835E-03 0.000E+00

     total cpu time spent up to now is     4419.0 secs

     total energy              =  -27813.59727712 Ry
     estimated scf accuracy    <       0.08786126 Ry

     iteration #  6     ecut=    60.00 Ry     beta= 0.70
     Davidson diagonalization with overlap
     ethr =  2.35E-05,  avg # of iterations =  2.3

     negative rho (up, down):  3.725E-03 0.000E+00

     total cpu time spent up to now is     5021.7 secs

     total energy              =  -27813.60054097 Ry
     estimated scf accuracy    <       0.01310050 Ry

     iteration #  7     ecut=    60.00 Ry     beta= 0.70
     Davidson diagonalization with overlap
     c_bands:  1 eigenvalues not converged
     ethr =  3.50E-06,  avg # of iterations = 15.3

     negative rho (up, down):  3.489E-03 0.000E+00

     total cpu time spent up to now is     5929.1 secs

     total energy              =  -27813.60317426 Ry
     estimated scf accuracy    <       0.00514677 Ry

     iteration #  8     ecut=    60.00 Ry     beta= 0.70
     Davidson diagonalization with overlap
     ethr =  1.38E-06,  avg # of iterations =  2.8

     negative rho (up, down):  3.492E-03 0.000E+00

     total cpu time spent up to now is     6542.1 secs

     total energy              =  -27813.60369554 Ry
     estimated scf accuracy    <       0.00218004 Ry

     iteration #  9     ecut=    60.00 Ry     beta= 0.70
     Davidson diagonalization with overlap
     ethr =  5.83E-07,  avg # of iterations =  2.9

     negative rho (up, down):  3.889E-03 0.000E+00

     total cpu time spent up to now is     7164.2 secs

     total energy              =  -27813.60390173 Ry
     estimated scf accuracy    <       0.00148698 Ry

     iteration # 10     ecut=    60.00 Ry     beta= 0.70
     Davidson diagonalization with overlap
     ethr =  3.98E-07,  avg # of iterations =  5.0

     negative rho (up, down):  4.992E-03 0.000E+00

     total cpu time spent up to now is     7787.0 secs

     total energy              =  -27813.60394140 Ry
     estimated scf accuracy    <       0.00143706 Ry

     iteration # 11     ecut=    60.00 Ry     beta= 0.70
     Davidson diagonalization with overlap
     c_bands:  2 eigenvalues not converged
     c_bands:  2 eigenvalues not converged
     c_bands:  1 eigenvalues not converged
     ethr =  3.84E-07,  avg # of iterations =  7.9

     negative rho (up, down):  7.370E-03 0.000E+00

     total cpu time spent up to now is     8450.7 secs

     total energy              =  -27813.60392151 Ry
     estimated scf accuracy    <       0.00104321 Ry

     iteration # 12     ecut=    60.00 Ry     beta= 0.70
     Davidson diagonalization with overlap
     c_bands:  1 eigenvalues not converged
     ethr =  2.79E-07,  avg # of iterations =  6.0

     negative rho (up, down):  9.380E-03 0.000E+00

     total cpu time spent up to now is     9071.7 secs

     total energy              =  -27813.60392232 Ry
     estimated scf accuracy    <       0.00043784 Ry

     iteration # 13     ecut=    60.00 Ry     beta= 0.70
     Davidson diagonalization with overlap
     ethr =  1.17E-07,  avg # of iterations =  2.0

     negative rho (up, down):  1.111E-02 0.000E+00

     total cpu time spent up to now is     9686.2 secs

     total energy              =  -27813.60396911 Ry
     estimated scf accuracy    <       0.00014953 Ry

     iteration # 14     ecut=    60.00 Ry     beta= 0.70
     Davidson diagonalization with overlap
     ethr =  4.00E-08,  avg # of iterations =  2.7

     negative rho (up, down):  1.086E-02 0.000E+00

     total cpu time spent up to now is    10353.5 secs

     total energy              =  -27813.60400093 Ry
     estimated scf accuracy    <       0.00006823 Ry

     iteration # 15     ecut=    60.00 Ry     beta= 0.70
     Davidson diagonalization with overlap
     ethr =  1.82E-08,  avg # of iterations =  3.8

     negative rho (up, down):  1.198E-02 0.000E+00

     total cpu time spent up to now is    11019.7 secs

     total energy              =  -27813.60401101 Ry
     estimated scf accuracy    <       0.00003307 Ry

     iteration # 16     ecut=    60.00 Ry     beta= 0.70
     Davidson diagonalization with overlap
     ethr =  8.84E-09,  avg # of iterations =  3.5

     negative rho (up, down):  1.230E-02 0.000E+00

     total cpu time spent up to now is    11714.7 secs

     total energy              =  -27813.60401495 Ry
     estimated scf accuracy    <       0.00000462 Ry

     iteration # 17     ecut=    60.00 Ry     beta= 0.70
     Davidson diagonalization with overlap
     ethr =  1.24E-09,  avg # of iterations =  5.3

     negative rho (up, down):  1.259E-02 0.000E+00

     total cpu time spent up to now is    12945.5 secs

     total energy              =  -27813.60401765 Ry
     estimated scf accuracy    <       0.00000772 Ry

     iteration # 18     ecut=    60.00 Ry     beta= 0.70
     Davidson diagonalization with overlap
     ethr =  1.24E-09,  avg # of iterations =  1.2

     negative rho (up, down):  1.268E-02 0.000E+00

     total cpu time spent up to now is    13512.9 secs

     total energy              =  -27813.60401734 Ry
     estimated scf accuracy    <       0.00000395 Ry

     iteration # 19     ecut=    60.00 Ry     beta= 0.70
     Davidson diagonalization with overlap
     ethr =  1.06E-09,  avg # of iterations =  1.0

     negative rho (up, down):  1.290E-02 0.000E+00

     total cpu time spent up to now is    14075.8 secs

     total energy              =  -27813.60401689 Ry
     estimated scf accuracy    <       0.00000150 Ry

     iteration # 20     ecut=    60.00 Ry     beta= 0.70
     Davidson diagonalization with overlap
     ethr =  4.02E-10,  avg # of iterations =  1.0

     negative rho (up, down):  1.306E-02 0.000E+00

     total cpu time spent up to now is    14640.4 secs

     total energy              =  -27813.60401662 Ry
     estimated scf accuracy    <       0.00000106 Ry

     iteration # 21     ecut=    60.00 Ry     beta= 0.70
     Davidson diagonalization with overlap
     ethr =  2.84E-10,  avg # of iterations =  1.1

     negative rho (up, down):  1.305E-02 0.000E+00

     total cpu time spent up to now is    15184.5 secs

     End of self-consistent calculation

          k = 0.0000 0.0000 0.0000 ( 90595 PWs)   bands (ev):

   -14.2824  -9.9721  -7.6465  -6.8046  -6.1235  -5.4973  -4.6549  -4.5800
    -4.4676  -4.4616  -4.4377  -4.4250  -4.4118  -4.3928  -4.2548  -4.1918
    -3.9831  -3.9134  -3.9017  -3.8950  -3.8217  -3.7932  -3.6990  -3.4630
    -3.4601  -3.4291  -3.3260  -3.2841  -3.2685  -3.2559  -3.2333  -3.2099
    -3.1719  -3.1278  -3.1008  -3.0467  -3.0391  -2.9948  -2.9740  -2.9433
    -2.9393  -2.9256  -2.9205  -2.9036  -2.8023  -2.7341  -2.5216  -2.4552
    -2.3944  -2.3930  -2.3740  -2.3624  -2.3447  -2.3007  -2.2993  -2.2370
    -2.1768  -2.1177  -2.1022  -2.0507  -1.9954  -1.7473  -1.7414  -1.6535
    -1.5920  -1.5690  -1.5562  -1.5058  -1.4890  -1.4484  -1.4361  -1.3799
    -1.3740  -1.3598  -1.3558  -1.3501  -1.3347  -1.3165  -1.2890  -1.2784
    -1.2702  -1.2447  -1.2378  -1.2173  -1.2158  -1.1807  -1.1666  -1.1642
    -1.1385  -1.0829  -1.0081  -0.9887  -0.9810  -0.9507  -0.9321  -0.9108
    -0.8977  -0.8752  -0.8700  -0.8334  -0.8263  -0.7764  -0.7234  -0.7120
    -0.7080  -0.6739  -0.6711  -0.6405  -0.6328  -0.5620  -0.5279  -0.5266
    -0.5077  -0.4067  -0.3284  -0.2589  -0.1527  -0.1207  -0.0928  -0.0552
    -0.0441  -0.0294  -0.0127   0.0303   0.1164   0.1303   0.1486   0.1908
     0.2004   0.2102   0.2179   0.2359   0.3106   0.3222   0.3604   0.4290
     0.4635   0.4725   0.5009   0.5301   0.5458   0.6360   0.7076   0.7163
     0.7344   0.7669   0.7710   0.8347   0.8385   0.8571   0.8833   0.8935
     0.9473   0.9822   0.9846   1.0172   1.0796   1.0820   1.1446   1.1535
     1.1648   1.1660   1.1716   1.1740   1.1963   1.2002   1.2181   1.2466
     1.2585   1.2669   1.2831   1.2958   1.3543   1.3576   1.3841   1.3853
     1.3950   1.4329   1.4413   1.4756   1.4930   1.5249   1.5317   1.5355
     1.5377   1.5461   1.5793   1.6080   1.6148   1.6480   1.6523   1.6809
     1.6918   1.8005   1.8277   1.9191   1.9406   1.9453   1.9764   1.9819
     2.0008   2.1197   2.4897   2.5275   2.7290   2.8432   2.8627   2.8738
     3.5916   3.6604   4.5829   4.9413   5.1042   5.1651   5.1818   5.4242
     5.7947   6.0228   6.0400   6.7042   6.7719   6.7874   6.8126   6.8903

          k = 0.0000 0.2309 0.0000 ( 90526 PWs)   bands (ev):

   -14.2822  -9.9701  -7.6308  -6.6696  -6.1091  -5.3786  -4.9798  -4.6298
    -4.5536  -4.4919  -4.3911  -4.3269  -4.2357  -4.2095  -4.1783  -4.0977
    -3.9970  -3.9755  -3.8582  -3.8322  -3.7953  -3.7428  -3.6276  -3.5020
    -3.4239  -3.3809  -3.3707  -3.3139  -3.2952  -3.2679  -3.2127  -3.2078
    -3.1674  -3.1394  -3.1156  -3.0852  -3.0716  -3.0211  -3.0032  -2.9608
    -2.8946  -2.8695  -2.7843  -2.7711  -2.7414  -2.6710  -2.5721  -2.5186
    -2.4794  -2.4518  -2.4255  -2.4100  -2.3810  -2.3286  -2.2287  -2.2031
    -2.1551  -2.1213  -2.1058  -2.0422  -1.9986  -1.8571  -1.8064  -1.7692
    -1.7301  -1.7008  -1.6817  -1.6284  -1.6078  -1.5829  -1.5617  -1.5327
    -1.5131  -1.4695  -1.4344  -1.3887  -1.3829  -1.3662  -1.3392  -1.3034
    -1.2635  -1.2519  -1.2205  -1.1756  -1.1573  -1.1383  -1.1292  -1.1017
    -1.0832  -1.0571  -1.0279  -1.0089  -0.9847  -0.9602  -0.9514  -0.9265
    -0.9134  -0.8710  -0.8553  -0.8267  -0.8203  -0.7906  -0.7710  -0.7564
    -0.7362  -0.7268  -0.7015  -0.6801  -0.6240  -0.5941  -0.5477  -0.5157
    -0.4888  -0.4682  -0.4335  -0.4267  -0.4049  -0.3903  -0.3278  -0.2440
    -0.1713  -0.1141  -0.0661  -0.0421  -0.0205   0.0019   0.0242   0.0565
     0.1390   0.1651   0.2355   0.2645   0.3049   0.3230   0.3550   0.3871
     0.3983   0.4127   0.4208   0.4463   0.5010   0.5804   0.6056   0.6100
     0.6309   0.6673   0.7220   0.7530   0.7783   0.8049   0.8504   0.8704
     0.8969   0.9660   0.9700   0.9790   0.9952   1.0144   1.0574   1.1119
     1.1292   1.1661   1.1804   1.1962   1.2165   1.2656   1.2783   1.3233
     1.3510   1.3887   1.4007   1.4620   1.4741   1.4912   1.5079   1.5298
     1.5392   1.5896   1.6068   1.6168   1.6394   1.6573   1.6871   1.6956
     1.7600   1.7779   1.8249   1.8543   1.8759   1.8953   1.9201   1.9403
     1.9629   1.9751   1.9971   2.0426   2.0718   2.1117   2.1813   2.2331
     2.2657   2.2906   2.4122   2.6324   2.8740   3.0927   3.3673   3.5046
     3.6288   3.8002   4.3986   4.7975   4.9245   5.1641   5.4625   5.5540
     5.6869   5.8991   5.9942   6.0909   6.1630   6.6111   6.7183   6.7750

          k = 0.0000 0.4619 0.0000 ( 90536 PWs)   bands (ev):

   -14.2819  -9.9670  -7.6066  -6.2809  -6.0810  -5.6495  -5.0396  -4.6744
    -4.5862  -4.5059  -4.4026  -4.2496  -4.1715  -4.0482  -3.9463  -3.9180
    -3.8536  -3.8212  -3.7566  -3.6894  -3.6583  -3.6280  -3.5922  -3.5249
    -3.5111  -3.4667  -3.4450  -3.4171  -3.3942  -3.3681  -3.3330  -3.2758
    -3.2597  -3.0908  -3.0584  -3.0449  -3.0168  -2.9844  -2.9472  -2.8764
    -2.8330  -2.7995  -2.7903  -2.7514  -2.7180  -2.6692  -2.5932  -2.5263
    -2.4842  -2.4337  -2.4289  -2.3691  -2.3382  -2.3324  -2.3009  -2.2857
    -2.2290  -2.1855  -2.1273  -2.1110  -2.0752  -2.0085  -1.9516  -1.9140
    -1.8901  -1.8771  -1.8435  -1.8252  -1.7335  -1.6862  -1.6665  -1.6443
    -1.6002  -1.5757  -1.5539  -1.5149  -1.4618  -1.4099  -1.3955  -1.3579
    -1.3219  -1.3125  -1.2846  -1.2427  -1.2189  -1.2075  -1.1818  -1.1570
    -1.1456  -1.1333  -1.1147  -1.1053  -1.0725  -1.0487  -1.0087  -0.9720
    -0.9466  -0.9333  -0.9058  -0.8777  -0.8568  -0.8209  -0.7804  -0.7727
    -0.7568  -0.7179  -0.6740  -0.6633  -0.6397  -0.6017  -0.5697  -0.5386
    -0.4981  -0.4613  -0.4415  -0.4232  -0.3624  -0.3251  -0.2685  -0.2297
    -0.1785  -0.1563  -0.1435  -0.0914  -0.0786  -0.0551  -0.0206  -0.0050
     0.0089   0.0291   0.0419   0.0750   0.1109   0.1471   0.1930   0.2317
     0.2464   0.2616   0.2881   0.3273   0.4168   0.4699   0.5052   0.5518
     0.5815   0.6370   0.6927   0.7192   0.7384   0.7970   0.8158   0.8518
     0.8649   0.8880   0.9152   0.9344   0.9768   1.0045   1.0580   1.0722
     1.1118   1.1262   1.1477   1.1922   1.2184   1.2891   1.3449   1.3586
     1.3743   1.4075   1.4866   1.5231   1.5310   1.5399   1.5711   1.6226
     1.6378   1.6726   1.6902   1.7194   1.7841   1.8197   1.8333   1.8402
     1.8667   1.8852   1.9300   1.9542   2.0457   2.0857   2.0949   2.1192
     2.1412   2.2087   2.3324   2.3652   2.4799   2.6482   2.7525   3.0213
     3.1282   3.1915   3.3645   3.3896   3.5623   3.7455   3.8726   4.0863
     4.2511   4.3812   4.4245   4.5348   4.6036   4.7509   4.8747   4.9597
     5.2312   5.3481   5.5887   5.8324   5.9004   6.2567   6.4350   6.5260

          k = 0.2000-0.1155 0.0000 ( 90526 PWs)   bands (ev):

   -14.2822  -9.9701  -7.6308  -6.6695  -6.1091  -5.3784  -4.9782  -4.6315
    -4.5535  -4.4923  -4.3913  -4.3269  -4.2342  -4.2096  -4.1795  -4.0978
    -3.9980  -3.9763  -3.8575  -3.8314  -3.7935  -3.7424  -3.6284  -3.5024
    -3.4225  -3.3811  -3.3712  -3.3147  -3.2962  -3.2681  -3.2137  -3.2059
    -3.1675  -3.1388  -3.1152  -3.0851  -3.0722  -3.0211  -3.0032  -2.9607
    -2.8939  -2.8692  -2.7851  -2.7724  -2.7410  -2.6714  -2.5725  -2.5198
    -2.4802  -2.4517  -2.4246  -2.4097  -2.3805  -2.3291  -2.2294  -2.2026
    -2.1544  -2.1210  -2.1064  -2.0420  -2.0001  -1.8571  -1.8069  -1.7711
    -1.7311  -1.7025  -1.6825  -1.6282  -1.6069  -1.5813  -1.5614  -1.5347
    -1.5111  -1.4702  -1.4352  -1.3906  -1.3841  -1.3659  -1.3382  -1.2999
    -1.2618  -1.2504  -1.2198  -1.1762  -1.1571  -1.1381  -1.1294  -1.1012
    -1.0838  -1.0554  -1.0274  -1.0092  -0.9835  -0.9610  -0.9521  -0.9282
    -0.9137  -0.8714  -0.8570  -0.8256  -0.8183  -0.7911  -0.7694  -0.7563
    -0.7374  -0.7261  -0.7023  -0.6789  -0.6240  -0.5929  -0.5469  -0.5153
    -0.4895  -0.4692  -0.4340  -0.4270  -0.4059  -0.3908  -0.3270  -0.2445
    -0.1724  -0.1146  -0.0663  -0.0424  -0.0191   0.0023   0.0256   0.0576
     0.1388   0.1657   0.2361   0.2651   0.3065   0.3238   0.3544   0.3888
     0.4017   0.4118   0.4190   0.4470   0.5017   0.5804   0.6043   0.6098
     0.6325   0.6670   0.7224   0.7529   0.7779   0.8039   0.8504   0.8689
     0.8957   0.9649   0.9690   0.9786   0.9950   1.0148   1.0563   1.1111
     1.1290   1.1661   1.1811   1.1960   1.2163   1.2668   1.2784   1.3241
     1.3512   1.3900   1.4020   1.4626   1.4740   1.4910   1.5079   1.5300
     1.5394   1.5891   1.6070   1.6179   1.6385   1.6560   1.6884   1.6971
     1.7603   1.7792   1.8262   1.8528   1.8760   1.8948   1.9188   1.9387
     1.9612   1.9736   1.9963   2.0435   2.0717   2.1114   2.1818   2.2329
     2.2663   2.2894   2.4110   2.6298   2.8749   3.0922   3.3684   3.5050
     3.6298   3.7987   4.3995   4.7982   4.9243   5.1628   5.4620   5.5535
     5.6866   5.8992   5.9941   6.0920   6.1630   6.6127   6.7184   6.7778

          k = 0.2000 0.1155 0.0000 ( 90526 PWs)   bands (ev):

   -14.2821  -9.9713  -7.6293  -6.6706  -6.1180  -5.3702  -4.9321  -4.6757
    -4.5506  -4.5000  -4.3621  -4.3296  -4.2563  -4.1953  -4.1644  -4.1376
    -4.0104  -3.9712  -3.8511  -3.8272  -3.8049  -3.7148  -3.6267  -3.5072
    -3.4111  -3.3804  -3.3793  -3.3060  -3.3016  -3.2713  -3.2180  -3.2153
    -3.1558  -3.1482  -3.1011  -3.0854  -3.0813  -3.0120  -3.0101  -2.9401
    -2.9259  -2.8119  -2.8005  -2.7723  -2.7125  -2.6929  -2.5399  -2.5211
    -2.4849  -2.4495  -2.4432  -2.4005  -2.3733  -2.3262  -2.2877  -2.2308
    -2.1764  -2.1279  -2.0607  -2.0344  -2.0038  -1.8654  -1.7993  -1.7972
    -1.7354  -1.7220  -1.6696  -1.6485  -1.6257  -1.5818  -1.5739  -1.5443
    -1.5015  -1.4367  -1.4213  -1.3969  -1.3697  -1.3649  -1.3216  -1.3201
    -1.2726  -1.2375  -1.2352  -1.1748  -1.1721  -1.1355  -1.1281  -1.1067
    -1.0975  -1.0555  -1.0275  -0.9952  -0.9760  -0.9508  -0.9351  -0.9240
    -0.9019  -0.8968  -0.8753  -0.8318  -0.8160  -0.7773  -0.7699  -0.7486
    -0.7403  -0.7264  -0.6832  -0.6793  -0.6286  -0.5910  -0.5561  -0.4988
    -0.4971  -0.4719  -0.4359  -0.4298  -0.4187  -0.4022  -0.3021  -0.2310
    -0.1344  -0.1342  -0.0804  -0.0653  -0.0221   0.0174   0.0260   0.0483
     0.1442   0.2312   0.2623   0.2648   0.2987   0.3455   0.3591   0.3876
     0.3949   0.4093   0.4265   0.4903   0.4942   0.5810   0.6031   0.6066
     0.6361   0.6594   0.7151   0.7301   0.7960   0.8037   0.8289   0.8612
     0.8992   0.9309   0.9635   0.9660   0.9777   0.9891   1.0652   1.0997
     1.1125   1.1579   1.1746   1.1776   1.2170   1.2491   1.3253   1.3264
     1.3576   1.3912   1.4013   1.4458   1.4826   1.4940   1.5232   1.5310
     1.5452   1.5983   1.6007   1.6116   1.6483   1.6538   1.6873   1.6978
     1.7690   1.7788   1.8218   1.8603   1.8867   1.8881   1.9199   1.9353
     1.9497   1.9808   1.9831   2.0598   2.0680   2.1094   2.1639   2.2138
     2.2653   2.2858   2.5524   2.5552   2.7647   3.1823   3.3491   3.4933
     3.6760   3.7460   4.4727   4.6797   4.9543   5.1068   5.6166   5.6183
     5.7573   5.8174   6.0163   6.1359   6.1932   6.6172   6.6749   6.7276

          k = 0.2000 0.3464 0.0000 ( 90568 PWs)   bands (ev):

   -14.2819  -9.9691  -7.6093  -6.4103  -6.0956  -5.2356  -5.1952  -5.0892
    -4.4799  -4.4072  -4.1855  -4.1282  -4.1179  -4.0890  -4.0569  -4.0308
    -3.9747  -3.9461  -3.9123  -3.8608  -3.6022  -3.5590  -3.5418  -3.5229
    -3.5173  -3.4501  -3.4051  -3.3372  -3.3254  -3.2823  -3.2321  -3.1997
    -3.1923  -3.1645  -3.1280  -3.1072  -3.0658  -3.0444  -3.0238  -2.9789
    -2.9210  -2.8109  -2.7431  -2.7017  -2.6569  -2.5958  -2.5745  -2.5309
    -2.4984  -2.4681  -2.4454  -2.3848  -2.3669  -2.3089  -2.2829  -2.2234
    -2.1826  -2.1507  -2.1008  -2.0851  -2.0334  -2.0102  -1.9393  -1.9257
    -1.8666  -1.8393  -1.7799  -1.7493  -1.7277  -1.6742  -1.6643  -1.6381
    -1.6053  -1.5616  -1.5315  -1.4720  -1.4533  -1.4175  -1.4049  -1.3695
    -1.3583  -1.3096  -1.2644  -1.2393  -1.2013  -1.1691  -1.1566  -1.1363
    -1.1166  -1.0925  -1.0714  -1.0462  -1.0318  -1.0173  -0.9930  -0.9751
    -0.9318  -0.9112  -0.8819  -0.8508  -0.8254  -0.7987  -0.7884  -0.7634
    -0.7458  -0.7274  -0.7110  -0.6996  -0.6811  -0.6380  -0.6126  -0.5749
    -0.5531  -0.5262  -0.4878  -0.4393  -0.4089  -0.3795  -0.3409  -0.2750
    -0.2218  -0.1933  -0.1324  -0.1123  -0.0609  -0.0157  -0.0018   0.0430
     0.0682   0.0845   0.1146   0.1372   0.1753   0.2017   0.2334   0.2584
     0.3336   0.3638   0.3839   0.3991   0.4660   0.5020   0.5381   0.5601
     0.5782   0.6041   0.6588   0.7182   0.7345   0.7664   0.7755   0.8161
     0.8560   0.9016   0.9146   0.9420   0.9504   0.9784   0.9892   1.0105
     1.0248   1.0862   1.1408   1.1809   1.2385   1.2903   1.3692   1.4506
     1.4791   1.5001   1.5147   1.5407   1.5853   1.6256   1.6349   1.6510
     1.6937   1.7038   1.7226   1.7393   1.7526   1.7861   1.7900   1.8372
     1.8640   1.8870   1.9102   1.9368   1.9919   2.0447   2.0713   2.1228
     2.1488   2.1817   2.2296   2.2579   2.3051   2.3815   2.4692   2.7550
     2.8747   2.9875   3.1415   3.3208   3.3543   3.4714   3.7932   3.9386
     4.0555   4.2248   4.3263   4.4322   4.5769   5.0990   5.2667   5.4426
     5.6114   5.7105   5.7943   6.0432   6.1795   6.2837   6.3717   6.4294

          k = 0.2000-0.5774 0.0000 ( 90620 PWs)   bands (ev):

   -14.2818  -9.9666  -7.5990  -6.1175  -5.9093  -5.8296  -5.2739  -4.8078
    -4.6190  -4.3823  -4.3010  -4.1248  -4.0965  -3.9733  -3.9102  -3.8360
    -3.8236  -3.7628  -3.7189  -3.6610  -3.6175  -3.6036  -3.5796  -3.5688
    -3.5389  -3.5066  -3.4602  -3.4166  -3.3853  -3.3738  -3.3506  -3.3036
    -3.2443  -3.1402  -3.1251  -3.0942  -3.0408  -3.0088  -2.9810  -2.9432
    -2.9030  -2.8632  -2.7800  -2.7648  -2.7019  -2.5828  -2.5630  -2.5377
    -2.4819  -2.4461  -2.4038  -2.3446  -2.2691  -2.2443  -2.2277  -2.1919
    -2.1756  -2.1075  -2.0757  -2.0650  -2.0406  -2.0033  -1.9945  -1.9683
    -1.9394  -1.9092  -1.8719  -1.8666  -1.8276  -1.7942  -1.7361  -1.7032
    -1.6735  -1.6322  -1.5681  -1.5384  -1.5227  -1.4809  -1.4612  -1.4479
    -1.4252  -1.3961  -1.3560  -1.3213  -1.2958  -1.2671  -1.2443  -1.2112
    -1.1494  -1.1285  -1.1066  -1.0883  -1.0668  -1.0317  -0.9773  -0.9445
    -0.9085  -0.8886  -0.8672  -0.8361  -0.8116  -0.7969  -0.7879  -0.7718
    -0.7500  -0.7390  -0.6823  -0.6748  -0.6609  -0.6312  -0.6213  -0.6104
    -0.5971  -0.5721  -0.5562  -0.4869  -0.4133  -0.3395  -0.3148  -0.2912
    -0.2261  -0.1759  -0.1508  -0.1200  -0.0870  -0.0731  -0.0423  -0.0222
     0.0029   0.0253   0.0560   0.0857   0.1087   0.1678   0.2156   0.2286
     0.2396   0.3113   0.3674   0.3847   0.4219   0.4609   0.5304   0.5679
     0.5863   0.6101   0.6441   0.6617   0.6714   0.7000   0.7304   0.7719
     0.7915   0.8281   0.8466   0.8780   0.9294   0.9382   0.9937   1.0338
     1.0929   1.1611   1.2202   1.2326   1.3247   1.3565   1.3639   1.4065
     1.4746   1.5003   1.5178   1.5516   1.6064   1.6158   1.6658   1.6896
     1.7084   1.7472   1.7635   1.8140   1.8291   1.8346   1.8642   1.8774
     1.9096   1.9227   1.9851   2.0201   2.0522   2.1062   2.1388   2.1561
     2.1963   2.2111   2.2562   2.3814   2.6348   2.9317   3.0666   3.2473
     3.3088   3.4390   3.5308   3.6190   3.7216   3.8286   4.0812   4.1780
     4.3520   4.4175   4.4747   4.7296   4.8174   4.9057   5.0103   5.0992
     5.1964   5.2894   5.4062   5.6034   5.7212   5.9451   6.2441   6.3067

          k = 0.2000-0.3464 0.0000 ( 90568 PWs)   bands (ev):

   -14.2820  -9.9672  -7.6117  -6.4024  -6.0904  -5.2617  -5.2015  -5.0917
    -4.4847  -4.4116  -4.1721  -4.1300  -4.1123  -4.0855  -4.0591  -4.0161
    -3.9825  -3.9411  -3.9168  -3.8166  -3.6381  -3.5809  -3.5390  -3.5336
    -3.4990  -3.4424  -3.4179  -3.3444  -3.3291  -3.2714  -3.2174  -3.2037
    -3.1997  -3.1520  -3.1372  -3.0908  -3.0668  -3.0492  -3.0408  -2.9947
    -2.9222  -2.9034  -2.7745  -2.6872  -2.6255  -2.5988  -2.5525  -2.5118
    -2.4858  -2.4703  -2.4296  -2.3887  -2.3260  -2.2936  -2.2660  -2.2186
    -2.1877  -2.1512  -2.1437  -2.0740  -2.0494  -2.0094  -1.9420  -1.8757
    -1.8404  -1.8176  -1.8076  -1.7630  -1.7042  -1.6625  -1.6463  -1.6262
    -1.6077  -1.5402  -1.4919  -1.4730  -1.4538  -1.4396  -1.4100  -1.3962
    -1.3463  -1.3008  -1.2752  -1.2560  -1.2160  -1.1783  -1.1500  -1.1442
    -1.1154  -1.0911  -1.0838  -1.0606  -1.0199  -1.0105  -0.9986  -0.9621
    -0.9446  -0.8899  -0.8775  -0.8574  -0.8409  -0.8152  -0.7920  -0.7755
    -0.7538  -0.7361  -0.7029  -0.6889  -0.6853  -0.6367  -0.6115  -0.5908
    -0.5353  -0.5186  -0.4835  -0.4342  -0.4114  -0.3854  -0.3246  -0.3031
    -0.2426  -0.1723  -0.1312  -0.1107  -0.0824  -0.0479   0.0018   0.0232
     0.0522   0.0682   0.1044   0.1293   0.1370   0.1948   0.2340   0.2604
     0.3390   0.3749   0.3882   0.4209   0.4574   0.5233   0.5498   0.5613
     0.5979   0.6009   0.6276   0.6662   0.7130   0.7532   0.8172   0.8405
     0.8807   0.9227   0.9409   0.9484   0.9580   0.9838   1.0086   1.0240
     1.0391   1.1172   1.1528   1.1872   1.2346   1.2938   1.3337   1.4388
     1.4729   1.4929   1.5119   1.5289   1.5886   1.6338   1.6431   1.6596
     1.6853   1.6909   1.7203   1.7434   1.7559   1.7759   1.7983   1.8380
     1.8579   1.8703   1.9011   1.9433   1.9924   2.0306   2.1077   2.1481
     2.1618   2.1861   2.2084   2.2649   2.3295   2.3710   2.4735   2.6311
     2.9427   2.9879   3.1497   3.2888   3.4512   3.4811   3.7272   3.9112
     4.1784   4.3232   4.3428   4.4345   4.5510   4.8935   4.9810   5.4642
     5.6064   5.8112   5.8929   5.9615   6.1708   6.3093   6.3770   6.4088

          k = 0.4000-0.2309 0.0000 ( 90536 PWs)   bands (ev):

   -14.2819  -9.9670  -7.6066  -6.2806  -6.0809  -5.6488  -5.0393  -4.6751
    -4.5867  -4.5061  -4.4029  -4.2480  -4.1706  -4.0486  -3.9465  -3.9181
    -3.8555  -3.8215  -3.7552  -3.6881  -3.6578  -3.6271  -3.5918  -3.5248
    -3.5107  -3.4673  -3.4455  -3.4166  -3.3930  -3.3674  -3.3335  -3.2769
    -3.2606  -3.0918  -3.0588  -3.0450  -3.0179  -2.9853  -2.9485  -2.8763
    -2.8339  -2.7998  -2.7911  -2.7512  -2.7182  -2.6700  -2.5935  -2.5256
    -2.4855  -2.4326  -2.4284  -2.3685  -2.3371  -2.3319  -2.3009  -2.2859
    -2.2299  -2.1852  -2.1284  -2.1124  -2.0771  -2.0095  -1.9532  -1.9156
    -1.8935  -1.8793  -1.8453  -1.8249  -1.7330  -1.6866  -1.6654  -1.6441
    -1.5977  -1.5738  -1.5544  -1.5172  -1.4596  -1.4060  -1.3912  -1.3583
    -1.3216  -1.3109  -1.2839  -1.2423  -1.2199  -1.2085  -1.1826  -1.1589
    -1.1457  -1.1322  -1.1138  -1.1041  -1.0719  -1.0480  -1.0078  -0.9716
    -0.9468  -0.9330  -0.9043  -0.8782  -0.8576  -0.8212  -0.7794  -0.7725
    -0.7573  -0.7163  -0.6721  -0.6628  -0.6394  -0.6028  -0.5701  -0.5403
    -0.4990  -0.4622  -0.4417  -0.4243  -0.3626  -0.3249  -0.2700  -0.2305
    -0.1781  -0.1560  -0.1436  -0.0918  -0.0788  -0.0548  -0.0192  -0.0035
     0.0100   0.0310   0.0423   0.0778   0.1102   0.1478   0.1940   0.2328
     0.2457   0.2641   0.2895   0.3288   0.4177   0.4712   0.5058   0.5522
     0.5813   0.6360   0.6916   0.7174   0.7382   0.7974   0.8144   0.8504
     0.8629   0.8883   0.9142   0.9331   0.9753   1.0039   1.0565   1.0721
     1.1119   1.1255   1.1479   1.1926   1.2192   1.2903   1.3448   1.3597
     1.3751   1.4092   1.4875   1.5239   1.5312   1.5406   1.5714   1.6235
     1.6390   1.6731   1.6921   1.7211   1.7844   1.8194   1.8342   1.8394
     1.8657   1.8863   1.9275   1.9513   2.0447   2.0842   2.0924   2.1195
     2.1391   2.2087   2.3315   2.3652   2.4785   2.6463   2.7533   3.0234
     3.1290   3.1917   3.3644   3.3896   3.5595   3.7460   3.8708   4.0847
     4.2514   4.3819   4.4247   4.5339   4.6045   4.7500   4.8738   4.9603
     5.2295   5.3478   5.5863   5.8346   5.9017   6.2565   6.4344   6.5257

          k = 0.4000-0.0000 0.0000 ( 90568 PWs)   bands (ev):

   -14.2819  -9.9691  -7.6093  -6.4101  -6.0955  -5.2349  -5.1950  -5.0891
    -4.4803  -4.4070  -4.1857  -4.1268  -4.1179  -4.0899  -4.0567  -4.0332
    -3.9751  -3.9459  -3.9124  -3.8614  -3.6006  -3.5561  -3.5418  -3.5229
    -3.5160  -3.4502  -3.4050  -3.3369  -3.3251  -3.2844  -3.2328  -3.2003
    -3.1938  -3.1660  -3.1278  -3.1067  -3.0664  -3.0443  -3.0240  -2.9799
    -2.9185  -2.8101  -2.7424  -2.7018  -2.6569  -2.5965  -2.5752  -2.5310
    -2.4999  -2.4681  -2.4451  -2.3857  -2.3662  -2.3087  -2.2833  -2.2243
    -2.1833  -2.1514  -2.1003  -2.0865  -2.0327  -2.0104  -1.9390  -1.9265
    -1.8682  -1.8407  -1.7809  -1.7503  -1.7290  -1.6743  -1.6663  -1.6396
    -1.6042  -1.5629  -1.5320  -1.4704  -1.4521  -1.4169  -1.4037  -1.3674
    -1.3571  -1.3078  -1.2653  -1.2370  -1.1999  -1.1695  -1.1573  -1.1368
    -1.1147  -1.0929  -1.0719  -1.0460  -1.0302  -1.0153  -0.9919  -0.9751
    -0.9317  -0.9101  -0.8813  -0.8504  -0.8255  -0.7998  -0.7886  -0.7640
    -0.7455  -0.7284  -0.7118  -0.7008  -0.6833  -0.6386  -0.6119  -0.5757
    -0.5523  -0.5261  -0.4882  -0.4383  -0.4079  -0.3797  -0.3409  -0.2737
    -0.2207  -0.1930  -0.1311  -0.1120  -0.0615  -0.0143  -0.0019   0.0430
     0.0684   0.0851   0.1156   0.1382   0.1749   0.2000   0.2335   0.2582
     0.3349   0.3655   0.3856   0.3993   0.4653   0.5021   0.5387   0.5600
     0.5777   0.6040   0.6588   0.7187   0.7360   0.7664   0.7749   0.8142
     0.8551   0.9007   0.9134   0.9415   0.9493   0.9773   0.9868   1.0097
     1.0245   1.0856   1.1403   1.1816   1.2399   1.2916   1.3695   1.4504
     1.4796   1.4996   1.5145   1.5411   1.5859   1.6254   1.6344   1.6513
     1.6946   1.7031   1.7237   1.7400   1.7534   1.7868   1.7897   1.8386
     1.8639   1.8886   1.9117   1.9369   1.9924   2.0437   2.0701   2.1206
     2.1463   2.1791   2.2277   2.2581   2.3053   2.3821   2.4714   2.7556
     2.8745   2.9873   3.1427   3.3203   3.3531   3.4687   3.7910   3.9380
     4.0556   4.2259   4.3255   4.4325   4.5776   5.1005   5.2661   5.4421
     5.6100   5.7085   5.7945   6.0447   6.1790   6.2853   6.3709   6.4285

          k = 0.4000 0.2309 0.0000 ( 90536 PWs)   bands (ev):

   -14.2818  -9.9701  -7.6028  -6.3018  -6.0885  -5.6155  -5.0018  -4.6870
    -4.5896  -4.4916  -4.3800  -4.2756  -4.1985  -4.0625  -3.9532  -3.9167
    -3.8590  -3.8405  -3.7332  -3.6780  -3.6612  -3.6293  -3.5718  -3.5365
    -3.4868  -3.4636  -3.4626  -3.4048  -3.3847  -3.3721  -3.3350  -3.2769
    -3.2642  -3.0960  -3.0743  -3.0239  -3.0220  -2.9661  -2.9552  -2.8418
    -2.8262  -2.7918  -2.7743  -2.7673  -2.6788  -2.6505  -2.6010  -2.5292
    -2.5156  -2.4702  -2.4469  -2.3975  -2.3491  -2.3191  -2.2952  -2.2541
    -2.2501  -2.1747  -2.1314  -2.1299  -2.0687  -2.0668  -1.9655  -1.9255
    -1.9169  -1.8671  -1.8232  -1.7709  -1.7608  -1.7113  -1.6815  -1.6411
    -1.6031  -1.5832  -1.5471  -1.5251  -1.5001  -1.4017  -1.3836  -1.3602
    -1.3394  -1.3090  -1.2636  -1.2457  -1.2442  -1.2124  -1.1841  -1.1444
    -1.1422  -1.1339  -1.0974  -1.0940  -1.0751  -1.0256  -0.9952  -0.9831
    -0.9543  -0.9403  -0.9310  -0.8706  -0.8690  -0.8219  -0.8023  -0.7531
    -0.7428  -0.7212  -0.6859  -0.6712  -0.6277  -0.6181  -0.5327  -0.5289
    -0.4989  -0.4528  -0.4345  -0.4159  -0.3458  -0.3046  -0.2795  -0.2187
    -0.2092  -0.1406  -0.1351  -0.1254  -0.0622  -0.0599  -0.0479  -0.0059
     0.0239   0.0382   0.0631   0.1039   0.1295   0.1527   0.2012   0.2399
     0.2450   0.2809   0.3121   0.3629   0.3870   0.4910   0.5342   0.5405
     0.6123   0.6238   0.6759   0.7034   0.7076   0.8058   0.8339   0.8446
     0.8588   0.8782   0.8966   0.9325   0.9446   1.0002   1.0363   1.0829
     1.0897   1.1373   1.1467   1.1837   1.1999   1.3197   1.3345   1.3576
     1.3737   1.4065   1.4957   1.5231   1.5298   1.5523   1.5879   1.6239
     1.6582   1.6748   1.6842   1.7295   1.7912   1.7956   1.8162   1.8452
     1.8575   1.8799   1.9153   1.9429   2.0368   2.0744   2.1058   2.1163
     2.1250   2.2176   2.3254   2.3643   2.5539   2.5996   2.6602   3.0429
     3.1397   3.1854   3.3656   3.3766   3.6356   3.6476   3.8179   4.0536
     4.2766   4.3990   4.4652   4.5543   4.6180   4.7579   4.8535   5.0789
     5.1626   5.4026   5.5969   6.0681   6.0846   6.1862   6.4485   6.4851

          k = 0.4000-0.6928 0.0000 ( 90620 PWs)   bands (ev):

   -14.2817  -9.9685  -7.5966  -6.1588  -5.8812  -5.8053  -5.2952  -4.7283
    -4.6379  -4.3964  -4.3587  -4.0940  -4.0564  -3.9792  -3.9321  -3.8383
    -3.8212  -3.7976  -3.7206  -3.6978  -3.6127  -3.5927  -3.5844  -3.5633
    -3.5202  -3.4917  -3.4473  -3.4068  -3.3890  -3.3686  -3.3556  -3.3103
    -3.2525  -3.1333  -3.1172  -3.0643  -3.0350  -3.0010  -2.9722  -2.9498
    -2.9307  -2.8706  -2.7946  -2.7161  -2.6664  -2.6154  -2.5704  -2.5422
    -2.4869  -2.4437  -2.4155  -2.3817  -2.2665  -2.2370  -2.2329  -2.1839
    -2.1596  -2.1412  -2.0803  -2.0665  -2.0444  -2.0201  -1.9993  -1.9554
    -1.9440  -1.9078  -1.8730  -1.8422  -1.8228  -1.7602  -1.7446  -1.7122
    -1.6860  -1.6490  -1.6435  -1.5889  -1.5238  -1.4961  -1.4610  -1.4155
    -1.4093  -1.3892  -1.3277  -1.3249  -1.3072  -1.2596  -1.2490  -1.1788
    -1.1418  -1.1251  -1.1097  -1.0945  -1.0674  -1.0346  -0.9928  -0.9339
    -0.9104  -0.8998  -0.8528  -0.8304  -0.8208  -0.7979  -0.7824  -0.7642
    -0.7473  -0.7224  -0.7087  -0.6903  -0.6542  -0.6325  -0.6273  -0.6186
    -0.6077  -0.5869  -0.5037  -0.4894  -0.3692  -0.3203  -0.3072  -0.2686
    -0.1997  -0.1886  -0.1750  -0.1437  -0.0822  -0.0703  -0.0449  -0.0379
    -0.0020   0.0245   0.0599   0.1003   0.1207   0.1922   0.1964   0.2249
     0.2422   0.3068   0.3419   0.3784   0.4096   0.4987   0.5386   0.5581
     0.5914   0.6256   0.6377   0.6568   0.6844   0.7226   0.7406   0.7780
     0.8074   0.8264   0.8590   0.8660   0.9106   0.9381   0.9779   1.0285
     1.0770   1.1556   1.1973   1.2732   1.2827   1.3312   1.3597   1.4124
     1.4671   1.4988   1.5428   1.5715   1.6074   1.6271   1.6523   1.6882
     1.7117   1.7354   1.7639   1.8099   1.8329   1.8414   1.8546   1.8634
     1.9108   1.9306   1.9817   2.0204   2.0766   2.0970   2.1343   2.1439
     2.1890   2.2044   2.2486   2.3895   2.5942   2.9515   3.1116   3.2552
     3.3158   3.3818   3.5355   3.5700   3.7192   3.8519   4.0195   4.1424
     4.3163   4.3740   4.6394   4.8039   4.8218   4.8869   4.9957   5.1112
     5.1985   5.3608   5.4842   5.6519   5.6738   5.9793   6.2143   6.3065

          k = 0.4000-0.4619 0.0000 ( 90620 PWs)   bands (ev):

   -14.2818  -9.9666  -7.5990  -6.1173  -5.9085  -5.8298  -5.2745  -4.8069
    -4.6195  -4.3828  -4.3011  -4.1235  -4.0951  -3.9740  -3.9107  -3.8376
    -3.8237  -3.7624  -3.7185  -3.6606  -3.6173  -3.6033  -3.5801  -3.5686
    -3.5387  -3.5067  -3.4602  -3.4169  -3.3856  -3.3731  -3.3497  -3.3031
    -3.2449  -3.1411  -3.1261  -3.0943  -3.0414  -3.0092  -2.9815  -2.9428
    -2.9028  -2.8644  -2.7807  -2.7658  -2.7030  -2.5814  -2.5627  -2.5374
    -2.4819  -2.4460  -2.4033  -2.3442  -2.2668  -2.2434  -2.2265  -2.1930
    -2.1766  -2.1108  -2.0775  -2.0653  -2.0433  -2.0045  -1.9953  -1.9681
    -1.9405  -1.9091  -1.8729  -1.8662  -1.8277  -1.7935  -1.7364  -1.7035
    -1.6749  -1.6323  -1.5665  -1.5389  -1.5225  -1.4804  -1.4584  -1.4463
    -1.4237  -1.3930  -1.3555  -1.3207  -1.2955  -1.2682  -1.2443  -1.2126
    -1.1507  -1.1293  -1.1056  -1.0875  -1.0657  -1.0309  -0.9752  -0.9460
    -0.9105  -0.8907  -0.8668  -0.8355  -0.8106  -0.7951  -0.7864  -0.7704
    -0.7482  -0.7389  -0.6856  -0.6744  -0.6617  -0.6317  -0.6222  -0.6107
    -0.5974  -0.5709  -0.5567  -0.4885  -0.4126  -0.3387  -0.3136  -0.2909
    -0.2270  -0.1756  -0.1495  -0.1194  -0.0865  -0.0716  -0.0432  -0.0236
     0.0028   0.0249   0.0559   0.0861   0.1096   0.1691   0.2157   0.2295
     0.2395   0.3111   0.3690   0.3850   0.4215   0.4619   0.5303   0.5677
     0.5854   0.6098   0.6445   0.6616   0.6698   0.7003   0.7300   0.7720
     0.7905   0.8283   0.8462   0.8777   0.9281   0.9380   0.9923   1.0341
     1.0927   1.1625   1.2213   1.2335   1.3240   1.3563   1.3647   1.4065
     1.4746   1.4999   1.5176   1.5517   1.6070   1.6161   1.6654   1.6904
     1.7094   1.7468   1.7644   1.8149   1.8291   1.8345   1.8641   1.8765
     1.9099   1.9253   1.9854   2.0209   2.0513   2.1047   2.1357   2.1555
     2.1943   2.2096   2.2556   2.3814   2.6367   2.9308   3.0677   3.2464
     3.3085   3.4384   3.5314   3.6200   3.7197   3.8299   4.0817   4.1805
     4.3499   4.4173   4.4743   4.7286   4.8163   4.9066   5.0052   5.0964
     5.1957   5.2910   5.4077   5.6046   5.7197   5.9451   6.2461   6.3070

     the Fermi energy is     1.9221 ev

!    total energy              =  -27813.60401633 Ry

     total all-electron energy =  -1326873.661720 Ry
     estimated scf accuracy    <       0.00000046 Ry
     smearing contrib. (-TS)   =       0.00478698 Ry
     internal energy E=F+TS    =  -27813.60880331 Ry

     The total energy is F=E-TS. E is the sum of the following terms:
     one-electron contribution =  -28071.96606811 Ry
     hartree contribution      =   14339.52590978 Ry
     xc contribution           =    -905.86284948 Ry
     ewald contribution        =   12318.34954913 Ry
     one-center paw contrib.   =  -25493.65534462 Ry

     convergence has been achieved in  21 iterations

     negative rho (up, down):  1.305E-02 0.000E+00

     Forces acting on atoms (cartesian axes, Ry/au):

     atom    1 type  1   force =     0.00003022    0.00006022   -0.00656172
     atom    2 type  1   force =     0.00084265   -0.00068285   -0.00442079
     atom    3 type  1   force =     0.00084735    0.00047212   -0.00415442
     atom    4 type  1   force =    -0.00023098    0.00121846   -0.00438646
     atom    5 type  1   force =     0.00025636    0.00024794   -0.00327749
     atom    6 type  1   force =     0.00102899   -0.00032193   -0.00360464
     atom    7 type  1   force =     0.00071919    0.00064194   -0.00417255
     atom    8 type  1   force =     0.00014206    0.00122681   -0.00363449
     atom    9 type  1   force =     0.00010197    0.00014467   -0.00394356
     atom   10 type  1   force =     0.00032292    0.00002738   -0.00597147
     atom   11 type  1   force =    -0.00122589    0.00233186    0.00733933
     atom   12 type  1   force =     0.00063379    0.00062186    0.00320191
     atom   13 type  1   force =     0.00158976   -0.00270565    0.00721677
     atom   14 type  1   force =    -0.00278190   -0.00201044    0.01460194
     atom   15 type  1   force =    -0.00063333   -0.00292310    0.00284205
     atom   16 type  1   force =     0.00117378   -0.00007903    0.00306387
     atom   17 type  1   force =    -0.00269272    0.00054074    0.00278165
     atom   18 type  1   force =    -0.00082511   -0.00084630    0.00051647
     atom   19 type  1   force =     0.00009207    0.00014528    0.00044540
     atom   20 type  1   force =    -0.00000095    0.00037427    0.00066200
     atom   21 type  1   force =    -0.00011177    0.00059726   -0.00000760
     atom   22 type  1   force =    -0.00022984   -0.00002702   -0.00024095
     atom   23 type  1   force =     0.00012790   -0.00007390    0.00009089
     atom   24 type  1   force =     0.00003347   -0.00002899    0.00001267
     atom   25 type  1   force =     0.00008240    0.00031331    0.00022397
     atom   26 type  1   force =    -0.00011298    0.00003005    0.00007529
     atom   27 type  1   force =    -0.00022926    0.00010425   -0.00013921
     atom   28 type  1   force =     0.00008161    0.00017276   -0.00008645
     atom   29 type  1   force =    -0.00027352   -0.00011375    0.00013094
     atom   30 type  1   force =     0.00036543    0.00025377    0.00023286
     atom   31 type  1   force =    -0.00044569    0.00014582   -0.00018376
     atom   32 type  1   force =    -0.00013758   -0.00001159   -0.00071078
     atom   33 type  1   force =     0.00056613   -0.00019031   -0.00003962
     atom   34 type  1   force =     0.00006448    0.00055348    0.00022111
     atom   35 type  1   force =     0.00016982   -0.00054351    0.00030033
     atom   36 type  1   force =    -0.00025056   -0.00000326    0.00040701
     atom   37 type  2   force =     0.00191705    0.00036537    0.00222811
     atom   38 type  2   force =     0.00373800    0.00216203    0.00940178
     atom   39 type  2   force =    -0.00025569   -0.00010323    0.00008871
     atom   40 type  3   force =    -0.00029269    0.00001857   -0.00020740
     atom   41 type  3   force =    -0.00419696   -0.00210536   -0.01034168

     Total force =     0.015784     Total SCF correction =     0.002367
     SCF correction compared to forces is large: reduce conv_thr to get better values

     negative rho (up, down):  1.305E-02 0.000E+00

     negative rho (up, down):  1.305E-02 0.000E+00

     negative rho (up, down):  1.305E-02 0.000E+00

     negative rho (up, down):  1.305E-02 0.000E+00

     negative rho (up, down):  1.305E-02 0.000E+00

     negative rho (up, down):  1.305E-02 0.000E+00

     negative rho (up, down):  1.305E-02 0.000E+00

     negative rho (up, down):  1.305E-02 0.000E+00

     negative rho (up, down):  1.305E-02 0.000E+00

     negative rho (up, down):  1.305E-02 0.000E+00

     negative rho (up, down):  1.305E-02 0.000E+00

     negative rho (up, down):  1.305E-02 0.000E+00

     negative rho (up, down):  1.305E-02 0.000E+00

     negative rho (up, down):  1.305E-02 0.000E+00

     negative rho (up, down):  1.305E-02 0.000E+00

     negative rho (up, down):  1.305E-02 0.000E+00

     negative rho (up, down):  1.305E-02 0.000E+00

     negative rho (up, down):  1.305E-02 0.000E+00

     negative rho (up, down):  1.305E-02 0.000E+00

     negative rho (up, down):  1.305E-02 0.000E+00

     negative rho (up, down):  1.305E-02 0.000E+00

     negative rho (up, down):  1.305E-02 0.000E+00

     negative rho (up, down):  1.305E-02 0.000E+00

     negative rho (up, down):  1.305E-02 0.000E+00

     negative rho (up, down):  1.305E-02 0.000E+00

     negative rho (up, down):  1.305E-02 0.000E+00

     negative rho (up, down):  1.305E-02 0.000E+00

     negative rho (up, down):  1.305E-02 0.000E+00

     negative rho (up, down):  1.305E-02 0.000E+00

     negative rho (up, down):  1.305E-02 0.000E+00

     negative rho (up, down):  1.305E-02 0.000E+00

     negative rho (up, down):  1.305E-02 0.000E+00

     negative rho (up, down):  1.305E-02 0.000E+00

     negative rho (up, down):  1.305E-02 0.000E+00
 BEEFens 2000 ensemble energies
             -0.606222707586215E+02
             -0.361612412130347E+01
             -0.158315084413731E+02
              0.429009960902614E+02
             -0.220887138480615E+02
             -0.205185996396895E+02
             -0.351827063711664E+02
             -0.864217864138026E+02
             -0.464884083457877E+02
             -0.472522009695482E+02
             -0.368982369927460E+02
              0.225208309913360E+01
              0.407371861676114E+01
              0.762466666801311E+01
              0.265920166253650E+01
              0.474529052254281E+02
             -0.208741954099162E+02
             -0.230351309990116E+02
              0.192904672106423E+02
             -0.112285882657393E+03
              0.535865844583898E+02
             -0.289649026449454E+02
             -0.334288108947516E+01
             -0.113974892073797E+02
             -0.885171719337222E+01
             -0.465998435619360E+01
              0.882046101744954E+02
             -0.186675573605887E+02
             -0.901040936961795E+01
             -0.518054240806408E+02
              0.815205032738434E+02
             -0.187419352038914E+02
             -0.374802019302789E+02
              0.249209562941093E+02
             -0.283757737379932E+01
              0.163814954432582E+02
             -0.485484048630110E+01
              0.108061203605129E+02
              0.287833984186186E+02
             -0.103209764720887E+03
              0.557826489433296E+02
              0.142212688471373E+02
             -0.169490392005326E+01
             -0.361387790589691E+02
              0.123077768816102E+02
             -0.146364442446717E+02
              0.398104594816235E+02
              0.364567299462668E+02
             -0.307995229372185E+02
             -0.275001824620788E+02
             -0.328185284103084E+02
             -0.351731093524524E+02
              0.135915736256771E+02
             -0.490573423425615E+02
              0.115381906165376E+02
              0.622495073565759E+02
              0.634645548215477E+02
              0.355439508169604E+02
              0.154063289821203E+02
              0.270096395650569E+02
              0.890538908727141E+02
              0.212742938424410E+02
             -0.548115620621719E+02
             -0.157005519646534E+02
             -0.235665816119427E+02
              0.629470391987344E+02
             -0.772920292019608E+02
             -0.671164825945425E+02
             -0.258947098336172E+02
             -0.642094381540335E+01
             -0.470790693756038E+02
              0.270435182730713E+02
              0.800437777431705E+01
              0.866915594332926E+01
             -0.396719026672342E+02
             -0.346596789095956E+02
             -0.541342379291503E+02
              0.390270431094993E+02
             -0.295644527902508E+02
              0.264732538945038E+02
             -0.712996812098296E+01
             -0.317862581977899E+02
             -0.576016643463212E+02
             -0.176650356714579E+02
             -0.905720672406392E+01
             -0.124789415219211E+02
              0.411748561384713E+02
              0.681862062788303E+02
             -0.385212027776697E+02
             -0.794088665452092E+02
             -0.219418365524495E+02
              0.111423738424771E+03
             -0.591757512420621E+02
              0.355917821409809E+02
             -0.956757416084497E+01
             -0.662757846223722E+02
              0.254201228438607E+02
              0.397857665995878E+02
             -0.198650294284900E+02
              0.399981843198702E+02
             -0.295862713856206E+02
             -0.477581005326647E+02
              0.865038833084550E+02
              0.453781473242228E+02
              0.336248117273139E+02
              0.146431210024103E+02
              0.205356419200066E+02
              0.855840076374411E+02
             -0.256384473443545E+02
              0.786407244377926E+01
             -0.142296833057826E+03
              0.181108219450437E+02
             -0.715734911767279E+02
              0.150735181905240E+02
              0.204398275843531E+02
             -0.332492667006114E+02
             -0.556802039674791E+02
              0.654834374601478E+01
             -0.303841090057590E+02
              0.307673804512598E+02
             -0.529408067822437E+02
              0.171810026120681E+01
             -0.356671567155550E+02
             -0.424214616291675E+01
             -0.104928291935011E+01
              0.180800343455978E+02
              0.143160662517278E+01
             -0.651280665841568E+01
              0.589649492806643E+02
              0.907416980839773E+02
              0.483726315610496E+02
              0.829880670238208E+02
             -0.114938583328099E+02
              0.143174459322775E+02
              0.540575771991462E+02
             -0.110951795917303E+02
             -0.734930473584913E+02
             -0.383527515173396E+02
             -0.521211329902178E+02
             -0.276401728307824E+02
              0.326927962488565E+02
             -0.116687098343657E+03
             -0.187036054495460E+02
              0.413730331192990E+02
             -0.385930699626475E+02
             -0.365216272746139E+02
              0.543459854896497E+02
              0.400396403853603E+02
             -0.353593061847964E+02
              0.137264474058801E+02
             -0.272854935746014E+02
              0.342858522989213E+02
              0.446438928713508E+01
              0.211074283372706E+02
             -0.883937701668797E+02
             -0.479741630086431E+02
             -0.992889224103499E+01
              0.324329635692317E+01
             -0.366317792812499E+02
              0.105925450535387E+03
             -0.230752174814961E+02
             -0.398246271456611E+02
              0.388648053856227E+02
             -0.493928256751213E+02
             -0.362958040148779E+02
              0.324509315727727E+02
              0.124374528760241E+02
              0.164248238146981E+02
              0.116331466519640E+02
             -0.132759990124384E+02
              0.224998699820725E+02
              0.589669035985465E+02
             -0.311458374199129E+02
              0.162352095922822E+02
              0.933524009525497E+02
              0.340426295384174E+02
             -0.728445455593294E+01
             -0.188417275116873E+02
              0.153209979427304E+03
             -0.163916048715990E+02
              0.362833876603486E+02
              0.194173122070481E+02
              0.361474720656209E+02
              0.891365867379284E+02
              0.542588820512592E+02
             -0.240984922143370E+01
              0.227503047458450E+02
              0.484511047781334E+02
              0.363252961188296E+02
             -0.524960874601835E+02
              0.935113423332484E+02
             -0.824732109658379E+02
             -0.198090344113351E+02
              0.582396000079213E+02
              0.673313127714420E+01
              0.790511750217775E+01
              0.340692254844765E+02
              0.298924611688853E+02
              0.353323621742071E+02
             -0.637171153832696E+02
              0.287899164928956E+01
             -0.297298622481460E+02
             -0.871532256380910E+01
             -0.145911836430594E+01
             -0.721550434487006E+01
             -0.414244799750952E+01
              0.858477729296924E+02
             -0.101005989205955E+02
             -0.276153431358676E+02
             -0.495940602607471E+01
              0.139838207901900E+02
             -0.563559104143654E+02
             -0.406616493477051E+02
             -0.381777834789696E+02
             -0.629763482115363E+02
             -0.169657944855402E+02
             -0.447144548976233E+02
              0.163284726278561E+02
             -0.240287769500883E+01
             -0.104265739175683E+02
             -0.933717295788449E+01
              0.807129942057247E+01
             -0.242755355707834E+02
              0.688610726276699E+02
             -0.806303535902091E+02
             -0.140946986542191E+02
             -0.173932410387387E+02
              0.181721545810798E+02
              0.214145051695222E+02
             -0.463464987727516E+02
             -0.201975158703783E+02
              0.440413401558126E+02
             -0.275881131337181E+02
              0.186764644382446E+02
              0.382472218025219E+02
             -0.322589199707215E+01
              0.114056983408614E+03
             -0.230168206720291E+02
             -0.340785373096754E+02
              0.578411054205429E+01
             -0.227937252078126E+02
              0.527217214030024E+02
             -0.336758268809134E+02
              0.106399300393283E+02
              0.640262132873868E+02
             -0.126097993156712E+02
              0.120127645729949E+03
              0.125755923224365E+03
             -0.649211874969933E+02
              0.590045386716121E+02
              0.166296480699334E+02
             -0.517226965743440E+02
              0.216120220557554E+02
              0.353393051573013E+02
              0.362270734288874E+02
              0.135192503151910E+01
              0.159409436822375E+02
              0.694855364557411E+02
             -0.246744433560921E+02
              0.181045055235949E+02
              0.738367492806938E+02
             -0.372225117570315E+02
             -0.129365408795451E+02
              0.507998103545264E+02
              0.297104344330353E+02
              0.779867910553338E+02
              0.222292682512705E+02
              0.623063398544969E+01
              0.280208485368242E+02
              0.382831733275449E+02
             -0.471034792431315E+02
              0.330372079320551E+01
              0.129378852582495E+02
              0.113631291242663E+02
              0.220252705589058E+02
             -0.574176304340177E+02
              0.365925842700368E+02
             -0.443568906020633E+02
             -0.347055136006009E+02
              0.177687787909885E+02
             -0.181279347192461E+02
              0.554572401184460E+02
             -0.256139778244093E+02
              0.266547308479276E+02
              0.368073848922968E+02
              0.828528402959942E+02
              0.574094738371541E+02
              0.461141097484433E+02
             -0.105744672891503E+02
             -0.390627040911590E+01
             -0.331635881056176E+02
              0.749863157544448E+02
              0.796493666494442E+02
              0.361568341524143E+02
             -0.191722332365648E+02
              0.511476927588002E+02
             -0.162786137671001E+02
              0.214702860475451E+02
              0.613807900562435E+02
              0.214819820649763E+01
             -0.104203321388860E+02
             -0.282882954564574E+02
             -0.510897731160603E+02
              0.944526347607218E+02
              0.439140975508250E+02
             -0.558548013611929E+02
             -0.962327944383557E+01
              0.249697361931547E+02
             -0.995473546437344E+01
              0.591573478752244E+02
              0.152163733608206E+02
              0.798623186676750E+02
              0.279108606615485E+02
             -0.264021421293850E+02
              0.249000752235462E+02
             -0.502097097472711E+01
             -0.323576526694134E+02
              0.133189922733387E+02
              0.205718487653924E+02
              0.931858750975475E+02
              0.796677133753207E+02
              0.550424092993722E+02
              0.730290599224211E+02
              0.798580773474700E+01
             -0.273478462757231E+02
              0.163059893629377E+02
             -0.367731233173747E+02
             -0.475708470415767E+02
             -0.563170149377887E+02
             -0.266324604682269E+02
             -0.109600431306330E+03
             -0.291097003360103E+02
             -0.836447065049636E+02
              0.209857044341273E+02
             -0.476558472966091E+02
              0.396398303753085E+02
             -0.940369864790576E+02
             -0.329827869179175E+02
              0.548299988910132E+02
              0.207585865120263E+02
             -0.829881767108396E+02
              0.630691819891669E+02
             -0.256492408330222E+02
              0.511977154809811E+02
             -0.242551063070559E+02
             -0.750669070709753E+02
              0.111907583814535E+02
             -0.610786151148060E+02
             -0.168104467228998E+02
             -0.147176809988440E+01
              0.417971834848721E+02
              0.126900041109324E+03
             -0.461405307872193E+02
             -0.362479026045998E+02
             -0.971894160625141E+00
             -0.130110452173834E+02
             -0.821961236849883E+02
             -0.596280827186287E+02
              0.516882485330235E+02
             -0.288788493922276E+02
              0.169101864089065E+02
             -0.489031884289952E+02
             -0.131740694975577E+02
             -0.436957485557952E+02
              0.565130786231478E+02
              0.151170007887450E+02
             -0.231439768739922E+02
             -0.126702928580565E+02
              0.665950777216139E+01
             -0.618329759677562E+01
              0.441261633825857E+02
             -0.251829716910266E+02
              0.273813262956742E+01
              0.338908962466593E+02
              0.171280332790341E+02
             -0.159452480069990E+02
              0.156148053852683E+03
              0.537296268323091E+02
              0.116902869993635E+01
              0.161705005201836E+02
             -0.614092129825328E+02
              0.314786577996134E+02
             -0.721184826480515E+02
             -0.251941059878096E+02
             -0.522151377305800E+02
             -0.219865726149844E+02
              0.568685553195560E+02
             -0.536521149956787E+02
              0.160642446734235E+02
             -0.407427233179044E+01
              0.388088781293484E+01
             -0.433567224263249E+02
             -0.478024803166841E+02
             -0.398714309103912E+01
             -0.424792856341423E+02
             -0.217137858696431E+02
             -0.438051858095923E+02
             -0.119251621304034E+02
             -0.358642021424250E+02
             -0.516108782454390E+02
              0.212569841433315E+02
             -0.209200915293216E+02
              0.187630317592580E+02
              0.973834769894245E+01
             -0.737379522064870E+02
             -0.547721899427029E+02
             -0.397691542601042E+02
              0.353941188143494E+02
              0.270667761321243E+01
             -0.626194600425358E+02
              0.585104745389043E+02
             -0.400772062774046E+02
              0.544317824145365E+02
             -0.289208970650167E+02
             -0.445625218085461E+02
              0.298463147951471E+02
             -0.657210516225221E+02
             -0.379524348519000E+02
              0.672108985989570E+02
              0.203739658575608E+02
             -0.359541340580354E+02
              0.488801393617054E+02
             -0.173796023321881E+02
             -0.322410871730168E+02
             -0.301503961004724E+02
             -0.500238084611470E+02
              0.249108739985856E+02
             -0.932225520128486E+02
             -0.839516744559555E+02
             -0.733486155285743E+01
             -0.306629916044207E+02
             -0.575046825202592E+02
              0.721309262983643E+02
              0.131421771633290E+03
             -0.360718734479289E+02
             -0.255510242318627E+01
             -0.636473145050624E+02
              0.650158761514946E+02
              0.170506399896219E+02
             -0.181249837522029E+02
             -0.409734876848542E+02
              0.148596092283123E+02
             -0.585718552161414E+02
             -0.197497001339149E+02
             -0.904019776115379E+02
              0.336616751225836E+02
              0.168884296966978E+02
              0.184096094804772E+01
             -0.704276109051932E+01
             -0.329118523561337E+02
             -0.757025512679877E+01
              0.125397023297270E+03
             -0.199018748610409E+02
             -0.436833509588263E+02
             -0.683385576183366E+02
              0.109048491204485E+02
             -0.341768775787227E+02
              0.589140971005570E+01
              0.261227106312213E+02
              0.102003700835625E+02
              0.277570824339083E+02
              0.119685784061091E+02
              0.629161685279817E+02
              0.316685184560866E+02
             -0.326220017753961E+02
              0.355189466542861E+02
              0.379236996797810E+02
              0.120838875342466E+02
              0.486474578344338E+02
             -0.224489632367884E+02
              0.765151224379234E+02
              0.172186160722068E+02
             -0.271947574883129E+02
             -0.721235666673419E+01
             -0.186173938910790E+02
              0.261764883764163E+02
             -0.234508852594529E+02
             -0.112707718379625E+00
             -0.847542357659415E+01
              0.809256122999248E+02
              0.499592879411284E+02
             -0.686742689973160E+02
             -0.474437068925053E+01
             -0.555085656674731E+02
             -0.159562946870453E+02
             -0.267943114615384E+02
              0.374603373269076E+01
              0.578045576360690E+00
             -0.257225630306946E+02
              0.813073854388063E+01
             -0.602207434442943E+01
             -0.128452172492924E+02
              0.858416826810683E+02
              0.181758972797158E+02
             -0.806261560658077E+02
             -0.457974480659491E+02
              0.944100129675101E+02
              0.277539656125844E+02
             -0.106781331885602E+02
              0.104466130252312E+03
             -0.194913071516942E+02
             -0.123014178465407E+02
             -0.537610486517519E+01
              0.107215890152025E+02
              0.272092273020024E+02
              0.779888026524137E+01
              0.305144383023860E+02
             -0.187970097275397E+02
             -0.303308121625759E+02
             -0.417401051027896E+02
             -0.476420307383100E+02
              0.463623240973278E+02
              0.126788645655859E+02
              0.387199529419785E+02
              0.133295023361126E+02
              0.854904959639411E+02
              0.156340673560290E+02
             -0.845396313761777E+02
             -0.334136448654403E+02
              0.133758201465998E+02
             -0.302595821208533E+02
              0.625997014674392E+02
             -0.885210625245850E+01
              0.148751468138893E+02
              0.496817277372413E+02
             -0.706771497493818E+02
              0.149621119155475E+03
              0.208478847319869E+02
              0.271198872160976E+02
              0.347267841970768E+02
              0.103557931831543E+02
             -0.158335911446812E+01
              0.358224771851430E+02
             -0.356643159026474E+02
              0.772548306329388E+02
              0.684163788160131E+02
             -0.405568506833591E+02
              0.149224610015835E+02
              0.669642042553915E+02
             -0.223835305193817E+02
              0.154203728360289E+02
              0.434863161839831E+02
              0.422017978844753E+02
             -0.784068981450920E+02
             -0.152573529669299E+02
             -0.355944956814092E+02
             -0.147383837201846E+01
             -0.763552212998776E+01
             -0.546128336938523E+01
             -0.180698840940943E+02
             -0.293339772102449E+02
              0.631746641159415E+01
              0.111700947752535E+02
              0.535162084465979E+02
             -0.389863183103747E+02
              0.373913109621759E+02
              0.438037803547975E+02
             -0.186631120526318E+02
              0.871649144268274E+02
             -0.697385429543414E+02
             -0.103103381499282E+03
             -0.658951699467402E+01
             -0.268028880188149E+01
              0.385992105727803E+01
              0.788800081459398E+02
             -0.107039591123154E+02
              0.416347303107936E+02
              0.443108189472165E+02
              0.385137691999493E+02
             -0.994055141593253E+01
              0.627263456007202E+02
             -0.133569565030598E+02
             -0.307097818012071E+02
             -0.478997753476546E+02
              0.587212803340771E+01
              0.369339143986619E+02
             -0.602798821131211E+01
              0.392853423428871E+02
             -0.177045584025399E+01
              0.654891373864920E+02
              0.187410664252270E+02
              0.998296536040752E+01
             -0.121657777592754E+02
              0.331943989990241E+02
              0.362494016777717E+02
              0.232652744481812E+02
             -0.517258279478483E+00
             -0.550070638839986E+02
              0.260568995987868E+02
              0.175078172362938E+02
              0.402377354525891E+02
              0.272059998870795E+02
              0.372280150735876E+02
             -0.605486601331305E+01
              0.250660291021994E+02
             -0.298379285863002E+02
             -0.196191963380443E+01
             -0.568839708360547E+02
             -0.307912914486785E+02
              0.378486595536938E+02
             -0.934890773503249E+02
              0.294270488461952E+02
              0.183812830315553E+02
              0.839467031921810E+02
             -0.300497514523276E+02
              0.329051896159599E+02
             -0.137744129351566E+02
             -0.463694950642822E+02
             -0.761295118658868E+02
             -0.524520856052622E+01
             -0.859150183034281E+02
              0.199721084612275E+02
             -0.247247369051474E+02
              0.305581396595394E+02
              0.236671735906210E+02
             -0.240775963781704E+02
             -0.264941237320973E+02
              0.390750187504681E+02
             -0.587622908042499E+02
             -0.116473926780952E+02
             -0.195960539960972E+02
              0.212371500002358E+02
             -0.892223824350441E+01
              0.363124241688087E+01
             -0.200510754121231E+02
              0.558415545530948E+02
             -0.438936636479143E+02
              0.786334483937458E+01
              0.584770788426382E+02
             -0.323034228537948E+02
              0.359418033067556E+01
             -0.882164222811548E+01
             -0.668982462067623E+02
             -0.482409243737486E+02
             -0.861273143979219E+01
              0.240547498056448E+02
              0.302133150161729E+02
              0.857644245868642E+01
             -0.415414572283294E+01
              0.151848486362588E+02
             -0.439685001686263E+02
              0.334235081261033E+01
             -0.530626904915343E+02
             -0.324583931915122E+02
              0.474386147346457E+02
             -0.294950987417742E+02
              0.621854764129726E+02
             -0.214325897550333E+02
              0.353546163596138E+02
              0.241493171790998E+02
             -0.643591040982831E+02
             -0.280326384702256E+02
              0.932523133843344E+01
             -0.371416868720707E+02
             -0.339413244719052E+02
             -0.829433290669651E+02
             -0.538933468990997E+02
             -0.510097747639107E+02
             -0.415296645889797E+02
             -0.983521863494815E+00
              0.995190953261564E+01
              0.102087407785058E+01
              0.153067472097486E+02
             -0.548952213123544E+02
              0.141591417895800E+02
              0.256235217350070E+02
             -0.666313138624914E+02
             -0.701519185706970E+02
             -0.430921185730765E+02
             -0.171705926454904E+02
              0.178427231198972E+02
              0.455159578450127E+01
             -0.425844035034519E+02
              0.366105104091183E+02
             -0.215968625045790E+02
              0.517113267529912E+02
             -0.886637125843041E+02
              0.597190753439321E+02
             -0.211702184224097E+01
             -0.368016857843905E+02
             -0.216403225807373E+02
              0.471643460962946E+01
              0.374438950414897E+02
             -0.755687703179310E+02
             -0.120788664215926E+02
             -0.216442519583032E+02
              0.510729875761346E+02
              0.864132956972710E+02
             -0.964438786950548E+02
              0.943449331144745E+02
              0.467578439236632E+02
             -0.724987144115140E+02
             -0.366369858064546E+02
              0.751305226722750E+02
              0.631595174657167E+02
             -0.180723421585908E+02
             -0.463631830866478E+01
              0.730873364754414E+01
              0.648547442328928E+02
             -0.508017427457925E+02
              0.158323986494912E+02
             -0.472268342068236E+01
              0.347596687210360E+02
             -0.746419376269984E+02
             -0.647966900359045E+01
             -0.350867239250648E+02
              0.460347953216823E+02
              0.468510471361599E+02
             -0.861212933262196E+02
             -0.486749496830513E+02
             -0.256091160286821E+02
             -0.339065372360381E+02
             -0.109277171643489E+02
             -0.242742648017698E+02
              0.427035806348364E+02
              0.400939832581469E+02
             -0.564999957097547E+01
             -0.415955282886326E+02
             -0.849750396713422E+02
              0.442824443636406E+02
             -0.522952858923552E+02
             -0.312747581907189E+02
              0.546716015998831E+01
             -0.322266798466340E+02
             -0.397724060335266E+02
             -0.239866429414688E+02
             -0.384928195643619E+02
             -0.270747397482185E+02
             -0.482221970634812E+02
              0.563544149473217E+02
              0.637704925367310E+02
             -0.171614201248212E+01
[...]
              0.283259596739163E+02
              0.141701303697947E+03
              0.241989935263598E+02
              0.122435702762533E+02
             -0.464163484992204E+02
             -0.637328179356246E+02
             -0.188723828417564E+02
              0.329103955724759E+02
             -0.426355957971896E+01
              0.189539798475268E+02
              0.335856829764869E+02
             -0.586272375495650E+02
              0.222122970313449E+02
              0.581848525959615E+02
              0.552632647416863E+02
             -0.420367588256568E+01
             -0.137773521526833E+01
             -0.992579874061920E+01
             -0.481918218641462E+02
             -0.674414529778669E+02
              0.784909399788026E+02
             -0.523291759715471E+01
             -0.587370768813585E+02
              0.170976318004728E+01
             -0.205021232505702E+02
              0.937574753787065E+02
             -0.216300938061540E+02
             -0.353279647719177E+02
              0.334768206149712E+02
             -0.145539091997264E+02
              0.389228465889054E+02
             -0.239100008061922E+01
              0.101004440868887E+03
              0.489193294067312E+02
             -0.510959108593679E+01
             -0.321668908678057E+02
              0.231969979733358E+02
             -0.528033110842562E+02
             -0.127885900870760E+02
              0.585163215048301E+02
             -0.287398441556757E+02
             -0.438054839809427E+02
             -0.223041247938761E+02
              0.518332499413298E+02
              0.124804245394768E+02
             -0.848097538883005E+02
              0.303501580198823E+02
              0.151887461771955E+02
              0.575262104958080E+01
             -0.513001456231826E+02
             -0.377680103042076E+01
              0.322877868853860E+02
              0.512373207154687E+02
              0.631867945558462E+02
              0.228696347421105E+02
              0.782692837310947E+00
             -0.497443960061353E+02
             -0.509468490008051E+02
             -0.747328440352711E+02
             -0.613103892932008E+01
              0.308593181546185E+02
             -0.377165556974117E+01
              0.546437948790737E+02
             -0.317633748952151E+02
              0.166537772708917E+02
             -0.102342626236579E+02
             -0.289122585808057E+02
              0.584944799758992E+02
              0.791685552704047E+01
              0.603532212604931E+02
              0.507115430038664E+01
              0.264842237165103E+02
             -0.192558299269547E+02
              0.585629517306029E+02
             -0.111080672439959E+02
             -0.139587756988654E+00
             -0.789387692054071E+02
             -0.128253800271049E+02
              0.718394376123130E+02
              0.672640146660430E+02
              0.251564742902146E+02
             -0.130318524679290E+02
              0.342372946258641E+01
             -0.173286542518750E+02
             -0.204145452947341E+01
              0.906809371164790E+02
              0.124328607300981E+01
             -0.190173190947867E+02
             -0.110659005512815E+03
             -0.552299212632276E+02
             -0.374547348703507E+02
             -0.658058796558112E+02
             -0.554886406827753E+02
             -0.681962825060045E+02
             -0.446595621420882E+02
             -0.410580233474634E+02
             -0.451473168663138E+02
              0.482968621570849E+02
             -0.294065357137557E+02
             -0.994818004361405E+02
              0.418384913753189E+02
             -0.259660597825385E+02
             -0.790197018752773E+02
              0.942977046349659E+02
             -0.219441632833622E+02
              0.227945457709750E+02
              0.454688580283376E+02
             -0.136781556114619E+01
              0.254072924973371E+02
              0.469319047207162E+01
              0.420707243059258E+00
             -0.150290809620836E+02
             -0.714789583628471E+02
              0.132974975460058E+02
             -0.129269264399645E+03
              0.623318126890733E+02
             -0.440136610676795E+02
             -0.162830871174503E+02
             -0.158124137193754E+02
              0.711824819198052E+01
             -0.227538887635918E+02
              0.296939288634588E+02
             -0.520098657734978E+02
              0.366841603256113E+02
              0.370234379413031E+02
              0.168462833814890E+02
              0.100239380991790E+02
              0.197607643696186E+02
              0.620581246453344E+01
              0.310143257644187E+02
             -0.797387460575237E+01
             -0.591403097093808E+02
              0.756211091732871E+01
             -0.152411548478815E+02
             -0.191892643788384E+01
              0.505488322383866E+02
             -0.826003774974526E+02
             -0.151404804412618E+01
              0.570697945623124E+00
              0.994350594952743E+01
              0.318212094733543E+02
             -0.123484390694666E+02
              0.835064868805250E+02
              0.487379828423260E+02
             -0.183131322987751E+02
             -0.957341656473517E+01
              0.105218806259597E+01
              0.768896959903473E+02
             -0.585818573530810E+02
             -0.105663120373678E+03
              0.308782134909342E+02
             -0.162813629019635E+02
             -0.139127594165456E+02
              0.130466564484379E+02
              0.767762879758338E+02
              0.463677514023261E+02
             -0.153342680620855E+02
             -0.502469726716662E+02
             -0.548396967405408E+01
              0.306114542392537E+02
             -0.111372956661845E+02
             -0.754990788399298E+02
             -0.269708020299626E+01
             -0.888960969857306E+02
             -0.475144659233724E+02
              0.767584442882574E+02
             -0.482953599418536E+02
             -0.635755862614179E+02
             -0.513721519986542E+02
             -0.349381636957639E+02
              0.340319082730006E+02
              0.820652101041446E+02
             -0.354742059246502E+01
              0.276343364098551E+02
             -0.183477883189669E+02
             -0.693266572119016E+02
              0.464481118064996E+02
             -0.444428676643979E+02
              0.321503833040538E+02
              0.375933077264056E+02
             -0.653631498598008E+01
              0.390242520472632E+02
              0.437976105098366E+02
              0.100540074439030E+03
             -0.155956400696513E+02
             -0.455447312942485E+02
             -0.612231983909168E+02
             -0.123828147678524E+02
             -0.232473037839668E+02
              0.102916308479222E+03
             -0.448408709551813E+02
              0.105134671226651E+02
              0.972092383007231E+01
             -0.264411793695241E+02
             -0.797724736974242E+02
             -0.697750501059386E+01
              0.978783370495911E+02
              0.936184031451714E+01
              0.808238301118888E+01
             -0.526314705937834E+02
             -0.604934003448570E+02
             -0.562223634943919E+01
              0.499996506508820E+02
             -0.221575596668437E+02
              0.107866904396224E+03
             -0.434782654223159E+02
              0.146180994161038E+02
             -0.224139638047545E+02
             -0.717722724955921E+02
              0.167955568625143E+01
             -0.501137766108707E+02
             -0.759875656853970E+02
              0.613947947555931E+01
              0.237495070311570E+01
              0.513565491767471E+02
              0.187023964037598E+02
             -0.323144307036426E+02
              0.229773743468896E+02
             -0.809858044051747E+02
             -0.521335336836354E+02
              0.900790390739463E+02
              0.142394798342391E+02
             -0.187968611965639E+02
             -0.352081794634108E+02
             -0.268650696996372E+01
             -0.586380051131584E+01
              0.828879905645336E+02
              0.417087952278026E+02
             -0.166053761737244E+02
             -0.121918313158860E+02
             -0.427195494191692E+02
             -0.200514921088454E+02
             -0.669423410902901E+02
              0.459023691339924E+02
              0.545091789304504E+01
              0.144810099750298E+02
              0.155852688582503E+02
             -0.561581650665680E+00
             -0.168191452920731E+02
             -0.309749932300387E+01
             -0.100317786911886E+03
             -0.229575661668625E+02
             -0.762552808655806E+01
             -0.947456051065731E+01
              0.546123148299471E+02
              0.623019101081950E+02
              0.164675805595799E+02
             -0.969544383067124E+02
              0.646981194547764E+02
             -0.214823910171360E+02
             -0.376645042715156E+02
             -0.863289999937574E+02
             -0.386585028313317E+02
              0.563702877128345E+02
              0.243681038678864E+02
              0.511368076193048E+01
              0.291897944829076E+02
             -0.564315615259081E+02
             -0.421777747922873E+02
              0.514637200244637E+02
              0.386833279787248E+02
              0.518445260675746E+02
             -0.124215679838136E+01
              0.683335450130954E+01
              0.568879512979852E+02
              0.961639335983247E+02
             -0.300039988008957E+02
              0.322331229856766E+02
             -0.118069058753949E+02
             -0.411621885388796E+02
             -0.313816640430594E+02
             -0.299689711600522E+02
             -0.131245823831313E+02
             -0.522946045391086E+02
             -0.217076590676045E+02
             -0.141011343424888E+03
              0.368405464837492E+02
              0.206599566965258E+02
             -0.393117182975050E+01
             -0.379622180089257E+02
             -0.204048393179195E+02
             -0.526251853655683E+02
              0.150948582834210E+02
              0.819134457716476E+02
             -0.251969011169596E+02
             -0.162784697629602E+02
              0.237835070482595E+02
             -0.488654393722660E+02
              0.879523353614224E+02
              0.154259036563695E+02
              0.226183188865047E+02
              0.489850365786718E+02
              0.322161080061022E+01
              0.541594950529350E+02
              0.142838960113760E+02
             -0.106464121536483E+02
              0.732153637565770E+01
              0.817548528280213E+00
              0.726593806391508E+02
              0.100827143766099E+02
              0.120239414783975E+02
             -0.129809703677154E+02
              0.132089759286905E+02
             -0.910198584765798E+02
             -0.325452835434347E+02
             -0.456892438494051E+02
              0.484847035183818E+02
             -0.290778412958117E+02
             -0.657817721310155E+02
              0.537783317509284E+02
             -0.121910833150826E+02
              0.439592771729874E+02
             -0.897714248810240E+02
              0.231801316364866E+02
              0.857517892862262E+01
              0.582308568712426E+01
             -0.831601915770341E+01
             -0.902357170054108E+01
              0.478777294558955E+02
              0.199676494032570E+01
             -0.474488778753258E+02
             -0.175827442799878E+02
              0.276443350322698E+02
             -0.117787445919868E+03
             -0.928805626950758E+02
              0.396747315044490E+01
              0.117440191428493E+02
             -0.412560981614041E+02
             -0.387917932430753E+01
              0.111999800692703E+03
              0.306355024149469E+02
             -0.570959015680253E+02
              0.924639747516517E+01
             -0.963851383109638E+01
              0.105346065495942E+02
             -0.337149970386803E+02
              0.195056163702002E+02
              0.284315814497480E+02
             -0.300768994073280E+01
              0.108055326349502E+03
             -0.140133343597156E+02
             -0.315595655270433E+02
              0.142722443151059E+02
              0.466048547509874E+02
             -0.355420272279978E+02
             -0.317817653398640E+01
              0.963604075582527E+02
             -0.464671774703891E+01
              0.620953875954522E+02
              0.135235983384593E+02
             -0.902912667109841E+01
             -0.305109667408477E+02
              0.566098277966946E+02
             -0.513648927941543E+02
             -0.220360665576817E+01
             -0.169825792689823E+02
             -0.404750038802733E+02
              0.184603192769745E+02
              0.238798564739813E+02
              0.115956369437739E+02
              0.725325959912539E+00
             -0.384108632081089E+02
              0.215361582627248E+02
             -0.673863141656022E+01
             -0.246400690437842E+02
             -0.210431814487720E+02
              0.203263048914791E+02
             -0.594926507691503E+01
             -0.348773812993864E+02
             -0.106489514953701E+03
              0.102797100861639E+02
              0.248530960869764E+02
             -0.386753969259427E+02
             -0.210705269320976E+02
              0.806035065826196E+02
              0.649251361902509E+01
              0.310402277796323E+02
              0.390087494650700E+01
              0.321530211737318E+02
              0.644673885215678E+01
             -0.372591987386248E+02
             -0.229745741724190E+01
              0.875516399772710E+01
              0.273478064684872E+02
              0.781158662105750E+02
              0.506915131234059E+02
              0.170682974142096E+00
              0.168724340312132E+02
              0.612453377007245E+02
              0.235637884885781E+02
             -0.752158152253785E+02
             -0.273358090876809E+02
              0.150849271646654E+02
              0.561823039223873E+01
              0.254853272392913E+02
             -0.547230058580399E+02
              0.899073758641497E+01
              0.385334086606888E+02
              0.497514580547940E+02
             -0.434534329183771E+02
             -0.691270012681264E+01
             -0.207677206960693E+01
             -0.133677784774893E+02
             -0.365382251271455E+02
             -0.215071338791190E+02
             -0.200311899197716E+01
              0.791181141957065E+01
              0.420846413678399E+02
             -0.308093336886091E+02
              0.825234536811995E+02
              0.327183230091802E+02
              0.219382181146708E+02
              0.332472875517911E+02
              0.322912355868045E+02
              0.345570009762318E+02
              0.536640442354207E+02
             -0.433356408651444E+02
              0.618858880733669E+02
             -0.112124689343328E+03
              0.307102798402059E+02
             -0.106418026726413E+03
              0.853858870771503E+02
              0.689826707087342E+02
             -0.109807646877434E+02
             -0.492746304508140E+02
             -0.428963173298708E+02
             -0.622873591785634E+02
             -0.627998234738313E+02
              0.551058787537397E+02
              0.405128373183381E+02
              0.236638424307031E+02
              0.373594329627590E+02
              0.402664258802830E+02
             -0.381701777269099E+02
             -0.197702863731989E+02
              0.585796922981249E+02
             -0.115808024996515E+02
              0.551089788559743E+02
              0.698628374559354E+02
             -0.553081722346467E+01
             -0.705478562404076E+02
             -0.920887462081510E+00
             -0.245865981680987E+01
             -0.881924623753139E+01
             -0.178690940948104E+01
             -0.652293813266162E+02
             -0.210784569582717E+02
              0.537352798071574E+01
              0.895999396556928E+01
              0.468365193419148E+02
             -0.397378011438817E+02
              0.656897308205857E+02
             -0.424905714627356E+02
              0.210012940536575E+02
              0.349987191605655E+02
 
 BEEF-vdW xc energy contributions
           1 :   -782.252696771839     
           2 :    718.845981656699     
           3 :   -608.911209396220     
           4 :    479.261177339273     
           5 :   -357.310773252565     
           6 :    262.941684467217     
           7 :   -203.920585893379     
           8 :    175.812914438308     
           9 :   -165.980936974248     
          10 :    159.754676362393     
          11 :   -146.243938970340     
          12 :    121.599352737770     
          13 :   -88.8764989291338     
          14 :    55.1217521449234     
          15 :   -27.3655239022473     
          16 :    9.34546155071826     
          17 :  -0.234787849434497     
          18 :   -4.37892707469803     
          19 :    9.99232456990433     
          20 :   -20.4794214599415     
          21 :    36.4207432029045     
          22 :   -55.1282155622783     
          23 :    72.1812354993439     
          24 :   -83.6339980451570     
          25 :    87.8109710553451     
          26 :   -85.9019561237003     
          27 :    81.1831000560900     
          28 :   -77.3375990884826     
          29 :    76.7121143896883     
          30 :   -79.3256288307225     
          31 :   -85.7896684430591     
          32 :   -65.8026410285944     

     Writing output data file ./pwscf.save/
 
     init_run     :    338.17s CPU    342.52s WALL (       1 calls)
     electrons    :  14710.91s CPU  14841.91s WALL (       1 calls)
     forces       :    101.55s CPU    102.73s WALL (       1 calls)

     Called by init_run:
     wfcinit      :    289.90s CPU    293.33s WALL (       1 calls)
     potinit      :     45.32s CPU     45.63s WALL (       1 calls)
     hinit0       :      1.12s CPU      1.15s WALL (       1 calls)

     Called by electrons:
     c_bands      :  12230.10s CPU  12331.85s WALL (      22 calls)
     sum_band     :   1746.25s CPU   1759.19s WALL (      22 calls)
     v_of_rho     :    137.70s CPU    142.12s WALL (      22 calls)
     newd         :     33.47s CPU     45.54s WALL (      22 calls)
     PAW_pot      :    146.97s CPU    146.98s WALL (      22 calls)
     mix_rho      :    462.41s CPU    463.04s WALL (      22 calls)
     vdW_kernel   :     33.52s CPU     33.52s WALL (       1 calls)

     Called by c_bands:
     init_us_2    :     86.47s CPU     86.71s WALL (     598 calls)
     cegterg      :  11339.82s CPU  11441.29s WALL (     286 calls)

     Called by *egterg:
     cdiaghg      :    106.79s CPU    106.81s WALL (    1485 calls)
     h_psi        :   7406.59s CPU   7443.17s WALL (    1511 calls)
     s_psi        :   1183.79s CPU   1183.80s WALL (    1511 calls)
     g_psi        :     18.56s CPU     18.57s WALL (    1212 calls)

     Called by h_psi:
     h_psi:calbec :   1113.83s CPU   1113.99s WALL (    1511 calls)
     vloc_psi     :   5079.39s CPU   5080.91s WALL (    1511 calls)
     add_vuspsi   :   1184.10s CPU   1184.12s WALL (    1511 calls)

     General routines
     calbec       :   1628.79s CPU   1628.96s WALL (    1849 calls)
     fft          :     50.53s CPU     50.54s WALL (    3342 calls)
     ffts         :    147.63s CPU    147.65s WALL (   10232 calls)
     fftw         :   5163.08s CPU   5163.94s WALL (  368248 calls)
 
     Parallel routines
 
     PWSCF        :      4h14m CPU      4h17m WALL

 
   This run was terminated on:  14:39:53   4Jan2023            

=------------------------------------------------------------------------------=
   JOB DONE.
=------------------------------------------------------------------------------=
