
     Program PWSCF v.6.7MaX starts on 20May2022 at 17:37:47 

     This program is part of the open-source Quantum ESPRESSO suite
     for quantum simulation of materials; please cite
         "P. Giannozzi et al., J. Phys.:Condens. Matter 21 395502 (2009);
         "P. Giannozzi et al., J. Phys.:Condens. Matter 29 465901 (2017);
          URL http://www.quantum-espresso.org", 
     in publications or presentations arising from this work. More details at
     http://www.quantum-espresso.org/quote

     Parallel version (MPI), running on     1 processors

     MPI processes distributed on     1 nodes
     Reading input from chch2ch3-ensemble.in
Warning: card &CELL ignored
Warning: card / ignored

     Current dimensions of program PWSCF are:
     Max number of different atomic species (ntypx) = 10
     Max number of k-points (npk) =  40000
     Max angular momentum in pseudopotentials (lmaxx) =  3
     file Pt.pbe-n-kjpaw_psl.1.0.0.UPF: wavefunction(s)  6S 5D renormalized
     file C.pbe-n-kjpaw_psl.1.0.0.UPF: wavefunction(s)  2S 2P renormalized
     file H.pbe-kjpaw_psl.1.0.0.UPF: wavefunction(s)  1S renormalized

     **************************************************************************
     Initializing libbeef V0.1.2 with the BEEF-vdW functional.
     Citation: Wellendorff et al., PRB 85, 235149 (2012).
     **************************************************************************


     IMPORTANT: XC functional enforced from input :
     Exchange-correlation= BEEF-VDW
                           (   1   4  43  14   2   0   0)
     Any further DFT definition will be discarded
     Please, verify this is what you really want


     Subspace diagonalization in iterative solution of the eigenvalue problem:
     a serial algorithm will be used

 
     G-vector sticks info
     --------------------
     sticks:   dense  smooth     PW     G-vecs:    dense   smooth      PW
     Sum        4267    4267   1159               743079   743079  104771
 


     bravais-lattice index     =            0
     lattice parameter (alat)  =      16.0349  a.u.
     unit-cell volume          =   11829.6154 (a.u.)^3
     number of atoms/cell      =           45
     number of atomic types    =            3
     number of electrons       =       378.00
     number of Kohn-Sham states=          227
     kinetic-energy cutoff     =      60.0000  Ry
     charge density cutoff     =     240.0000  Ry
     scf convergence threshold =      1.0E-06
     mixing beta               =       0.7000
     number of iterations used =            8  local-TF  mixing
     Exchange-correlation= BEEF-VDW
                           (   1   4  43  14   2   0   0)

     celldm(1)=  16.034858  celldm(2)=   0.000000  celldm(3)=   0.000000
     celldm(4)=   0.000000  celldm(5)=   0.000000  celldm(6)=   0.000000

     crystal axes: (cart. coord. in units of alat)
               a(1) = (   1.000000   0.000000   0.000000 )  
               a(2) = (   0.500000   0.866025   0.000000 )  
               a(3) = (   0.000000   0.000000   3.313177 )  

     reciprocal axes: (cart. coord. in units 2 pi/alat)
               b(1) = (  1.000000 -0.577350  0.000000 )  
               b(2) = (  0.000000  1.154701  0.000000 )  
               b(3) = (  0.000000  0.000000  0.301825 )  


     PseudoPot. # 1 for Pt read from file:
     /users/bkreitz1/quantum-espresso/potentials/Pt.pbe-n-kjpaw_psl.1.0.0.UPF
     MD5 check sum: 04dc8a03c51ece93fc7b5889c2958091
     Pseudo is Projector augmented-wave + core cor, Zval = 10.0
     Generated using 'atomic' code by A. Dal Corso  v.6.7MaX
     Shape of augmentation charge: PSQ
     Using radial grid of 1277 points,  6 beta functions with: 
                l(1) =   0
                l(2) =   0
                l(3) =   1
                l(4) =   1
                l(5) =   2
                l(6) =   2
     Q(r) pseudized with 0 coefficients 


     PseudoPot. # 2 for C  read from file:
     /users/bkreitz1/quantum-espresso/potentials/C.pbe-n-kjpaw_psl.1.0.0.UPF
     MD5 check sum: a169b0ebad56f5ec0d79c4633f80bf22
     Pseudo is Projector augmented-wave + core cor, Zval =  4.0
     Generated using 'atomic' code by A. Dal Corso  v.6.7MaX
     Shape of augmentation charge: PSQ
     Using radial grid of 1073 points,  4 beta functions with: 
                l(1) =   0
                l(2) =   0
                l(3) =   1
                l(4) =   1
     Q(r) pseudized with 0 coefficients 


     PseudoPot. # 3 for H  read from file:
     /users/bkreitz1/quantum-espresso/potentials/H.pbe-kjpaw_psl.1.0.0.UPF
     MD5 check sum: ae98473e6dc62675f0d0baffdab24f65
     Pseudo is Projector augmented-wave, Zval =  1.0
     Generated using 'atomic' code by A. Dal Corso  v.6.7MaX
     Shape of augmentation charge: PSQ
     Using radial grid of  929 points,  2 beta functions with: 
                l(1) =   0
                l(2) =   0
     Q(r) pseudized with 0 coefficients 


     atomic species   valence    mass     pseudopotential
        Pt            10.00   195.08400     Pt( 1.00)
        C              4.00    12.01100     C ( 1.00)
        H              1.00     1.00800     H ( 1.00)

     No symmetry found



   Cartesian axes

     site n.     atom                  positions (alat units)
         1           Pt  tau(   1) = (   0.0000000   0.0000000   1.0017346  )
         2           Pt  tau(   2) = (   0.3333333   0.0000000   1.0017346  )
         3           Pt  tau(   3) = (   0.6666667   0.0000000   1.0017346  )
         4           Pt  tau(   4) = (   0.1666667   0.2886751   1.0017346  )
         5           Pt  tau(   5) = (   0.5000000   0.2886751   1.0017346  )
         6           Pt  tau(   6) = (   0.8333333   0.2886751   1.0017346  )
         7           Pt  tau(   7) = (   0.3333333   0.5773503   1.0017346  )
         8           Pt  tau(   8) = (   0.6666667   0.5773503   1.0017346  )
         9           Pt  tau(   9) = (   1.0000000   0.5773503   1.0017346  )
        10           Pt  tau(  10) = (   0.1666667   0.0962250   1.2739001  )
        11           Pt  tau(  11) = (   0.5000000   0.0962250   1.2739001  )
        12           Pt  tau(  12) = (   0.8333333   0.0962250   1.2739001  )
        13           Pt  tau(  13) = (   0.3333333   0.3849002   1.2739001  )
        14           Pt  tau(  14) = (   0.6666667   0.3849002   1.2739001  )
        15           Pt  tau(  15) = (   1.0000000   0.3849002   1.2739001  )
        16           Pt  tau(  16) = (   0.5000000   0.6735753   1.2739001  )
        17           Pt  tau(  17) = (   0.8333333   0.6735753   1.2739001  )
        18           Pt  tau(  18) = (   1.1666667   0.6735753   1.2739001  )
        19           Pt  tau(  19) = (  -0.0015771   0.1901972   1.5489766  )
        20           Pt  tau(  20) = (   0.3363202   0.1902116   1.5489924  )
        21           Pt  tau(  21) = (   0.6673706   0.1887789   1.5466243  )
        22           Pt  tau(  22) = (   0.1673092   0.4759811   1.5437674  )
        23           Pt  tau(  23) = (   0.5004305   0.4738993   1.5449938  )
        24           Pt  tau(  24) = (   0.8342586   0.4739179   1.5448694  )
        25           Pt  tau(  25) = (   0.3356477   0.7640140   1.5405113  )
        26           Pt  tau(  26) = (   0.6672635   0.7667961   1.5400391  )
        27           Pt  tau(  27) = (   0.9989235   0.7640371   1.5405403  )
        28           Pt  tau(  28) = (   0.0010635  -0.0094442   1.8165055  )
        29           Pt  tau(  29) = (   0.3345988  -0.0095022   1.8164881  )
        30           Pt  tau(  30) = (   0.6678793  -0.0206497   1.8076928  )
        31           Pt  tau(  31) = (   0.1679529   0.2776283   1.8212853  )
        32           Pt  tau(  32) = (   0.5049778   0.2773829   1.8434619  )
        33           Pt  tau(  33) = (   0.8308253   0.2771143   1.8431180  )
        34           Pt  tau(  34) = (   0.3351168   0.5645134   1.8181332  )
        35           Pt  tau(  35) = (   0.6679237   0.5727869   1.8099080  )
        36           Pt  tau(  36) = (   1.0007577   0.5645482   1.8180545  )
        37           C   tau(  37) = (   0.6681105   0.2503212   2.0238150  )
        38           C   tau(  38) = (   0.6706807   0.3384688   2.1787775  )
        39           C   tau(  39) = (   0.6685028   0.5178073   2.1876462  )
        40           H   tau(  40) = (   0.6675148   0.1243331   2.0545158  )
        41           H   tau(  41) = (   0.5700421   0.2912863   2.2455991  )
        42           H   tau(  42) = (   0.7757660   0.2938696   2.2403561  )
        43           H   tau(  43) = (   0.6715003   0.5547697   2.3111016  )
        44           H   tau(  44) = (   0.7709302   0.5695247   2.1290097  )
        45           H   tau(  45) = (   0.5615549   0.5665002   2.1359766  )

     number of k points=    13  Marzari-Vanderbilt smearing, width (Ry)=  0.0200
                       cart. coord. in units 2pi/alat
        k(    1) = (   0.0000000   0.0000000   0.0000000), wk =   0.0800000
        k(    2) = (   0.0000000   0.2309401   0.0000000), wk =   0.1600000
        k(    3) = (   0.0000000   0.4618802   0.0000000), wk =   0.1600000
        k(    4) = (   0.2000000  -0.1154701   0.0000000), wk =   0.1600000
        k(    5) = (   0.2000000   0.1154701   0.0000000), wk =   0.1600000
        k(    6) = (   0.2000000   0.3464102   0.0000000), wk =   0.1600000
        k(    7) = (   0.2000000  -0.5773503   0.0000000), wk =   0.1600000
        k(    8) = (   0.2000000  -0.3464102   0.0000000), wk =   0.1600000
        k(    9) = (   0.4000000  -0.2309401   0.0000000), wk =   0.1600000
        k(   10) = (   0.4000000  -0.0000000   0.0000000), wk =   0.1600000
        k(   11) = (   0.4000000   0.2309401   0.0000000), wk =   0.1600000
        k(   12) = (   0.4000000  -0.6928203   0.0000000), wk =   0.1600000
        k(   13) = (   0.4000000  -0.4618802   0.0000000), wk =   0.1600000

     Dense  grid:   743079 G-vectors     FFT dimensions: (  80,  80, 270)

     Estimated max dynamical RAM per process >       9.05 GB

     Check: negative core charge=   -0.000002

     Initial potential from superposition of free atoms

     starting charge  377.99371, renormalised to  378.00000

     negative rho (up, down):  1.117E-02 0.000E+00


     %%%%%%%%%%%%%%%%%%%%%%%%%%%%%%%%%%%%%%%%%%%%%%%%%%%%%%%%%%%%%%%%%%%%%%%%
     %                                                                      %
     % You are using vdW-DF, which was implemented by the Thonhauser group. %
     % Please cite the following two papers that made this development      %
     % possible and the two reviews that describe the various versions:     %
     %                                                                      %
     %   T. Thonhauser et al., PRL 115, 136402 (2015).                      %
     %   T. Thonhauser et al., PRB 76, 125112 (2007).                       %
     %   K. Berland et al., Rep. Prog. Phys. 78, 066501 (2015).             %
     %   D.C. Langreth et al., J. Phys.: Condens. Matter 21, 084203 (2009). %
     %                                                                      %
     %                                                                      %
     % If you are calculating the stress with vdW-DF, please also cite:     %
     %                                                                      %
     %   R. Sabatini et al., J. Phys.: Condens. Matter 24, 424209 (2012).   %
     %                                                                      %
     %%%%%%%%%%%%%%%%%%%%%%%%%%%%%%%%%%%%%%%%%%%%%%%%%%%%%%%%%%%%%%%%%%%%%%%%


     Starting wfcs are  342 randomized atomic wfcs
     Checking if some PAW data can be deallocated... 

     total cpu time spent up to now is      363.6 secs

     Self-consistent Calculation

     iteration #  1     ecut=    60.00 Ry     beta= 0.70
     Davidson diagonalization with overlap
     ethr =  1.00E-02,  avg # of iterations =  3.1

     Threshold (ethr) on eigenvalues was too large:
     Diagonalizing with lowered threshold

     Davidson diagonalization with overlap
     ethr =  8.22E-04,  avg # of iterations =  2.5

     negative rho (up, down):  1.099E-02 0.000E+00

     total cpu time spent up to now is     1762.7 secs

     total energy              =  -27818.37918568 Ry
     estimated scf accuracy    <       3.37170571 Ry

     iteration #  2     ecut=    60.00 Ry     beta= 0.70
     Davidson diagonalization with overlap
     ethr =  8.92E-04,  avg # of iterations =  2.8

     negative rho (up, down):  9.075E-03 0.000E+00

     total cpu time spent up to now is     2414.2 secs

     total energy              =  -27818.50223642 Ry
     estimated scf accuracy    <       1.38980458 Ry

     iteration #  3     ecut=    60.00 Ry     beta= 0.70
     Davidson diagonalization with overlap
     ethr =  3.68E-04,  avg # of iterations =  3.9

     negative rho (up, down):  5.909E-03 0.000E+00

     total cpu time spent up to now is     3073.3 secs

     total energy              =  -27818.52964078 Ry
     estimated scf accuracy    <       0.57033736 Ry

     iteration #  4     ecut=    60.00 Ry     beta= 0.70
     Davidson diagonalization with overlap
     ethr =  1.51E-04,  avg # of iterations = 11.7

     negative rho (up, down):  4.390E-03 0.000E+00

     total cpu time spent up to now is     3892.3 secs

     total energy              =  -27818.58371570 Ry
     estimated scf accuracy    <       0.33323411 Ry

     iteration #  5     ecut=    60.00 Ry     beta= 0.70
     Davidson diagonalization with overlap
     ethr =  8.82E-05,  avg # of iterations =  3.1

     negative rho (up, down):  2.717E-03 0.000E+00

     total cpu time spent up to now is     4541.6 secs

     total energy              =  -27818.58943732 Ry
     estimated scf accuracy    <       0.05649395 Ry

     iteration #  6     ecut=    60.00 Ry     beta= 0.70
     Davidson diagonalization with overlap
     c_bands:  1 eigenvalues not converged
     c_bands:  1 eigenvalues not converged
     c_bands:  3 eigenvalues not converged
     c_bands:  1 eigenvalues not converged
     c_bands:  1 eigenvalues not converged
     ethr =  1.49E-05,  avg # of iterations = 14.0

     negative rho (up, down):  2.272E-03 0.000E+00

     total cpu time spent up to now is     5591.3 secs

     total energy              =  -27818.60252461 Ry
     estimated scf accuracy    <       0.03552120 Ry

     iteration #  7     ecut=    60.00 Ry     beta= 0.70
     Davidson diagonalization with overlap
     ethr =  9.40E-06,  avg # of iterations =  4.4

     negative rho (up, down):  2.179E-03 0.000E+00

     total cpu time spent up to now is     6249.7 secs

     total energy              =  -27818.60285048 Ry
     estimated scf accuracy    <       0.02832747 Ry

     iteration #  8     ecut=    60.00 Ry     beta= 0.70
     Davidson diagonalization with overlap
     c_bands:  2 eigenvalues not converged
     c_bands:  1 eigenvalues not converged
     ethr =  7.49E-06,  avg # of iterations = 12.5

     negative rho (up, down):  3.051E-03 0.000E+00

     total cpu time spent up to now is     7022.0 secs

     total energy              =  -27818.60348970 Ry
     estimated scf accuracy    <       0.01413378 Ry

     iteration #  9     ecut=    60.00 Ry     beta= 0.70
     Davidson diagonalization with overlap
     c_bands:  1 eigenvalues not converged
     c_bands:  1 eigenvalues not converged
     ethr =  3.74E-06,  avg # of iterations = 12.2

     negative rho (up, down):  5.974E-03 0.000E+00

     total cpu time spent up to now is     7774.1 secs

     total energy              =  -27818.60391948 Ry
     estimated scf accuracy    <       0.00399128 Ry

     iteration # 10     ecut=    60.00 Ry     beta= 0.70
     Davidson diagonalization with overlap
     c_bands:  1 eigenvalues not converged
     c_bands:  1 eigenvalues not converged
     c_bands:  1 eigenvalues not converged
     c_bands:  1 eigenvalues not converged
     c_bands:  1 eigenvalues not converged
     ethr =  1.06E-06,  avg # of iterations = 13.3

     negative rho (up, down):  7.155E-03 0.000E+00

     total cpu time spent up to now is     8522.4 secs

     total energy              =  -27818.60416442 Ry
     estimated scf accuracy    <       0.00173414 Ry

     iteration # 11     ecut=    60.00 Ry     beta= 0.70
     Davidson diagonalization with overlap
     ethr =  4.59E-07,  avg # of iterations =  2.2

     negative rho (up, down):  8.025E-03 0.000E+00

     total cpu time spent up to now is     9160.5 secs

     total energy              =  -27818.60433803 Ry
     estimated scf accuracy    <       0.00098484 Ry

     iteration # 12     ecut=    60.00 Ry     beta= 0.70
     Davidson diagonalization with overlap
     ethr =  2.61E-07,  avg # of iterations =  4.6

     negative rho (up, down):  7.925E-03 0.000E+00

     total cpu time spent up to now is     9805.9 secs

     total energy              =  -27818.60443315 Ry
     estimated scf accuracy    <       0.00054988 Ry

     iteration # 13     ecut=    60.00 Ry     beta= 0.70
     Davidson diagonalization with overlap
     ethr =  1.45E-07,  avg # of iterations =  2.0

     negative rho (up, down):  9.095E-03 0.000E+00

     total cpu time spent up to now is    10444.8 secs

     total energy              =  -27818.60447616 Ry
     estimated scf accuracy    <       0.00027173 Ry

     iteration # 14     ecut=    60.00 Ry     beta= 0.70
     Davidson diagonalization with overlap
     ethr =  7.19E-08,  avg # of iterations =  3.8

     negative rho (up, down):  8.808E-03 0.000E+00

     total cpu time spent up to now is    11112.0 secs

     total energy              =  -27818.60449580 Ry
     estimated scf accuracy    <       0.00015325 Ry

     iteration # 15     ecut=    60.00 Ry     beta= 0.70
     Davidson diagonalization with overlap
     ethr =  4.05E-08,  avg # of iterations =  2.0

     negative rho (up, down):  9.399E-03 0.000E+00

     total cpu time spent up to now is    11741.5 secs

     total energy              =  -27818.60448803 Ry
     estimated scf accuracy    <       0.00010324 Ry

     iteration # 16     ecut=    60.00 Ry     beta= 0.70
     Davidson diagonalization with overlap
     ethr =  2.73E-08,  avg # of iterations =  1.6

     negative rho (up, down):  1.102E-02 0.000E+00

     total cpu time spent up to now is    12352.3 secs

     total energy              =  -27818.60448386 Ry
     estimated scf accuracy    <       0.00005090 Ry

     iteration # 17     ecut=    60.00 Ry     beta= 0.70
     Davidson diagonalization with overlap
     ethr =  1.35E-08,  avg # of iterations =  2.0

     negative rho (up, down):  1.183E-02 0.000E+00

     total cpu time spent up to now is    13032.7 secs

     total energy              =  -27818.60448741 Ry
     estimated scf accuracy    <       0.00003438 Ry

     iteration # 18     ecut=    60.00 Ry     beta= 0.70
     Davidson diagonalization with overlap
     ethr =  9.09E-09,  avg # of iterations =  1.7

     negative rho (up, down):  1.239E-02 0.000E+00

     total cpu time spent up to now is    13666.4 secs

     total energy              =  -27818.60448858 Ry
     estimated scf accuracy    <       0.00001632 Ry

     iteration # 19     ecut=    60.00 Ry     beta= 0.70
     Davidson diagonalization with overlap
     ethr =  4.32E-09,  avg # of iterations =  2.0

     negative rho (up, down):  1.270E-02 0.000E+00

     total cpu time spent up to now is    14357.6 secs

     total energy              =  -27818.60448952 Ry
     estimated scf accuracy    <       0.00000502 Ry

     iteration # 20     ecut=    60.00 Ry     beta= 0.70
     Davidson diagonalization with overlap
     ethr =  1.33E-09,  avg # of iterations =  4.2

     negative rho (up, down):  1.277E-02 0.000E+00

     total cpu time spent up to now is    15232.8 secs

     total energy              =  -27818.60449070 Ry
     estimated scf accuracy    <       0.00000289 Ry

     iteration # 21     ecut=    60.00 Ry     beta= 0.70
     Davidson diagonalization with overlap
     ethr =  7.64E-10,  avg # of iterations =  2.0

     negative rho (up, down):  1.275E-02 0.000E+00

     total cpu time spent up to now is    15871.2 secs

     total energy              =  -27818.60449093 Ry
     estimated scf accuracy    <       0.00000149 Ry

     iteration # 22     ecut=    60.00 Ry     beta= 0.70
     Davidson diagonalization with overlap
     ethr =  3.94E-10,  avg # of iterations =  1.7

     negative rho (up, down):  1.288E-02 0.000E+00

     total cpu time spent up to now is    16466.3 secs

     End of self-consistent calculation

          k = 0.0000 0.0000 0.0000 ( 92939 PWs)   bands (ev):

   -13.2830 -10.6892  -8.1196  -6.9791  -5.6999  -5.0231  -4.8093  -4.7076
    -4.6382  -4.6057  -4.5858  -4.5700  -4.5558  -4.5522  -4.5251  -4.2464
    -4.0489  -4.0399  -4.0367  -4.0115  -4.0093  -3.9578  -3.5967  -3.5753
    -3.5734  -3.5642  -3.5589  -3.4509  -3.3685  -3.3591  -3.3547  -3.3500
    -3.3354  -3.2397  -3.1582  -3.1526  -3.1424  -3.1406  -3.1355  -3.1110
    -3.0852  -3.0808  -3.0587  -3.0510  -3.0226  -2.8905  -2.6898  -2.6161
    -2.5168  -2.5136  -2.4965  -2.4869  -2.4691  -2.4427  -2.4322  -2.3911
    -2.3871  -2.3747  -2.2610  -2.2603  -2.1698  -2.1248  -2.0068  -1.7760
    -1.7674  -1.7079  -1.7014  -1.6902  -1.6364  -1.6165  -1.5679  -1.5249
    -1.5156  -1.5122  -1.4998  -1.4900  -1.4840  -1.4693  -1.4662  -1.4418
    -1.4309  -1.4249  -1.4145  -1.4102  -1.4014  -1.3701  -1.3239  -1.3038
    -1.2933  -1.2429  -1.2022  -1.1590  -1.1274  -1.0784  -1.0591  -1.0489
    -1.0319  -1.0243  -1.0010  -1.0003  -0.9551  -0.9374  -0.8942  -0.8568
    -0.8560  -0.8492  -0.8163  -0.8149  -0.7675  -0.7581  -0.6919  -0.6675
    -0.6618  -0.6036  -0.5456  -0.5199  -0.3732  -0.2472  -0.2450  -0.1911
    -0.1864  -0.1506  -0.1412  -0.1306  -0.1080  -0.0849  -0.0416   0.0036
     0.0265   0.0290   0.0621   0.1068   0.1082   0.1220   0.1662   0.2247
     0.2627   0.3133   0.3231   0.3426   0.3638   0.3892   0.5057   0.5533
     0.5569   0.5741   0.5827   0.5999   0.6301   0.6473   0.7052   0.8173
     0.8381   0.8408   0.8434   0.8703   0.9334   0.9437   0.9788   0.9862
     1.0088   1.0106   1.0207   1.0288   1.0335   1.0514   1.0576   1.0893
     1.1026   1.1119   1.1129   1.1572   1.1706   1.1882   1.2142   1.2414
     1.2471   1.2518   1.2679   1.2767   1.2953   1.3202   1.3358   1.3857
     1.3907   1.3941   1.4166   1.4257   1.4316   1.4648   1.4883   1.4988
     1.5136   1.5220   1.5557   1.5597   1.6847   1.7083   1.7872   1.8201
     1.8241   1.8518   1.8597   1.8703   2.2487   2.3062   2.6559   2.7036
     2.7257   2.7366   2.8429   3.6979   4.3894   4.9680   4.9838   5.0712
     5.1057   5.5586   5.6278   6.0911   6.4344   6.6134   6.6265   6.6504
     6.6622   6.6775   6.7945

          k = 0.0000 0.2309 0.0000 ( 92836 PWs)   bands (ev):

   -13.2829 -10.6895  -8.1144  -6.8365  -5.5659  -5.1325  -4.9786  -4.8204
    -4.6753  -4.6705  -4.5978  -4.4710  -4.4049  -4.3376  -4.3232  -4.2763
    -4.1177  -4.0126  -3.9860  -3.9613  -3.9570  -3.9387  -3.6529  -3.5484
    -3.5355  -3.5300  -3.4589  -3.4475  -3.4150  -3.4064  -3.3855  -3.3663
    -3.3423  -3.2436  -3.2328  -3.2303  -3.1577  -3.1497  -3.1207  -3.1134
    -2.9871  -2.9479  -2.9396  -2.9131  -2.8755  -2.8327  -2.7221  -2.6716
    -2.6326  -2.6014  -2.5756  -2.5505  -2.5202  -2.4559  -2.4397  -2.3292
    -2.3210  -2.2704  -2.2636  -2.2347  -2.1574  -2.1510  -2.0124  -1.9472
    -1.8736  -1.8705  -1.8051  -1.7948  -1.7597  -1.7438  -1.7258  -1.6847
    -1.6759  -1.6552  -1.6170  -1.5726  -1.5366  -1.5209  -1.4953  -1.4749
    -1.4686  -1.4189  -1.4034  -1.3410  -1.3144  -1.3066  -1.2975  -1.2668
    -1.2304  -1.2256  -1.1941  -1.1410  -1.1298  -1.1058  -1.0965  -1.0687
    -1.0257  -1.0235  -1.0108  -0.9678  -0.9430  -0.9368  -0.9222  -0.9048
    -0.8906  -0.8705  -0.8495  -0.8187  -0.8106  -0.7556  -0.7194  -0.7038
    -0.6588  -0.6351  -0.6333  -0.5831  -0.5806  -0.5635  -0.5484  -0.5365
    -0.4895  -0.2500  -0.2219  -0.1910  -0.1866  -0.1459  -0.1303  -0.1189
    -0.0968  -0.0498  -0.0426  -0.0003   0.1115   0.1318   0.1759   0.1828
     0.2427   0.2558   0.3011   0.3074   0.3220   0.3827   0.4134   0.4201
     0.4457   0.4732   0.4942   0.6099   0.6191   0.6452   0.6563   0.6758
     0.6933   0.7295   0.7699   0.7901   0.8478   0.8739   0.8881   0.9211
     0.9377   0.9662   0.9858   1.0296   1.0608   1.0812   1.0937   1.1446
     1.1669   1.2094   1.2132   1.2401   1.2851   1.2997   1.3326   1.3685
     1.3725   1.4110   1.4352   1.4613   1.4636   1.4882   1.4976   1.5121
     1.5265   1.5582   1.5621   1.6734   1.6966   1.7040   1.7555   1.7864
     1.7928   1.8224   1.8346   1.8420   1.8624   1.9032   1.9464   1.9760
     2.0041   2.1266   2.1304   2.1829   2.2001   2.3512   2.5363   3.0428
     3.0634   3.3041   3.4853   3.8026   4.1062   4.6183   5.0714   5.1662
     5.4743   5.5206   5.7069   5.7567   5.8309   6.1527   6.4158   6.4254
     6.5411   6.7694   6.8594

          k = 0.0000 0.4619 0.0000 ( 92866 PWs)   bands (ev):

   -13.2828 -10.6898  -8.1065  -6.4252  -5.7972  -5.2080  -4.9673  -4.8346
    -4.7190  -4.6933  -4.6340  -4.4391  -4.2903  -4.2068  -4.0884  -4.0049
    -3.9982  -3.9610  -3.8715  -3.8593  -3.7947  -3.7730  -3.7594  -3.6601
    -3.6180  -3.6058  -3.5789  -3.5597  -3.5406  -3.4739  -3.4168  -3.4149
    -3.2123  -3.1952  -3.1764  -3.1640  -3.1407  -3.1238  -3.0696  -2.9622
    -2.9429  -2.9105  -2.9065  -2.8847  -2.8544  -2.7552  -2.6855  -2.6350
    -2.6035  -2.5744  -2.5439  -2.5402  -2.4857  -2.4685  -2.4397  -2.4335
    -2.4183  -2.3711  -2.3151  -2.2170  -2.2084  -2.1877  -2.1630  -2.1127
    -2.0547  -2.0197  -1.9733  -1.9681  -1.9332  -1.8406  -1.8030  -1.7981
    -1.7618  -1.7181  -1.6864  -1.6718  -1.6157  -1.6051  -1.5898  -1.5812
    -1.5414  -1.4592  -1.4410  -1.4386  -1.4009  -1.3905  -1.3461  -1.3188
    -1.3092  -1.2953  -1.2754  -1.2671  -1.2585  -1.2216  -1.1904  -1.1744
    -1.1316  -1.1216  -1.0929  -1.0810  -1.0451  -1.0258  -0.9714  -0.9355
    -0.9292  -0.8711  -0.8691  -0.8309  -0.8136  -0.7890  -0.7049  -0.7020
    -0.6512  -0.6499  -0.6107  -0.5914  -0.5617  -0.5494  -0.4366  -0.3748
    -0.3429  -0.3232  -0.3024  -0.2465  -0.2310  -0.2034  -0.1939  -0.1450
    -0.1446  -0.1291  -0.1134  -0.0902  -0.0621  -0.0346  -0.0337   0.0156
     0.0335   0.0773   0.1267   0.1276   0.1398   0.2569   0.2751   0.3360
     0.3386   0.4402   0.4485   0.4922   0.5795   0.5947   0.6434   0.6539
     0.6770   0.7104   0.7210   0.7534   0.7923   0.8097   0.8336   0.8891
     0.9012   0.9669   0.9679   0.9896   1.0171   1.0481   1.0505   1.1422
     1.1551   1.2509   1.2545   1.2871   1.3352   1.3460   1.3903   1.4025
     1.4476   1.4757   1.4927   1.5367   1.5779   1.5943   1.6129   1.6790
     1.7105   1.7242   1.7461   1.7659   1.7692   1.8166   1.8254   1.9646
     1.9958   2.0003   2.0143   2.0191   2.1288   2.2236   2.4241   2.4887
     2.6370   2.7364   3.0325   3.0371   3.2817   3.3484   3.4857   3.5335
     3.8075   3.9592   4.2597   4.2817   4.3518   4.3843   4.5393   4.6502
     4.8488   4.8867   5.1218   5.2604   5.5683   5.7669   6.0390   6.0708
     6.4235   6.5333   6.6311

          k = 0.2000-0.1155 0.0000 ( 92836 PWs)   bands (ev):

   -13.2829 -10.6891  -8.1138  -6.8359  -5.5627  -5.1109  -4.9972  -4.7993
    -4.7149  -4.6699  -4.5758  -4.4681  -4.3742  -4.3653  -4.3333  -4.1990
    -4.1512  -4.1084  -3.9762  -3.9569  -3.9437  -3.8736  -3.6619  -3.5474
    -3.5365  -3.5309  -3.5097  -3.4475  -3.4306  -3.4054  -3.3579  -3.3321
    -3.3197  -3.2994  -3.2549  -3.2388  -3.1575  -3.1447  -3.1366  -3.1191
    -3.0222  -2.9488  -2.9184  -2.8906  -2.8829  -2.8331  -2.6974  -2.6752
    -2.6179  -2.5955  -2.5731  -2.5417  -2.5226  -2.4913  -2.4520  -2.3630
    -2.3119  -2.2627  -2.2457  -2.2207  -2.1802  -2.1471  -2.0435  -1.9757
    -1.8892  -1.8712  -1.8288  -1.8082  -1.7720  -1.7434  -1.7058  -1.6827
    -1.6540  -1.6445  -1.6094  -1.5846  -1.5651  -1.5318  -1.5127  -1.4685
    -1.4240  -1.3988  -1.3677  -1.3473  -1.3314  -1.3124  -1.2894  -1.2760
    -1.2544  -1.2133  -1.1892  -1.1541  -1.1417  -1.1083  -1.0942  -1.0816
    -1.0591  -1.0199  -0.9994  -0.9759  -0.9531  -0.9269  -0.9107  -0.9036
    -0.8910  -0.8535  -0.8309  -0.8049  -0.7646  -0.7535  -0.7205  -0.6753
    -0.6548  -0.6367  -0.6265  -0.5925  -0.5745  -0.5585  -0.5504  -0.5141
    -0.4026  -0.3349  -0.2396  -0.2229  -0.1912  -0.1380  -0.1275  -0.1106
    -0.1029  -0.0264   0.0165   0.0567   0.1136   0.1423   0.1816   0.2106
     0.2347   0.2634   0.2944   0.3148   0.3501   0.3772   0.4058   0.4463
     0.4666   0.4726   0.4947   0.5485   0.6307   0.6591   0.6654   0.6973
     0.7094   0.7472   0.7785   0.8167   0.8323   0.8574   0.8658   0.9010
     0.9354   0.9572   0.9850   1.0237   1.0591   1.0804   1.0963   1.1301
     1.1628   1.1941   1.2252   1.2492   1.2671   1.2929   1.3475   1.3601
     1.3916   1.4195   1.4343   1.4465   1.4619   1.4899   1.5017   1.5108
     1.5195   1.5638   1.5766   1.6665   1.7016   1.7139   1.7352   1.7478
     1.7626   1.7988   1.8077   1.8291   1.8432   1.8921   1.9515   1.9774
     2.0090   2.0633   2.1361   2.1522   2.1929   2.4764   2.5313   2.8381
     3.2478   3.3360   3.4315   3.6449   4.4277   4.5329   4.8649   5.2419
     5.4829   5.5061   5.6832   5.7311   5.8315   6.3186   6.4327   6.4989
     6.5513   6.7160   6.8498

          k = 0.2000 0.1155 0.0000 ( 92836 PWs)   bands (ev):

   -13.2829 -10.6891  -8.1138  -6.8359  -5.5629  -5.1158  -4.9907  -4.8040
    -4.7144  -4.6654  -4.5768  -4.4683  -4.3776  -4.3653  -4.3299  -4.1995
    -4.1501  -4.1075  -3.9773  -3.9587  -3.9447  -3.8737  -3.6604  -3.5479
    -3.5372  -3.5309  -3.5112  -3.4459  -3.4300  -3.4046  -3.3593  -3.3319
    -3.3195  -3.3000  -3.2539  -3.2377  -3.1608  -3.1436  -3.1366  -3.1194
    -3.0230  -2.9486  -2.9198  -2.8874  -2.8810  -2.8326  -2.7074  -2.6702
    -2.6179  -2.5944  -2.5700  -2.5409  -2.5224  -2.4862  -2.4555  -2.3624
    -2.3145  -2.2645  -2.2428  -2.2216  -2.1786  -2.1484  -2.0428  -1.9722
    -1.8884  -1.8725  -1.8256  -1.8056  -1.7685  -1.7398  -1.7078  -1.6849
    -1.6578  -1.6479  -1.6107  -1.5851  -1.5647  -1.5329  -1.5139  -1.4651
    -1.4283  -1.3992  -1.3696  -1.3549  -1.3281  -1.3112  -1.2894  -1.2743
    -1.2537  -1.2069  -1.1861  -1.1535  -1.1429  -1.1095  -1.0960  -1.0827
    -1.0608  -1.0208  -0.9989  -0.9757  -0.9524  -0.9274  -0.9098  -0.9030
    -0.8911  -0.8552  -0.8313  -0.8041  -0.7649  -0.7536  -0.7210  -0.6747
    -0.6553  -0.6365  -0.6274  -0.5919  -0.5739  -0.5584  -0.5502  -0.5150
    -0.4043  -0.3343  -0.2364  -0.2230  -0.1912  -0.1403  -0.1280  -0.1121
    -0.1042  -0.0265   0.0167   0.0567   0.1126   0.1407   0.1799   0.2104
     0.2361   0.2601   0.2951   0.3141   0.3495   0.3767   0.4056   0.4474
     0.4658   0.4722   0.4952   0.5499   0.6295   0.6588   0.6650   0.6976
     0.7096   0.7470   0.7792   0.8173   0.8332   0.8577   0.8669   0.9015
     0.9361   0.9566   0.9853   1.0247   1.0593   1.0808   1.0953   1.1299
     1.1627   1.1941   1.2249   1.2480   1.2665   1.2909   1.3475   1.3600
     1.3919   1.4184   1.4339   1.4453   1.4621   1.4902   1.5020   1.5106
     1.5202   1.5617   1.5747   1.6674   1.7014   1.7138   1.7357   1.7484
     1.7636   1.8002   1.8094   1.8312   1.8467   1.8932   1.9511   1.9770
     2.0086   2.0636   2.1369   2.1525   2.1933   2.4782   2.5326   2.8405
     3.2453   3.3341   3.4310   3.6454   4.4240   4.5349   4.8690   5.2420
     5.4824   5.5051   5.6834   5.7334   5.8302   6.3182   6.4316   6.4963
     6.5508   6.7125   6.8526

          k = 0.2000 0.3464 0.0000 ( 92848 PWs)   bands (ev):

   -13.2828 -10.6894  -8.1074  -6.5576  -5.3677  -5.3486  -5.2934  -4.9683
    -4.7929  -4.4722  -4.2876  -4.2678  -4.2573  -4.2353  -4.2061  -4.1869
    -4.1748  -4.0894  -4.0691  -3.9434  -3.7356  -3.7106  -3.6825  -3.6694
    -3.6041  -3.5705  -3.4717  -3.4591  -3.4416  -3.4148  -3.3621  -3.3331
    -3.2990  -3.2868  -3.2729  -3.2281  -3.1955  -3.1784  -3.1444  -3.1170
    -3.0476  -2.9958  -2.8246  -2.7783  -2.7459  -2.6984  -2.6682  -2.6532
    -2.6300  -2.6180  -2.5931  -2.5660  -2.5342  -2.4514  -2.4157  -2.3828
    -2.3341  -2.2873  -2.2661  -2.2338  -2.2097  -2.1940  -2.1592  -2.1113
    -2.0445  -1.9481  -1.9359  -1.9221  -1.8596  -1.8353  -1.8122  -1.7967
    -1.7805  -1.7358  -1.7008  -1.6492  -1.6034  -1.5825  -1.5523  -1.5274
    -1.5107  -1.4917  -1.4565  -1.4133  -1.3856  -1.3794  -1.3285  -1.2874
    -1.2764  -1.2598  -1.2162  -1.2036  -1.1943  -1.1709  -1.1523  -1.1443
    -1.1068  -1.0769  -1.0579  -1.0086  -0.9773  -0.9556  -0.9427  -0.9192
    -0.8979  -0.8745  -0.8542  -0.8438  -0.8129  -0.8079  -0.7845  -0.7744
    -0.7337  -0.7175  -0.6784  -0.6527  -0.6337  -0.5862  -0.5144  -0.4835
    -0.4401  -0.3720  -0.3323  -0.2840  -0.2730  -0.1955  -0.1727  -0.1495
    -0.1278  -0.1015  -0.0848  -0.0582  -0.0202   0.0019   0.0177   0.0652
     0.1419   0.1923   0.2138   0.2490   0.2676   0.3004   0.3215   0.3844
     0.4054   0.4557   0.4909   0.5116   0.5416   0.5897   0.6110   0.6229
     0.6788   0.7176   0.7419   0.7577   0.7932   0.8141   0.8274   0.8508
     0.8605   0.8723   0.8935   0.9374   1.0129   1.0545   1.0914   1.1593
     1.1813   1.2880   1.3352   1.3672   1.3906   1.4065   1.4565   1.4891
     1.5084   1.5370   1.5487   1.5810   1.5883   1.5941   1.6123   1.6267
     1.6544   1.6955   1.7217   1.7472   1.7868   1.8033   1.8187   1.8643
     1.9493   1.9991   2.0469   2.0637   2.0912   2.1190   2.1356   2.2187
     2.2716   2.5248   2.7707   2.7909   2.9697   3.1422   3.3467   3.3724
     3.6687   3.7355   4.0167   4.1740   4.2785   4.3341   4.4609   4.9011
     5.1878   5.4710   5.6133   5.6789   5.7923   5.9347   6.1374   6.1704
     6.2204   6.2918   6.4130

          k = 0.2000-0.5774 0.0000 ( 92844 PWs)   bands (ev):

   -13.2827 -10.6896  -8.1036  -6.0750  -5.9873  -5.4249  -5.0505  -4.8364
    -4.7914  -4.7358  -4.3699  -4.2880  -4.1902  -4.1168  -4.0942  -3.9869
    -3.9676  -3.8864  -3.8610  -3.8164  -3.7671  -3.7450  -3.7269  -3.7022
    -3.6625  -3.6063  -3.5866  -3.5341  -3.5192  -3.5092  -3.4948  -3.3954
    -3.2957  -3.2696  -3.1886  -3.1624  -3.1582  -3.1278  -3.1164  -3.0562
    -3.0283  -3.0186  -2.9220  -2.8941  -2.7605  -2.7436  -2.6833  -2.6501
    -2.5851  -2.5496  -2.5163  -2.4998  -2.4827  -2.4190  -2.3681  -2.3474
    -2.2946  -2.2751  -2.2590  -2.2082  -2.1992  -2.1396  -2.1138  -2.1013
    -2.0825  -2.0652  -2.0420  -2.0172  -2.0104  -1.9545  -1.8914  -1.8609
    -1.8244  -1.8023  -1.7356  -1.6999  -1.6761  -1.6454  -1.6349  -1.5967
    -1.5886  -1.5531  -1.5478  -1.4810  -1.4582  -1.4471  -1.4237  -1.3895
    -1.3576  -1.3335  -1.2652  -1.2430  -1.2284  -1.2073  -1.1942  -1.1369
    -1.1035  -1.0469  -1.0262  -0.9897  -0.9800  -0.9753  -0.9604  -0.9387
    -0.9081  -0.9022  -0.8693  -0.8470  -0.8314  -0.8207  -0.7897  -0.7727
    -0.7511  -0.7297  -0.7222  -0.7103  -0.6984  -0.5936  -0.5252  -0.4454
    -0.4007  -0.3721  -0.3218  -0.2966  -0.2632  -0.2368  -0.2012  -0.1792
    -0.1664  -0.1531  -0.1042  -0.0821  -0.0502  -0.0426   0.0062   0.0230
     0.0932   0.1073   0.1268   0.1752   0.2321   0.3065   0.3322   0.3644
     0.4144   0.4383   0.4703   0.4751   0.5075   0.5293   0.5509   0.5719
     0.5982   0.6217   0.6824   0.7238   0.7400   0.7617   0.7810   0.7992
     0.8059   0.9076   0.9354   0.9650   1.0342   1.1149   1.1474   1.2181
     1.2335   1.3244   1.3274   1.3504   1.3548   1.4398   1.4614   1.5029
     1.5278   1.5439   1.5649   1.5845   1.6410   1.6634   1.7057   1.7262
     1.7451   1.7472   1.7770   1.7891   1.7980   1.8669   1.9513   1.9905
     1.9993   2.0098   2.0252   2.0683   2.1010   2.1693   2.2582   2.8480
     3.1129   3.1522   3.1679   3.3130   3.4000   3.5209   3.5434   3.6155
     4.0539   4.1689   4.2485   4.3326   4.6189   4.6470   4.7234   4.7599
     4.9578   5.0315   5.1032   5.1162   5.3268   5.5478   5.6366   6.0297
     6.1455   6.2323   6.2622

          k = 0.2000-0.3464 0.0000 ( 92848 PWs)   bands (ev):

   -13.2828 -10.6894  -8.1074  -6.5574  -5.3669  -5.3478  -5.2934  -4.9700
    -4.7926  -4.4717  -4.2875  -4.2678  -4.2543  -4.2352  -4.2058  -4.1892
    -4.1777  -4.0893  -4.0694  -3.9438  -3.7326  -3.7076  -3.6831  -3.6697
    -3.6010  -3.5719  -3.4719  -3.4590  -3.4412  -3.4164  -3.3628  -3.3369
    -3.2998  -3.2868  -3.2739  -3.2285  -3.1953  -3.1758  -3.1456  -3.1175
    -3.0434  -2.9958  -2.8241  -2.7794  -2.7461  -2.7002  -2.6670  -2.6546
    -2.6278  -2.6172  -2.5924  -2.5658  -2.5359  -2.4605  -2.4160  -2.3841
    -2.3329  -2.2854  -2.2669  -2.2343  -2.2116  -2.1922  -2.1585  -2.1112
    -2.0461  -1.9499  -1.9385  -1.9234  -1.8635  -1.8374  -1.8123  -1.7976
    -1.7809  -1.7363  -1.7007  -1.6476  -1.6023  -1.5808  -1.5487  -1.5226
    -1.5083  -1.4922  -1.4580  -1.4126  -1.3852  -1.3773  -1.3293  -1.2880
    -1.2783  -1.2598  -1.2157  -1.2026  -1.1933  -1.1699  -1.1528  -1.1428
    -1.1057  -1.0755  -1.0581  -1.0085  -0.9781  -0.9563  -0.9420  -0.9190
    -0.8977  -0.8734  -0.8544  -0.8437  -0.8152  -0.8082  -0.7853  -0.7743
    -0.7335  -0.7174  -0.6798  -0.6525  -0.6340  -0.5854  -0.5136  -0.4815
    -0.4380  -0.3707  -0.3308  -0.2846  -0.2742  -0.1922  -0.1726  -0.1490
    -0.1257  -0.1012  -0.0864  -0.0579  -0.0194   0.0012   0.0188   0.0630
     0.1405   0.1936   0.2156   0.2497   0.2686   0.3005   0.3202   0.3849
     0.4060   0.4563   0.4910   0.5125   0.5419   0.5906   0.6105   0.6231
     0.6793   0.7164   0.7421   0.7573   0.7920   0.8128   0.8262   0.8492
     0.8608   0.8707   0.8908   0.9367   1.0123   1.0548   1.0920   1.1610
     1.1827   1.2882   1.3353   1.3672   1.3915   1.4065   1.4568   1.4903
     1.5064   1.5350   1.5493   1.5826   1.5891   1.5950   1.6136   1.6274
     1.6555   1.6951   1.7233   1.7457   1.7886   1.8058   1.8190   1.8656
     1.9466   1.9962   2.0430   2.0602   2.0882   2.1179   2.1353   2.2189
     2.2725   2.5254   2.7725   2.7914   2.9728   3.1405   3.3434   3.3709
     3.6653   3.7358   4.0166   4.1741   4.2784   4.3347   4.4615   4.9010
     5.1868   5.4696   5.6130   5.6768   5.7937   5.9343   6.1376   6.1717
     6.2215   6.2914   6.4130

          k = 0.4000-0.2309 0.0000 ( 92866 PWs)   bands (ev):

   -13.2828 -10.6888  -8.1048  -6.4208  -5.7934  -5.1849  -4.9954  -4.8154
    -4.7386  -4.7038  -4.5864  -4.3548  -4.3311  -4.2006  -4.0878  -4.0338
    -4.0085  -3.9782  -3.8608  -3.8060  -3.7791  -3.7730  -3.7492  -3.6517
    -3.6172  -3.5985  -3.5676  -3.5413  -3.5361  -3.4905  -3.4428  -3.4306
    -3.4233  -3.2174  -3.1851  -3.1725  -3.1492  -3.1457  -3.0918  -2.9525
    -2.9323  -2.9192  -2.9113  -2.8797  -2.8321  -2.7203  -2.6793  -2.6439
    -2.6077  -2.5772  -2.5403  -2.5313  -2.4882  -2.4758  -2.4400  -2.4285
    -2.3995  -2.3906  -2.3260  -2.2493  -2.2350  -2.2209  -2.1631  -2.0995
    -2.0759  -2.0589  -2.0098  -1.9940  -1.9289  -1.8532  -1.8207  -1.7886
    -1.7712  -1.7269  -1.7059  -1.6880  -1.6429  -1.5978  -1.5497  -1.5355
    -1.4937  -1.4606  -1.4397  -1.4041  -1.3919  -1.3840  -1.3576  -1.3351
    -1.3079  -1.2855  -1.2789  -1.2520  -1.2379  -1.2157  -1.1978  -1.1631
    -1.1335  -1.1174  -1.0914  -1.0790  -1.0563  -1.0044  -0.9579  -0.9260
    -0.8856  -0.8691  -0.8537  -0.8230  -0.8073  -0.7550  -0.7119  -0.6868
    -0.6496  -0.6308  -0.6013  -0.5505  -0.5277  -0.4858  -0.4183  -0.3863
    -0.3431  -0.3182  -0.2968  -0.2578  -0.2482  -0.2165  -0.1927  -0.1583
    -0.1333  -0.1190  -0.0970  -0.0874  -0.0713  -0.0271  -0.0194   0.0021
     0.0542   0.1024   0.1347   0.1617   0.1889   0.2317   0.2698   0.3613
     0.3876   0.4114   0.4652   0.5035   0.5423   0.5971   0.6371   0.6440
     0.6887   0.7158   0.7320   0.7525   0.7957   0.8045   0.8372   0.8751
     0.9109   0.9556   0.9868   0.9988   1.0164   1.0358   1.0971   1.1410
     1.1922   1.2308   1.2693   1.2931   1.3094   1.3625   1.3893   1.4164
     1.4444   1.4918   1.5017   1.5331   1.5657   1.6018   1.6122   1.6749
     1.6995   1.7130   1.7424   1.7489   1.7579   1.7851   1.7949   1.9402
     1.9583   1.9842   1.9990   2.0056   2.1197   2.2242   2.3369   2.4636
     2.6365   2.7386   3.0171   3.0488   3.1766   3.2713   3.4476   3.6383
     3.7787   4.0164   4.2625   4.2738   4.3299   4.4549   4.5421   4.5868
     4.7515   4.9078   5.0051   5.3783   5.5947   5.8518   6.0453   6.1232
     6.3537   6.5445   6.6833

          k = 0.4000-0.0000 0.0000 ( 92848 PWs)   bands (ev):

   -13.2828 -10.6887  -8.1063  -6.5554  -5.3828  -5.3289  -5.2793  -4.9842
    -4.7868  -4.4123  -4.2668  -4.2632  -4.2523  -4.2453  -4.2422  -4.2026
    -4.1598  -4.0910  -4.0715  -3.9858  -3.6987  -3.6852  -3.6697  -3.6590
    -3.5944  -3.5853  -3.4627  -3.4562  -3.4499  -3.4259  -3.4130  -3.3432
    -3.3311  -3.2934  -3.2804  -3.2369  -3.2124  -3.1807  -3.1564  -3.1422
    -3.0473  -3.0048  -2.8087  -2.7742  -2.7252  -2.6918  -2.6797  -2.6561
    -2.6434  -2.6193  -2.5967  -2.5406  -2.4981  -2.4656  -2.4306  -2.4131
    -2.3728  -2.2927  -2.2853  -2.2213  -2.2061  -2.1981  -2.1491  -2.1148
    -2.0633  -1.9987  -1.9413  -1.9292  -1.8839  -1.8450  -1.8298  -1.7918
    -1.7655  -1.7493  -1.7237  -1.6444  -1.5953  -1.5721  -1.5503  -1.5340
    -1.5005  -1.4774  -1.4343  -1.3978  -1.3751  -1.3424  -1.3251  -1.2961
    -1.2731  -1.2566  -1.2307  -1.2037  -1.1948  -1.1696  -1.1527  -1.1018
    -1.0794  -1.0617  -1.0298  -1.0176  -0.9781  -0.9484  -0.9336  -0.9164
    -0.9136  -0.8890  -0.8511  -0.8291  -0.8223  -0.8107  -0.7891  -0.7652
    -0.7225  -0.7020  -0.6607  -0.6365  -0.6152  -0.5571  -0.5195  -0.4863
    -0.4574  -0.4038  -0.3267  -0.2652  -0.2551  -0.1860  -0.1710  -0.1234
    -0.1043  -0.0834  -0.0710  -0.0597   0.0009   0.0096   0.0242   0.0660
     0.1306   0.1643   0.2412   0.2698   0.2829   0.3072   0.3526   0.3765
     0.4090   0.4295   0.4761   0.5418   0.5663   0.5722   0.5905   0.6465
     0.6776   0.7206   0.7460   0.7648   0.7746   0.7830   0.8161   0.8233
     0.8519   0.8634   0.9141   0.9686   1.0025   1.0428   1.0673   1.1619
     1.2222   1.2716   1.3335   1.3698   1.3920   1.4202   1.4512   1.4883
     1.5121   1.5339   1.5459   1.5629   1.5962   1.5973   1.6135   1.6303
     1.6487   1.6800   1.7398   1.7714   1.7822   1.7979   1.8168   1.8595
     1.9179   1.9909   2.0113   2.0440   2.1026   2.1322   2.1498   2.2370
     2.2789   2.3658   2.7476   2.8172   3.0802   3.1841   3.3123   3.3648
     3.3901   3.7892   4.0536   4.1503   4.2518   4.3091   4.5306   4.9565
     5.1923   5.4540   5.4726   5.7169   5.8470   5.9972   6.0909   6.1693
     6.2596   6.3326   6.5164

          k = 0.4000 0.2309 0.0000 ( 92866 PWs)   bands (ev):

   -13.2828 -10.6888  -8.1048  -6.4211  -5.7943  -5.1872  -4.9913  -4.8176
    -4.7374  -4.6994  -4.5901  -4.3563  -4.3334  -4.2003  -4.0880  -4.0337
    -4.0062  -3.9773  -3.8634  -3.8073  -3.7788  -3.7744  -3.7500  -3.6524
    -3.6169  -3.5970  -3.5682  -3.5419  -3.5367  -3.4921  -3.4431  -3.4295
    -3.4229  -3.2149  -3.1845  -3.1712  -3.1478  -3.1436  -3.0909  -2.9511
    -2.9324  -2.9181  -2.9101  -2.8787  -2.8316  -2.7277  -2.6801  -2.6417
    -2.6081  -2.5764  -2.5419  -2.5321  -2.4858  -2.4751  -2.4370  -2.4286
    -2.3972  -2.3887  -2.3268  -2.2504  -2.2341  -2.2185  -2.1628  -2.0979
    -2.0725  -2.0535  -2.0077  -1.9922  -1.9274  -1.8526  -1.8204  -1.7914
    -1.7739  -1.7281  -1.7067  -1.6880  -1.6455  -1.6010  -1.5493  -1.5434
    -1.4966  -1.4624  -1.4415  -1.4039  -1.3918  -1.3815  -1.3566  -1.3343
    -1.3083  -1.2850  -1.2774  -1.2536  -1.2379  -1.2156  -1.1982  -1.1632
    -1.1328  -1.1145  -1.0905  -1.0789  -1.0550  -1.0043  -0.9571  -0.9280
    -0.8866  -0.8716  -0.8547  -0.8232  -0.8069  -0.7587  -0.7119  -0.6888
    -0.6496  -0.6297  -0.6019  -0.5518  -0.5289  -0.4857  -0.4187  -0.3877
    -0.3414  -0.3183  -0.2967  -0.2578  -0.2479  -0.2135  -0.1904  -0.1579
    -0.1323  -0.1211  -0.0975  -0.0881  -0.0722  -0.0298  -0.0201  -0.0009
     0.0532   0.1003   0.1338   0.1613   0.1878   0.2300   0.2684   0.3597
     0.3855   0.4116   0.4658   0.5059   0.5445   0.5988   0.6353   0.6436
     0.6882   0.7150   0.7350   0.7537   0.7970   0.8059   0.8378   0.8754
     0.9122   0.9560   0.9871   0.9995   1.0162   1.0344   1.0965   1.1401
     1.1904   1.2315   1.2687   1.2929   1.3080   1.3612   1.3893   1.4165
     1.4428   1.4914   1.5000   1.5323   1.5639   1.6009   1.6085   1.6737
     1.7006   1.7139   1.7430   1.7496   1.7586   1.7875   1.7980   1.9411
     1.9595   1.9886   2.0002   2.0107   2.1192   2.2241   2.3369   2.4652
     2.6364   2.7398   3.0171   3.0481   3.1767   3.2706   3.4482   3.6391
     3.7811   4.0169   4.2628   4.2735   4.3312   4.4538   4.5409   4.5885
     4.7546   4.9079   5.0053   5.3787   5.5945   5.8523   6.0467   6.1225
     6.3517   6.5481   6.6794

          k = 0.4000-0.6928 0.0000 ( 92844 PWs)   bands (ev):

   -13.2827 -10.6889  -8.1025  -6.0401  -6.0187  -5.4300  -5.0215  -4.8720
    -4.7783  -4.7118  -4.3775  -4.2552  -4.1976  -4.1175  -4.0893  -3.9833
    -3.9616  -3.8763  -3.8600  -3.7782  -3.7619  -3.7532  -3.7239  -3.7099
    -3.6833  -3.6451  -3.5583  -3.5495  -3.5336  -3.4907  -3.4752  -3.4314
    -3.3587  -3.2855  -3.2378  -3.1853  -3.1761  -3.1323  -3.0967  -3.0875
    -3.0428  -2.9618  -2.9064  -2.9005  -2.7434  -2.7153  -2.6889  -2.6515
    -2.6225  -2.5734  -2.5262  -2.4901  -2.4334  -2.4071  -2.3757  -2.3371
    -2.3118  -2.2825  -2.2516  -2.2378  -2.2056  -2.1652  -2.1203  -2.1149
    -2.0868  -2.0743  -2.0506  -2.0278  -2.0000  -1.9750  -1.9279  -1.8812
    -1.8330  -1.8041  -1.7684  -1.6957  -1.6591  -1.6563  -1.6155  -1.6025
    -1.5650  -1.5399  -1.4948  -1.4819  -1.4587  -1.4371  -1.4017  -1.3856
    -1.3591  -1.3044  -1.2694  -1.2323  -1.2198  -1.2137  -1.1888  -1.1383
    -1.0767  -1.0427  -1.0269  -0.9957  -0.9757  -0.9552  -0.9474  -0.9235
    -0.8991  -0.8751  -0.8668  -0.8506  -0.8263  -0.8081  -0.7849  -0.7749
    -0.7648  -0.7537  -0.7312  -0.6947  -0.6289  -0.6094  -0.4932  -0.4503
    -0.3966  -0.3678  -0.3397  -0.2987  -0.2790  -0.2313  -0.2116  -0.1888
    -0.1688  -0.1658  -0.1091  -0.0858  -0.0466  -0.0323   0.0083   0.0311
     0.0696   0.1108   0.1426   0.2067   0.2671   0.3049   0.3633   0.3984
     0.4134   0.4301   0.4563   0.4852   0.5079   0.5366   0.5630   0.5800
     0.5898   0.6351   0.6855   0.6992   0.7413   0.7572   0.7771   0.8028
     0.8231   0.8792   0.9409   0.9998   1.0539   1.0751   1.1868   1.2137
     1.2360   1.2537   1.3058   1.3540   1.3910   1.4186   1.4845   1.5187
     1.5337   1.5500   1.5716   1.5856   1.6222   1.6362   1.7013   1.7279
     1.7320   1.7550   1.7762   1.7854   1.8057   1.8650   1.9214   1.9691
     1.9912   2.0041   2.0240   2.0653   2.0994   2.1871   2.3066   2.7867
     2.8673   3.1589   3.1739   3.4119   3.4554   3.5229   3.5431   3.7423
     3.9132   4.1326   4.1825   4.2752   4.6109   4.6912   4.7464   4.7868
     4.8872   5.0135   5.0848   5.2133   5.4190   5.5114   5.6175   5.9499
     6.1619   6.2420   6.3348

          k = 0.4000-0.4619 0.0000 ( 92844 PWs)   bands (ev):

   -13.2827 -10.6889  -8.1025  -6.0394  -6.0185  -5.4309  -5.0139  -4.8860
    -4.7778  -4.7048  -4.3790  -4.2523  -4.1962  -4.1180  -4.0896  -3.9856
    -3.9617  -3.8744  -3.8597  -3.7781  -3.7631  -3.7529  -3.7237  -3.7102
    -3.6842  -3.6446  -3.5573  -3.5487  -3.5327  -3.4889  -3.4766  -3.4310
    -3.3578  -3.2866  -3.2396  -3.1861  -3.1764  -3.1339  -3.0979  -3.0883
    -3.0444  -2.9609  -2.9080  -2.9021  -2.7421  -2.7122  -2.6899  -2.6492
    -2.6229  -2.5723  -2.5246  -2.4888  -2.4391  -2.4053  -2.3748  -2.3368
    -2.3119  -2.2836  -2.2563  -2.2435  -2.2053  -2.1653  -2.1225  -2.1154
    -2.0878  -2.0731  -2.0506  -2.0286  -2.0010  -1.9744  -1.9288  -1.8811
    -1.8318  -1.8043  -1.7697  -1.6966  -1.6575  -1.6553  -1.6138  -1.5996
    -1.5635  -1.5360  -1.4939  -1.4829  -1.4589  -1.4364  -1.4008  -1.3852
    -1.3594  -1.3068  -1.2696  -1.2347  -1.2196  -1.2132  -1.1882  -1.1374
    -1.0746  -1.0413  -1.0262  -0.9981  -0.9770  -0.9561  -0.9458  -0.9184
    -0.8974  -0.8766  -0.8684  -0.8499  -0.8282  -0.8096  -0.7851  -0.7749
    -0.7641  -0.7539  -0.7301  -0.6936  -0.6302  -0.6093  -0.4911  -0.4481
    -0.3962  -0.3685  -0.3382  -0.2994  -0.2799  -0.2315  -0.2119  -0.1878
    -0.1685  -0.1650  -0.1098  -0.0863  -0.0443  -0.0316   0.0081   0.0303
     0.0702   0.1109   0.1453   0.2081   0.2675   0.3049   0.3623   0.3971
     0.4128   0.4299   0.4549   0.4851   0.5080   0.5371   0.5620   0.5801
     0.5895   0.6350   0.6852   0.6984   0.7403   0.7589   0.7769   0.8024
     0.8235   0.8795   0.9411   1.0002   1.0547   1.0760   1.1866   1.2130
     1.2348   1.2546   1.3054   1.3538   1.3903   1.4195   1.4854   1.5196
     1.5343   1.5519   1.5710   1.5877   1.6202   1.6351   1.7009   1.7274
     1.7323   1.7563   1.7778   1.7876   1.8064   1.8657   1.9216   1.9676
     1.9893   2.0030   2.0186   2.0637   2.0963   2.1869   2.3075   2.7845
     2.8697   3.1590   3.1743   3.4103   3.4566   3.5256   3.5431   3.7426
     3.9111   4.1312   4.1820   4.2748   4.6110   4.6911   4.7445   4.7858
     4.8827   5.0111   5.0856   5.2149   5.4159   5.5139   5.6192   5.9484
     6.1636   6.2455   6.3347

     the Fermi energy is     1.7811 ev

!    total energy              =  -27818.60449061 Ry

     total all-electron energy =  -1326878.662177 Ry
     estimated scf accuracy    <       0.00000021 Ry
     smearing contrib. (-TS)   =       0.00292644 Ry
     internal energy E=F+TS    =  -27818.60741705 Ry

     The total energy is F=E-TS. E is the sum of the following terms:
     one-electron contribution =  -29335.96802008 Ry
     hartree contribution      =   14971.55138445 Ry
     xc contribution           =    -909.01091842 Ry
     ewald contribution        =   12948.41931012 Ry
     one-center paw contrib.   =  -25493.59917313 Ry

     convergence has been achieved in  22 iterations

     negative rho (up, down):  1.288E-02 0.000E+00

     Forces acting on atoms (cartesian axes, Ry/au):

     atom    1 type  1   force =    -0.00166896    0.00082975   -0.00554874
     atom    2 type  1   force =     0.00147334    0.00080265   -0.00551887
     atom    3 type  1   force =    -0.00011623    0.00090752   -0.00455091
     atom    4 type  1   force =    -0.00009862    0.00060895   -0.00284568
     atom    5 type  1   force =    -0.00060589    0.00039717   -0.00316596
     atom    6 type  1   force =     0.00040182    0.00038340   -0.00317666
     atom    7 type  1   force =    -0.00008100    0.00122631   -0.00379738
     atom    8 type  1   force =    -0.00010849    0.00183818   -0.00365989
     atom    9 type  1   force =    -0.00011471    0.00123624   -0.00382302
     atom   10 type  1   force =     0.00025517    0.00047716   -0.00001996
     atom   11 type  1   force =    -0.00189462    0.00120543    0.00542732
     atom   12 type  1   force =     0.00238567    0.00113805    0.00524651
     atom   13 type  1   force =     0.00042424   -0.00425842    0.00996485
     atom   14 type  1   force =     0.00022896   -0.00223311    0.00888859
     atom   15 type  1   force =     0.00023938   -0.00429920    0.00982946
     atom   16 type  1   force =     0.00128089   -0.00172682   -0.00184081
     atom   17 type  1   force =    -0.00072134   -0.00166895   -0.00182941
     atom   18 type  1   force =     0.00027757   -0.00236932    0.00045270
     atom   19 type  1   force =     0.00021103    0.00005786   -0.00053371
     atom   20 type  1   force =    -0.00029648   -0.00000697   -0.00049318
     atom   21 type  1   force =    -0.00023013   -0.00017146    0.00018288
     atom   22 type  1   force =    -0.00003729   -0.00007589   -0.00068170
     atom   23 type  1   force =    -0.00001893    0.00057874    0.00026674
     atom   24 type  1   force =    -0.00021339    0.00052825    0.00049434
     atom   25 type  1   force =    -0.00069662    0.00029655   -0.00023441
     atom   26 type  1   force =    -0.00008525    0.00017252   -0.00101680
     atom   27 type  1   force =     0.00049648    0.00043773   -0.00019839
     atom   28 type  1   force =    -0.00004085    0.00046462    0.00035953
     atom   29 type  1   force =     0.00012595    0.00067787    0.00037908
     atom   30 type  1   force =    -0.00019244    0.00039229    0.00030567
     atom   31 type  1   force =    -0.00010678    0.00063015    0.00023472
     atom   32 type  1   force =     0.00009350    0.00054357    0.00030583
     atom   33 type  1   force =    -0.00013389    0.00053316   -0.00042004
     atom   34 type  1   force =     0.00025084    0.00028432    0.00013905
     atom   35 type  1   force =    -0.00013132    0.00029210    0.00020097
     atom   36 type  1   force =    -0.00048165    0.00009674    0.00007023
     atom   37 type  2   force =     0.00066520   -0.00216735    0.00024740
     atom   38 type  2   force =    -0.00061055    0.00144883    0.00089567
     atom   39 type  2   force =     0.00289368   -0.00103601    0.00211758
     atom   40 type  3   force =     0.00012918    0.00016929    0.00022333
     atom   41 type  3   force =    -0.00013832    0.00007996    0.00023458
     atom   42 type  3   force =    -0.00002653    0.00007249    0.00027119
     atom   43 type  3   force =     0.00088450   -0.00011291   -0.00019067
     atom   44 type  3   force =    -0.00105578   -0.00006660    0.00001017
     atom   45 type  3   force =    -0.00281136    0.00138512   -0.00320219

     Total force =     0.007227     Total SCF correction =     0.001315
     SCF correction compared to forces is large: reduce conv_thr to get better values

     negative rho (up, down):  1.288E-02 0.000E+00

     negative rho (up, down):  1.288E-02 0.000E+00

     negative rho (up, down):  1.288E-02 0.000E+00

     negative rho (up, down):  1.288E-02 0.000E+00

     negative rho (up, down):  1.288E-02 0.000E+00

     negative rho (up, down):  1.288E-02 0.000E+00

     negative rho (up, down):  1.288E-02 0.000E+00

     negative rho (up, down):  1.288E-02 0.000E+00

     negative rho (up, down):  1.288E-02 0.000E+00

     negative rho (up, down):  1.288E-02 0.000E+00

     negative rho (up, down):  1.288E-02 0.000E+00

     negative rho (up, down):  1.288E-02 0.000E+00

     negative rho (up, down):  1.288E-02 0.000E+00

     negative rho (up, down):  1.288E-02 0.000E+00

     negative rho (up, down):  1.288E-02 0.000E+00

     negative rho (up, down):  1.288E-02 0.000E+00

     negative rho (up, down):  1.288E-02 0.000E+00

     negative rho (up, down):  1.288E-02 0.000E+00

     negative rho (up, down):  1.288E-02 0.000E+00

     negative rho (up, down):  1.288E-02 0.000E+00

     negative rho (up, down):  1.288E-02 0.000E+00

     negative rho (up, down):  1.288E-02 0.000E+00

     negative rho (up, down):  1.288E-02 0.000E+00

     negative rho (up, down):  1.288E-02 0.000E+00

     negative rho (up, down):  1.288E-02 0.000E+00

     negative rho (up, down):  1.288E-02 0.000E+00

     negative rho (up, down):  1.288E-02 0.000E+00

     negative rho (up, down):  1.288E-02 0.000E+00

     negative rho (up, down):  1.288E-02 0.000E+00

     negative rho (up, down):  1.288E-02 0.000E+00

     negative rho (up, down):  1.288E-02 0.000E+00

     negative rho (up, down):  1.288E-02 0.000E+00

     negative rho (up, down):  1.288E-02 0.000E+00

     negative rho (up, down):  1.288E-02 0.000E+00
 BEEFens 2000 ensemble energies
             -0.608740735989843E+02
             -0.362101630860036E+01
             -0.158601875088303E+02
              0.430867291964856E+02
             -0.221817625338278E+02
             -0.205618666867701E+02
             -0.353843019975484E+02
             -0.867928938091731E+02
             -0.465594813970886E+02
             -0.473538277214277E+02
             -0.370496680830664E+02
              0.230759772056632E+01
              0.407796752958185E+01
              0.758198497929638E+01
              0.266761006598310E+01
              0.476390110608660E+02
             -0.209211921409655E+02
             -0.230025194327210E+02
              0.193883892219004E+02
             -0.112702868545612E+03
              0.538038714756582E+02
             -0.290359767957020E+02
             -0.337201205310462E+01
             -0.114326380477629E+02
             -0.879739604938516E+01
             -0.461614589378320E+01
              0.885225803180917E+02
             -0.188410102009177E+02
             -0.900161071896105E+01
             -0.520145220811264E+02
              0.817016646960240E+02
             -0.186904045162254E+02
             -0.376194734126319E+02
              0.249428111015515E+02
             -0.285930954067021E+01
              0.165317768226467E+02
             -0.483655389986552E+01
              0.107814549335798E+02
              0.289978109140871E+02
             -0.103525998470882E+03
              0.560145183589910E+02
              0.142782257720941E+02
             -0.179531085247299E+01
             -0.362065027820849E+02
              0.123641039095112E+02
             -0.147684355201817E+02
              0.400113995593684E+02
              0.365703927630891E+02
             -0.308362461095603E+02
             -0.276019904034060E+02
             -0.329543606023399E+02
             -0.353356562990696E+02
              0.137409780805072E+02
             -0.492275434532037E+02
              0.116205001818744E+02
              0.624791396563219E+02
              0.637907236907661E+02
              0.356772899658514E+02
              0.154320004117161E+02
              0.271749690514515E+02
              0.894352270012799E+02
              0.212698937998101E+02
             -0.550128729421382E+02
             -0.157114061444994E+02
             -0.236903688119549E+02
              0.631503372923798E+02
             -0.775038780268078E+02
             -0.673565775890438E+02
             -0.260929316145492E+02
             -0.657835184696853E+01
             -0.471408812651620E+02
              0.271537986665271E+02
              0.805297888108873E+01
              0.872849996866159E+01
             -0.398545665543585E+02
             -0.347932513473484E+02
             -0.543849488881135E+02
              0.391059423746220E+02
             -0.297257153562562E+02
              0.266550009848311E+02
             -0.720354245550568E+01
             -0.318661244965641E+02
             -0.577296250892269E+02
             -0.177004032678827E+02
             -0.910052030148813E+01
             -0.124861741562353E+02
              0.413425126530857E+02
              0.685529818184185E+02
             -0.386968729217389E+02
             -0.796772268859516E+02
             -0.220026910193728E+02
              0.111799690766348E+03
             -0.594373249343967E+02
              0.357037742697414E+02
             -0.961159397566416E+01
             -0.664518559165892E+02
              0.254970211291524E+02
              0.398528717902431E+02
             -0.199463693695523E+02
              0.400969062076175E+02
             -0.296467722214709E+02
             -0.480337654318012E+02
              0.869232118197992E+02
              0.455201624262768E+02
              0.336824144107381E+02
              0.146716456773149E+02
              0.206695957336059E+02
              0.858665653708252E+02
             -0.257449847857368E+02
              0.789163566143054E+01
             -0.142766768603458E+03
              0.181386591363649E+02
             -0.718019858349325E+02
              0.151410690655275E+02
              0.205311879732923E+02
             -0.334068820735997E+02
             -0.558568882183511E+02
              0.652436947207309E+01
             -0.305224056029120E+02
              0.309433726263131E+02
             -0.531210664962504E+02
              0.166489060828349E+01
             -0.357981073377740E+02
             -0.423891684952099E+01
             -0.100856819181999E+01
              0.182356698940143E+02
              0.143689037601882E+01
             -0.651379420775788E+01
              0.592654536655113E+02
              0.911026803523728E+02
              0.485755112624270E+02
              0.831707571000163E+02
             -0.115345020725276E+02
              0.143214991566936E+02
              0.542490023357736E+02
             -0.110314412774644E+02
             -0.738170441909418E+02
             -0.385793514108331E+02
             -0.523334760369357E+02
             -0.277539660244084E+02
              0.328051449464974E+02
             -0.117133337967132E+03
             -0.187738163517927E+02
              0.415509646043163E+02
             -0.387286663120566E+02
             -0.366294982367651E+02
              0.546209903114237E+02
              0.402000511759449E+02
             -0.354959785094750E+02
              0.139221627089934E+02
             -0.274158117697633E+02
              0.344245409646621E+02
              0.444156975302445E+01
              0.210987226864223E+02
             -0.887067685403606E+02
             -0.481329888293120E+02
             -0.998409749348025E+01
              0.317495157070469E+01
             -0.368015455136170E+02
              0.106362104869173E+03
             -0.231086449279666E+02
             -0.399450362613012E+02
              0.389697336688457E+02
             -0.495297646780996E+02
             -0.364585846411176E+02
              0.325740290833435E+02
              0.124969460003700E+02
              0.164941071802518E+02
              0.117326573987465E+02
             -0.133149341633118E+02
              0.225213508064336E+02
              0.591495475295122E+02
             -0.312120784727874E+02
              0.162984669001544E+02
              0.937025709676271E+02
              0.341843683536916E+02
             -0.729122691194459E+01
             -0.189493714027064E+02
              0.153802294335421E+03
             -0.165114338067263E+02
              0.364577049814817E+02
              0.195559588073093E+02
              0.361953094812807E+02
              0.894463336210461E+02
              0.544160108638141E+02
             -0.239428210692398E+01
              0.228687648128270E+02
              0.486634193847209E+02
              0.364593102451088E+02
             -0.527434061334426E+02
              0.938765737079136E+02
             -0.828216443569136E+02
             -0.198145726065385E+02
              0.584199591848181E+02
              0.686182712628572E+01
              0.791060004262761E+01
              0.341255844370496E+02
              0.299591184173833E+02
              0.354524856910581E+02
             -0.639293525382670E+02
              0.287005314001783E+01
             -0.298273262197904E+02
             -0.869597774160914E+01
             -0.148385293682327E+01
             -0.730377519513877E+01
             -0.417646131557706E+01
              0.861683871452348E+02
             -0.101081527142134E+02
             -0.277101432417797E+02
             -0.495742568001556E+01
              0.140389202510999E+02
             -0.565921718969114E+02
             -0.409386202747215E+02
             -0.382871867471366E+02
             -0.632306327247464E+02
             -0.170273710229465E+02
             -0.448623713084058E+02
              0.163768348141006E+02
             -0.237626715515142E+01
             -0.104844689011587E+02
             -0.936178279557703E+01
              0.808339000395216E+01
             -0.242586852500984E+02
              0.691372655579358E+02
             -0.810030357826357E+02
             -0.141528568373671E+02
             -0.174158422827624E+02
              0.182202454492249E+02
              0.215565209498526E+02
             -0.465226054424627E+02
             -0.202143437961070E+02
              0.442182301185211E+02
             -0.276507840208432E+02
              0.187616728157609E+02
              0.383543288982399E+02
             -0.323967921014435E+01
              0.114461607744454E+03
             -0.229903323578371E+02
             -0.341833840411515E+02
              0.576801615861240E+01
             -0.229242488827243E+02
              0.529173374969967E+02
             -0.338976014532484E+02
              0.107014701156800E+02
              0.641592569148797E+02
             -0.126516423390423E+02
              0.120594072250535E+03
              0.126250891968202E+03
             -0.651968986955426E+02
              0.592423213077734E+02
              0.167438162045286E+02
             -0.519513481156808E+02
              0.216338147355884E+02
              0.355706104286075E+02
              0.364291992453411E+02
              0.134353834511396E+01
              0.160540842059638E+02
              0.698257653791057E+02
             -0.247644733286887E+02
              0.181585037695855E+02
              0.740568378826821E+02
             -0.373350727278511E+02
             -0.130785557581361E+02
              0.510645642834393E+02
              0.298332581583211E+02
              0.782230982878915E+02
              0.223922826965426E+02
              0.632140539370261E+01
              0.280962197818392E+02
              0.384627201177285E+02
             -0.473933572876044E+02
              0.336537766688286E+01
              0.131276165737996E+02
              0.114295429441324E+02
              0.221398656421162E+02
             -0.576948427624317E+02
              0.366842515760474E+02
             -0.445044454923849E+02
             -0.348546103567401E+02
              0.179026793518638E+02
             -0.181338597941223E+02
              0.557195439830021E+02
             -0.256033414555937E+02
              0.267790213350776E+02
              0.368993998549641E+02
              0.831373184175001E+02
              0.576144762218987E+02
              0.463298949282194E+02
             -0.104971685156905E+02
             -0.397155437711967E+01
             -0.333013958839224E+02
              0.753306832361848E+02
              0.799481792445781E+02
              0.363216743491361E+02
             -0.193018967482487E+02
              0.513232769233630E+02
             -0.162388092905044E+02
              0.214905394209221E+02
              0.616619843102773E+02
              0.213387174881871E+01
             -0.104551011981012E+02
             -0.283208055034351E+02
             -0.514053072908413E+02
              0.948420810104271E+02
              0.441767828246818E+02
             -0.561294519696111E+02
             -0.971843566132878E+01
              0.250342744767803E+02
             -0.997704295222445E+01
              0.594120196121746E+02
              0.152473365535458E+02
              0.801520864830228E+02
              0.280887438238158E+02
             -0.264265202924299E+02
              0.249221240373754E+02
             -0.503455993663778E+01
             -0.324017456468919E+02
              0.133580256934006E+02
              0.205852575263186E+02
              0.935952390457397E+02
              0.799564238595400E+02
              0.552820031852020E+02
              0.732356480860208E+02
              0.804222427861461E+01
             -0.274569374775961E+02
              0.163594327299039E+02
             -0.368678441503301E+02
             -0.478294852227857E+02
             -0.565058420951923E+02
             -0.267557773269300E+02
             -0.110005900744096E+03
             -0.292842277012844E+02
             -0.840059387467085E+02
              0.210982012993455E+02
             -0.478278823372055E+02
              0.398557845720596E+02
             -0.944662512201745E+02
             -0.331087236733467E+02
              0.549059180011342E+02
              0.208304111845289E+02
             -0.833683462432751E+02
              0.632252486710853E+02
             -0.257747827915279E+02
              0.513985908458161E+02
             -0.242861237870644E+02
             -0.753745296963488E+02
              0.112174413764263E+02
             -0.613212054725675E+02
             -0.167746827985720E+02
             -0.150995974328179E+01
              0.419159655481948E+02
              0.127388219930468E+03
             -0.462823725104540E+02
             -0.363623221095811E+02
             -0.100108244678046E+01
             -0.130354705814892E+02
             -0.824999375496325E+02
             -0.598215838195260E+02
              0.518506439115472E+02
             -0.289184693788962E+02
              0.170314526294545E+02
             -0.490671478895296E+02
             -0.132487039594683E+02
             -0.438320960551490E+02
              0.567001703793372E+02
              0.150949623682218E+02
             -0.232462216075465E+02
             -0.127726901402428E+02
              0.673030192704491E+01
             -0.619810014273014E+01
              0.442585425796071E+02
             -0.252636034275419E+02
              0.285363785129107E+01
              0.340685216788840E+02
              0.171308146602332E+02
             -0.160840391329602E+02
              0.156718573874478E+03
              0.540170612052485E+02
              0.120916170523091E+01
              0.161557656732522E+02
             -0.616702609578189E+02
              0.316098636938477E+02
             -0.724254011999435E+02
             -0.253224137836124E+02
             -0.524582138974988E+02
             -0.220738715896442E+02
              0.571269868187524E+02
             -0.538829414790695E+02
              0.162015032493589E+02
             -0.412650700559186E+01
              0.386106867174371E+01
             -0.434567324002309E+02
             -0.479543699315143E+02
             -0.406295587840282E+01
             -0.425374004130901E+02
             -0.217606836367185E+02
             -0.439710724361927E+02
             -0.119353463916641E+02
             -0.359894562338850E+02
             -0.517906704708640E+02
              0.213080968544056E+02
             -0.209176910266491E+02
              0.188755091687598E+02
              0.976475145289486E+01
             -0.740464173565115E+02
             -0.549447736059673E+02
             -0.400165400706658E+02
              0.354797574163890E+02
              0.266116729968863E+01
             -0.628138513118968E+02
              0.587711083937588E+02
             -0.402446110360991E+02
              0.547008860512804E+02
             -0.290721993028721E+02
             -0.447301515829004E+02
              0.298768910842842E+02
             -0.659821103116210E+02
             -0.380794748158515E+02
              0.674174082495354E+02
              0.204755223405716E+02
             -0.361986344680970E+02
              0.491280311070369E+02
             -0.174596309933662E+02
             -0.324240709099744E+02
             -0.302549016947044E+02
             -0.502243441044787E+02
              0.250531534536514E+02
             -0.935817010381730E+02
             -0.842270842879922E+02
             -0.738736048329031E+01
             -0.307778638892970E+02
             -0.577546392967608E+02
              0.724099844204911E+02
              0.131958473330815E+03
             -0.361269592594162E+02
             -0.258468689945192E+01
             -0.638697562998719E+02
              0.652714493535312E+02
              0.171407046610045E+02
             -0.182624027497203E+02
             -0.411049985274639E+02
              0.149015811595436E+02
             -0.587742550856750E+02
             -0.198266309226819E+02
             -0.906924891806245E+02
              0.338097347949965E+02
              0.168977449058801E+02
              0.182686606128073E+01
             -0.713407088366102E+01
             -0.331258623072486E+02
             -0.765160494086456E+01
              0.125969911818964E+03
             -0.199494733413215E+02
             -0.439313680173290E+02
             -0.686193916924238E+02
              0.109884310359823E+02
             -0.343604841826018E+02
              0.596546128485195E+01
              0.262566916752660E+02
              0.102405632619577E+02
              0.279140791608734E+02
              0.120636122924486E+02
              0.631411903094212E+02
              0.317294020617723E+02
             -0.327928179435289E+02
              0.357929259595169E+02
              0.380403920376236E+02
              0.121165720719144E+02
              0.488071431264564E+02
             -0.226149371020950E+02
              0.767715756670068E+02
              0.173347265926661E+02
             -0.273281554983954E+02
             -0.724953536877157E+01
             -0.187068163773218E+02
              0.262179689393332E+02
             -0.234961489335393E+02
             -0.196499484360430E+00
             -0.853175953183893E+01
              0.812257597197590E+02
              0.501871077985134E+02
             -0.688453994166876E+02
             -0.480301702085791E+01
             -0.556607343670884E+02
             -0.159666164941713E+02
             -0.268893473640108E+02
              0.380009850659269E+01
              0.602041441491156E+00
             -0.258595300424550E+02
              0.822066371432118E+01
             -0.605608849528657E+01
             -0.128469761116506E+02
              0.861621984482965E+02
              0.182110716933728E+02
             -0.810035125911355E+02
             -0.459465831961911E+02
              0.948254088303402E+02
              0.278648308495694E+02
             -0.107075531248256E+02
              0.104903557075761E+03
             -0.194887593581784E+02
             -0.123237066641522E+02
             -0.544468534118403E+01
              0.107955610885758E+02
              0.273850688636079E+02
              0.780375800674346E+01
              0.306131816465974E+02
             -0.188141662023004E+02
             -0.305405125638482E+02
             -0.419388305098455E+02
             -0.478225193339269E+02
              0.465168858076924E+02
              0.127172390913259E+02
              0.388785030635383E+02
              0.133997395623583E+02
              0.858554222197455E+02
              0.157105604034040E+02
             -0.848584133412464E+02
             -0.335465536989560E+02
              0.133498174071638E+02
             -0.303516163902497E+02
              0.628575009985201E+02
             -0.890940666535789E+01
              0.149171872408489E+02
              0.498970029869636E+02
             -0.709906497522971E+02
              0.150174760350634E+03
              0.209335328540767E+02
              0.272027852494836E+02
              0.348904194513315E+02
              0.103618298614729E+02
             -0.155752973649373E+01
              0.359169325910621E+02
             -0.358423702419192E+02
              0.776298108561471E+02
              0.687483810094710E+02
             -0.407339107093225E+02
              0.149951506570160E+02
              0.672417855596750E+02
             -0.224394764130079E+02
              0.155205043118187E+02
              0.435779452816632E+02
              0.423280095158103E+02
             -0.787055495157264E+02
             -0.152793603827647E+02
             -0.356606632031033E+02
             -0.149783400858098E+01
             -0.768670368874572E+01
             -0.537144473737885E+01
             -0.180719921088515E+02
             -0.295050993736540E+02
              0.642738681537060E+01
              0.111794074493091E+02
              0.537280914636093E+02
             -0.391951811736296E+02
              0.376359100262973E+02
              0.440177360038962E+02
             -0.186339344117945E+02
              0.874354040761881E+02
             -0.700016910725234E+02
             -0.103512659795758E+03
             -0.665132698535127E+01
             -0.272229360026836E+01
              0.383641642474640E+01
              0.792263057886485E+02
             -0.106902299490217E+02
              0.418165341272907E+02
              0.445721504735106E+02
              0.386491159548981E+02
             -0.999471316737299E+01
              0.628978882863196E+02
             -0.134250041575188E+02
             -0.308763837492240E+02
             -0.480045458659392E+02
              0.592557039536320E+01
              0.370114979731169E+02
             -0.602164140426675E+01
              0.393682691444355E+02
             -0.176642233935911E+01
              0.656766228423687E+02
              0.187570924906357E+02
              0.100215510447537E+02
             -0.121513912302630E+02
              0.332990861104938E+02
              0.363898870464168E+02
              0.232928628129951E+02
             -0.517646658530225E+00
             -0.552287948008817E+02
              0.261864814528864E+02
              0.175893428345841E+02
              0.403285250998390E+02
              0.273115125518480E+02
              0.373673218004235E+02
             -0.606381640951241E+01
              0.252486799758748E+02
             -0.299641781253599E+02
             -0.197514203526760E+01
             -0.570737045934176E+02
             -0.308909657168144E+02
              0.380013081826657E+02
             -0.938322225978881E+02
              0.295026366919340E+02
              0.184411920668257E+02
              0.843157402975774E+02
             -0.300272318585060E+02
              0.330673382124670E+02
             -0.138063276995781E+02
             -0.465657477516806E+02
             -0.763218779367274E+02
             -0.534665102969380E+01
             -0.862928769547477E+02
              0.199698073946649E+02
             -0.248056887378969E+02
              0.306970501087302E+02
              0.238081857818985E+02
             -0.242301609235062E+02
             -0.266597233006452E+02
              0.392210532972851E+02
             -0.590398106673936E+02
             -0.117362881249324E+02
             -0.196657321501465E+02
              0.213705471820095E+02
             -0.884305177397738E+01
              0.364262971092771E+01
             -0.200982078323810E+02
              0.560551268119319E+02
             -0.442094225193780E+02
              0.789010524479795E+01
              0.587544928516959E+02
             -0.324730051805375E+02
              0.362868491655504E+01
             -0.878285854943033E+01
             -0.671210393777317E+02
             -0.483224605951342E+02
             -0.859731774891252E+01
              0.241954321928428E+02
              0.303698531518696E+02
              0.861047676717004E+01
             -0.420747127306925E+01
              0.152302439124431E+02
             -0.440860391080952E+02
              0.329956331599948E+01
             -0.532702882561692E+02
             -0.325768317826077E+02
              0.476478913912078E+02
             -0.296106176574122E+02
              0.624981062621291E+02
             -0.215703724942101E+02
              0.354422896285615E+02
              0.242610505881962E+02
             -0.646025930988455E+02
             -0.280930927036405E+02
              0.936899414445998E+01
             -0.373578192412678E+02
             -0.340783119313522E+02
             -0.833135728581478E+02
             -0.540930762205286E+02
             -0.512074575183254E+02
             -0.417017878549473E+02
             -0.986257690787113E+00
              0.100607382322886E+02
              0.111951898833030E+01
              0.154503120617725E+02
             -0.551231721472901E+02
              0.142478906607903E+02
              0.258110476566969E+02
             -0.668822452430696E+02
             -0.703617112271123E+02
             -0.432793281420388E+02
             -0.173472945162828E+02
              0.178814062663324E+02
              0.453611772360205E+01
             -0.426848397266127E+02
              0.366816983240468E+02
             -0.217021776915093E+02
              0.519004319902183E+02
             -0.890179380746098E+02
              0.600233558495532E+02
             -0.221305007609288E+01
             -0.369872074965115E+02
             -0.217096521847678E+02
              0.471369493165012E+01
              0.376275299569516E+02
             -0.758508954527624E+02
             -0.121115928992860E+02
             -0.217301082505036E+02
[...]
              0.283971732392528E+02
              0.142192532446285E+03
              0.243459656014135E+02
              0.123093013542945E+02
             -0.465580937140082E+02
             -0.639267018068361E+02
             -0.189371419995815E+02
              0.330672655997870E+02
             -0.429331287645630E+01
              0.191241231906469E+02
              0.337455210852512E+02
             -0.587822990540841E+02
              0.223294905616915E+02
              0.582408021773402E+02
              0.554219848931725E+02
             -0.422670156451778E+01
             -0.132812135130587E+01
             -0.995058544914960E+01
             -0.483496136942626E+02
             -0.677116778823336E+02
              0.787537059595180E+02
             -0.526309080332837E+01
             -0.589259034343182E+02
              0.176852328254719E+01
             -0.206256478184719E+02
              0.940866680172362E+02
             -0.217457332527008E+02
             -0.354822049158054E+02
              0.336575575749844E+02
             -0.146391258674737E+02
              0.390996571395936E+02
             -0.230693496158858E+01
              0.101323691143271E+03
              0.491524744545211E+02
             -0.501507359403652E+01
             -0.323293906920776E+02
              0.233199086539947E+02
             -0.530136515955509E+02
             -0.127990363492173E+02
              0.587614306872002E+02
             -0.288552090669079E+02
             -0.439524171687370E+02
             -0.224060698338540E+02
              0.520029084461837E+02
              0.124911144888750E+02
             -0.850883967729262E+02
              0.304817614671472E+02
              0.151994254824787E+02
              0.582017495781110E+01
             -0.514940449780078E+02
             -0.374309423558941E+01
              0.324066560914992E+02
              0.513686837207781E+02
              0.634941082734177E+02
              0.230189296670832E+02
              0.774179784876111E+00
             -0.499878109466852E+02
             -0.511250816125735E+02
             -0.749246985559105E+02
             -0.624781613721268E+01
              0.310046249150141E+02
             -0.376127690993738E+01
              0.548348531856195E+02
             -0.319024733326903E+02
              0.166956564886067E+02
             -0.103689913103143E+02
             -0.290447794203711E+02
              0.587425860492096E+02
              0.793122011326147E+01
              0.606401687325481E+02
              0.509436950145698E+01
              0.265412486922262E+02
             -0.193193939305449E+02
              0.587777125552728E+02
             -0.112313270261257E+02
             -0.103203073768581E+00
             -0.792383016254700E+02
             -0.128398141712698E+02
              0.720868027959418E+02
              0.674610318001096E+02
              0.252968291710589E+02
             -0.130904699050555E+02
              0.349365723994833E+01
             -0.174479523706724E+02
             -0.216705537956975E+01
              0.910637080945565E+02
              0.129278629520820E+01
             -0.191554302257823E+02
             -0.111035439728678E+03
             -0.553293159289058E+02
             -0.376186601169105E+02
             -0.660065332422256E+02
             -0.557411314640653E+02
             -0.684381456931167E+02
             -0.448545874313400E+02
             -0.411461828270517E+02
             -0.453403200436128E+02
              0.484769220847479E+02
             -0.294259583378258E+02
             -0.996697265520640E+02
              0.419940419769576E+02
             -0.261216668110289E+02
             -0.793131426416787E+02
              0.946584888137446E+02
             -0.220637958791874E+02
              0.228257009200904E+02
              0.455801677532735E+02
             -0.125463916171219E+01
              0.255425651056407E+02
              0.469217395275399E+01
              0.417400850293447E+00
             -0.151211538133470E+02
             -0.718115911506312E+02
              0.133381056288536E+02
             -0.129692615959421E+03
              0.626757215211996E+02
             -0.441886065153909E+02
             -0.163707193707609E+02
             -0.158907603474280E+02
              0.723949001000896E+01
             -0.227976625411053E+02
              0.297575381692542E+02
             -0.522339747803061E+02
              0.367979520856839E+02
              0.372438566011976E+02
              0.168234752990947E+02
              0.100999916655597E+02
              0.198468283334296E+02
              0.627173171289803E+01
              0.310875117447313E+02
             -0.798453983545750E+01
             -0.595124560629039E+02
              0.759936794674547E+01
             -0.153771267117373E+02
             -0.195327944643282E+01
              0.508282131169412E+02
             -0.828939065552763E+02
             -0.145734014734325E+01
              0.598495471655895E+00
              0.998630506635402E+01
              0.319272607278973E+02
             -0.123957134853721E+02
              0.838064361957006E+02
              0.488121649794454E+02
             -0.183342725154094E+02
             -0.954593483325050E+01
              0.108461065276725E+01
              0.771573313088616E+02
             -0.587415154417052E+02
             -0.106029946921653E+03
              0.310068147048492E+02
             -0.163629814406019E+02
             -0.140110976071990E+02
              0.131234429553627E+02
              0.770461511140147E+02
              0.465234633122304E+02
             -0.153882143562267E+02
             -0.504769224596423E+02
             -0.554869975689596E+01
              0.307143488887735E+02
             -0.112203513877303E+02
             -0.757989738616295E+02
             -0.277217366747652E+01
             -0.893053705836640E+02
             -0.477223562728629E+02
              0.771478818461183E+02
             -0.485212249411492E+02
             -0.638742851947219E+02
             -0.515754548569867E+02
             -0.351069951092909E+02
              0.342063225685417E+02
              0.824048604334374E+02
             -0.363801983349413E+01
              0.277352907046988E+02
             -0.184537457319893E+02
             -0.696087155533793E+02
              0.466554542341840E+02
             -0.446598285142821E+02
              0.322062457735848E+02
              0.376727771993939E+02
             -0.660878033380652E+01
              0.391052690159786E+02
              0.439152474998524E+02
              0.101073370822901E+03
             -0.155945253698339E+02
             -0.458366236180180E+02
             -0.614698846790434E+02
             -0.124710084982583E+02
             -0.234514748313392E+02
              0.103243755078123E+03
             -0.450377679778998E+02
              0.105477015618353E+02
              0.969641695151017E+01
             -0.265058288415834E+02
             -0.801714202335663E+02
             -0.700959456288405E+01
              0.982775042244630E+02
              0.947373389955115E+01
              0.808844293543143E+01
             -0.529181569937299E+02
             -0.607064162764746E+02
             -0.571692161886004E+01
              0.501772377212434E+02
             -0.222709136087237E+02
              0.108243535435958E+03
             -0.437404162267201E+02
              0.146932233104936E+02
             -0.224079852179106E+02
             -0.720279744796028E+02
              0.171166891736959E+01
             -0.503364545274007E+02
             -0.762699907581413E+02
              0.622192137085881E+01
              0.237444387068930E+01
              0.515604386469327E+02
              0.188140462701195E+02
             -0.324779384202331E+02
              0.230436267024465E+02
             -0.814009728337258E+02
             -0.522882716948606E+02
              0.904323683554267E+02
              0.142072409959187E+02
             -0.187807090698249E+02
             -0.352825614473795E+02
             -0.271559448841879E+01
             -0.592315678792738E+01
              0.833282800826508E+02
              0.419025162793747E+02
             -0.165943413694683E+02
             -0.121374045050642E+02
             -0.428389346674286E+02
             -0.200613977410331E+02
             -0.671509809746254E+02
              0.461302710332769E+02
              0.549247019108009E+01
              0.144967241452121E+02
              0.156925829759137E+02
             -0.629178411668342E+00
             -0.169200779607985E+02
             -0.299061184264044E+01
             -0.100781559065959E+03
             -0.230139154526915E+02
             -0.771042250057383E+01
             -0.949778059869311E+01
              0.547362906198758E+02
              0.625984037630954E+02
              0.165409877639865E+02
             -0.973181725281015E+02
              0.649270663123796E+02
             -0.215571152948689E+02
             -0.378117317864034E+02
             -0.866723344190344E+02
             -0.387218380502622E+02
              0.566831037526633E+02
              0.245496906685320E+02
              0.518200982211607E+01
              0.293386503802038E+02
             -0.566508304600990E+02
             -0.423882916918073E+02
              0.517257235211972E+02
              0.388315103022439E+02
              0.520060346930352E+02
             -0.112233424257744E+01
              0.690519345994767E+01
              0.570920374712256E+02
              0.965438177138534E+02
             -0.300401394899405E+02
              0.324345794199064E+02
             -0.120284517614815E+02
             -0.413319176809689E+02
             -0.315570748266769E+02
             -0.301520256348228E+02
             -0.131852700794598E+02
             -0.524612495846519E+02
             -0.217460753872090E+02
             -0.141526581728815E+03
              0.369765620401078E+02
              0.207585162433232E+02
             -0.396304627381453E+01
             -0.381103244574076E+02
             -0.204467080498180E+02
             -0.528732544836277E+02
              0.151179245235568E+02
              0.822219682522690E+02
             -0.252589830045558E+02
             -0.163654408805195E+02
              0.238867578428249E+02
             -0.491046165678050E+02
              0.882617435068669E+02
              0.154631895627179E+02
              0.226088080808034E+02
              0.491591853638894E+02
              0.314534738602737E+01
              0.543743653061887E+02
              0.143819152248688E+02
             -0.106264273262559E+02
              0.735519138903774E+01
              0.719611727363713E+00
              0.728644026190602E+02
              0.101351581083075E+02
              0.121431426088139E+02
             -0.130392834047308E+02
              0.132599315585264E+02
             -0.913718439583308E+02
             -0.326698289513122E+02
             -0.458918223583714E+02
              0.486316054517202E+02
             -0.292187599754866E+02
             -0.659665360573636E+02
              0.540337173583155E+02
             -0.122129694946118E+02
              0.441147782558636E+02
             -0.901013212809102E+02
              0.232222832951678E+02
              0.856364312814156E+01
              0.588205135041767E+01
             -0.837973834701268E+01
             -0.906468488109215E+01
              0.480712938686896E+02
              0.198374106221422E+01
             -0.476944432003608E+02
             -0.176849959444819E+02
              0.276781956682376E+02
             -0.118242664347282E+03
             -0.931966253851831E+02
              0.394932310331154E+01
              0.118289933819575E+02
             -0.415050040121481E+02
             -0.386573822227950E+01
              0.112365163042326E+03
              0.306936882116911E+02
             -0.573039769209963E+02
              0.927204626966028E+01
             -0.966940433323381E+01
              0.106140094526407E+02
             -0.339005626430696E+02
              0.196332233644041E+02
              0.285297470329098E+02
             -0.302266225348654E+01
              0.108509656317911E+03
             -0.140124437062508E+02
             -0.316639833565897E+02
              0.144017984863167E+02
              0.467571022510384E+02
             -0.356498153081922E+02
             -0.317994964208701E+01
              0.967670760269877E+02
             -0.461728575246150E+01
              0.623200151141376E+02
              0.135880454875818E+02
             -0.901680014543135E+01
             -0.305698195669374E+02
              0.567677768416611E+02
             -0.515867113450603E+02
             -0.218995218024133E+01
             -0.170585763696209E+02
             -0.406179396915764E+02
              0.185369292109309E+02
              0.240344599247310E+02
              0.115866362412939E+02
              0.714745781542319E+00
             -0.385954401951687E+02
              0.215516420212459E+02
             -0.673424376246419E+01
             -0.246921380412696E+02
             -0.211001086154759E+02
              0.203270417827668E+02
             -0.597159416730165E+01
             -0.350342892107564E+02
             -0.106946594228809E+03
              0.103384506350223E+02
              0.248767906586621E+02
             -0.388974957339602E+02
             -0.211851222494564E+02
              0.809524574705897E+02
              0.658034798361030E+01
              0.312447291506554E+02
              0.396847950111919E+01
              0.323218458335398E+02
              0.646583607704696E+01
             -0.374110910060938E+02
             -0.241368929806734E+01
              0.877375247363801E+01
              0.274910174657450E+02
              0.783563757250135E+02
              0.508714980026699E+02
              0.198327998670834E+00
              0.169802888383840E+02
              0.614993415257665E+02
              0.236829450044476E+02
             -0.754460560045535E+02
             -0.274362063082927E+02
              0.151053602242131E+02
              0.565489726649849E+01
              0.255790479391124E+02
             -0.548976408166040E+02
              0.898755194088523E+01
              0.387463699867087E+02
              0.499255522930675E+02
             -0.436088535085394E+02
             -0.686622892583802E+01
             -0.209504909764587E+01
             -0.134306148451215E+02
             -0.365974754099505E+02
             -0.215475406232962E+02
             -0.211287339445668E+01
              0.796644690538290E+01
              0.422564779012881E+02
             -0.309227558097304E+02
              0.828443080913311E+02
              0.328428869335000E+02
              0.220794806066659E+02
              0.334297901577550E+02
              0.323494568151153E+02
              0.347585257679239E+02
              0.538701744865624E+02
             -0.435175724152686E+02
              0.621403310282087E+02
             -0.112608337401725E+03
              0.308140821490892E+02
             -0.106816367350263E+03
              0.856883893642919E+02
              0.692954824100926E+02
             -0.110103409065597E+02
             -0.494301441773339E+02
             -0.430844533076122E+02
             -0.624729321595511E+02
             -0.630731916260549E+02
              0.553535406908517E+02
              0.406739565405155E+02
              0.237478191895327E+02
              0.374098410870487E+02
              0.404848510401598E+02
             -0.383287209787303E+02
             -0.198233578181662E+02
              0.588115078481003E+02
             -0.116584015394568E+02
              0.553362355181183E+02
              0.701891817180722E+02
             -0.558365254840668E+01
             -0.708545366642433E+02
             -0.831418479303238E+00
             -0.247650833614282E+01
             -0.885814323642853E+01
             -0.180942028622866E+01
             -0.654665778204482E+02
             -0.210490932687092E+02
              0.544621599612002E+01
              0.906523158896474E+01
              0.470538581283576E+02
             -0.399170469953298E+02
              0.658187975952583E+02
             -0.426406143202227E+02
              0.211479794612801E+02
              0.351649232725092E+02
 
 BEEF-vdW xc energy contributions
           1 :   -784.724383825282     
           2 :    720.610852747345     
           3 :   -609.699262330908     
           4 :    479.273119377541     
           5 :   -356.975279642440     
           6 :    262.667703686415     
           7 :   -203.950551174595     
           8 :    176.179084247372     
           9 :   -166.549825294478     
          10 :    160.324602435563     
          11 :   -146.649764850005     
          12 :    121.779330850504     
          13 :   -88.8771552266857     
          14 :    55.0524698856976     
          15 :   -27.3337613316240     
          16 :    9.40842966283640     
          17 :  -0.385171946854030     
          18 :   -4.19720551632065     
          19 :    9.84846263985742     
          20 :   -20.4181032750795     
          21 :    36.4425502484127     
          22 :   -55.1948436753041     
          23 :    72.2392977463935     
          24 :   -83.6445983127959     
          25 :    87.7705574259487     
          26 :   -85.8444793173564     
          27 :    81.1616818741790     
          28 :   -77.3932291597595     
          29 :    76.8475927902670     
          30 :   -79.5044918858175     
          31 :   -86.1879986096978     
          32 :   -66.0003626007267     

     Writing output data file ./pwscf.save/
 
     init_run     :    358.71s CPU    363.40s WALL (       1 calls)
     electrons    :  15949.45s CPU  16102.77s WALL (       1 calls)
     forces       :    106.92s CPU    108.22s WALL (       1 calls)

     Called by init_run:
     wfcinit      :    311.29s CPU    314.97s WALL (       1 calls)
     potinit      :     44.40s CPU     44.74s WALL (       1 calls)
     hinit0       :      1.17s CPU      1.21s WALL (       1 calls)

     Called by electrons:
     c_bands      :  13267.92s CPU  13387.31s WALL (      23 calls)
     sum_band     :   1926.93s CPU   1942.00s WALL (      23 calls)
     v_of_rho     :    120.55s CPU    125.62s WALL (      23 calls)
     newd         :     35.44s CPU     49.14s WALL (      23 calls)
     PAW_pot      :    154.82s CPU    154.84s WALL (      23 calls)
     mix_rho      :    488.85s CPU    489.79s WALL (      23 calls)
     vdW_kernel   :     33.51s CPU     33.51s WALL (       1 calls)

     Called by c_bands:
     init_us_2    :     93.15s CPU     93.53s WALL (     624 calls)
     cegterg      :  12312.51s CPU  12431.34s WALL (     299 calls)

     Called by *egterg:
     cdiaghg      :    115.21s CPU    115.30s WALL (    1758 calls)
     h_psi        :   7931.60s CPU   7973.17s WALL (    1784 calls)
     s_psi        :   1289.31s CPU   1289.44s WALL (    1784 calls)
     g_psi        :     18.50s CPU     18.56s WALL (    1472 calls)

     Called by h_psi:
     h_psi:calbec :   1206.45s CPU   1206.76s WALL (    1784 calls)
     vloc_psi     :   5404.82s CPU   5407.10s WALL (    1784 calls)
     add_vuspsi   :   1289.44s CPU   1289.57s WALL (    1784 calls)

     General routines
     calbec       :   1773.39s CPU   1773.82s WALL (    2135 calls)
     fft          :     55.09s CPU     55.13s WALL (    3403 calls)
     ffts         :    157.64s CPU    157.68s WALL (   10276 calls)
     fftw         :   5537.96s CPU   5539.50s WALL (  377647 calls)
 
     Parallel routines
 
     PWSCF        :      4h35m CPU      4h38m WALL

 
   This run was terminated on:  22:16: 5  20May2022            

=------------------------------------------------------------------------------=
   JOB DONE.
=------------------------------------------------------------------------------=
