
     Program PWSCF v.6.7MaX starts on  4Jan2023 at 10: 7: 5 

     This program is part of the open-source Quantum ESPRESSO suite
     for quantum simulation of materials; please cite
         "P. Giannozzi et al., J. Phys.:Condens. Matter 21 395502 (2009);
         "P. Giannozzi et al., J. Phys.:Condens. Matter 29 465901 (2017);
          URL http://www.quantum-espresso.org", 
     in publications or presentations arising from this work. More details at
     http://www.quantum-espresso.org/quote

     Parallel version (MPI), running on     1 processors

     MPI processes distributed on     1 nodes
     Reading input from chcho-bi-ensemble.in
Warning: card &CELL ignored
Warning: card / ignored

     Current dimensions of program PWSCF are:
     Max number of different atomic species (ntypx) = 10
     Max number of k-points (npk) =  40000
     Max angular momentum in pseudopotentials (lmaxx) =  3
     file Pt.pbe-n-kjpaw_psl.1.0.0.UPF: wavefunction(s)  6S 5D renormalized
     file C.pbe-n-kjpaw_psl.1.0.0.UPF: wavefunction(s)  2S 2P renormalized
     file O.pbe-nl-kjpaw_psl.1.0.0.UPF: wavefunction(s)  2S 2P renormalized
     file H.pbe-kjpaw_psl.1.0.0.UPF: wavefunction(s)  1S renormalized

     **************************************************************************
     Initializing libbeef V0.1.2 with the BEEF-vdW functional.
     Citation: Wellendorff et al., PRB 85, 235149 (2012).
     **************************************************************************


     IMPORTANT: XC functional enforced from input :
     Exchange-correlation= BEEF-VDW
                           (   1   4  43  14   2   0   0)
     Any further DFT definition will be discarded
     Please, verify this is what you really want


     Subspace diagonalization in iterative solution of the eigenvalue problem:
     a serial algorithm will be used

 
     G-vector sticks info
     --------------------
     sticks:   dense  smooth     PW     G-vecs:    dense   smooth      PW
     Sum        4267    4267   1159               690405   690405   97393
 


     bravais-lattice index     =            0
     lattice parameter (alat)  =      16.0349  a.u.
     unit-cell volume          =   10992.2919 (a.u.)^3
     number of atoms/cell      =           41
     number of atomic types    =            4
     number of electrons       =       376.00
     number of Kohn-Sham states=          226
     kinetic-energy cutoff     =      60.0000  Ry
     charge density cutoff     =     240.0000  Ry
     scf convergence threshold =      1.0E-06
     mixing beta               =       0.7000
     number of iterations used =            8  local-TF  mixing
     Exchange-correlation= BEEF-VDW
                           (   1   4  43  14   2   0   0)

     celldm(1)=  16.034858  celldm(2)=   0.000000  celldm(3)=   0.000000
     celldm(4)=   0.000000  celldm(5)=   0.000000  celldm(6)=   0.000000

     crystal axes: (cart. coord. in units of alat)
               a(1) = (   1.000000   0.000000   0.000000 )  
               a(2) = (   0.500000   0.866025   0.000000 )  
               a(3) = (   0.000000   0.000000   3.078664 )  

     reciprocal axes: (cart. coord. in units 2 pi/alat)
               b(1) = (  1.000000 -0.577350  0.000000 )  
               b(2) = (  0.000000  1.154701  0.000000 )  
               b(3) = (  0.000000  0.000000  0.324816 )  


     PseudoPot. # 1 for Pt read from file:
     /users/bkreitz1/quantum-espresso/potentials/Pt.pbe-n-kjpaw_psl.1.0.0.UPF
     MD5 check sum: 04dc8a03c51ece93fc7b5889c2958091
     Pseudo is Projector augmented-wave + core cor, Zval = 10.0
     Generated using 'atomic' code by A. Dal Corso  v.6.7MaX
     Shape of augmentation charge: PSQ
     Using radial grid of 1277 points,  6 beta functions with: 
                l(1) =   0
                l(2) =   0
                l(3) =   1
                l(4) =   1
                l(5) =   2
                l(6) =   2
     Q(r) pseudized with 0 coefficients 


     PseudoPot. # 2 for C  read from file:
     /users/bkreitz1/quantum-espresso/potentials/C.pbe-n-kjpaw_psl.1.0.0.UPF
     MD5 check sum: a169b0ebad56f5ec0d79c4633f80bf22
     Pseudo is Projector augmented-wave + core cor, Zval =  4.0
     Generated using 'atomic' code by A. Dal Corso  v.6.7MaX
     Shape of augmentation charge: PSQ
     Using radial grid of 1073 points,  4 beta functions with: 
                l(1) =   0
                l(2) =   0
                l(3) =   1
                l(4) =   1
     Q(r) pseudized with 0 coefficients 


     PseudoPot. # 3 for O  read from file:
     /users/bkreitz1/quantum-espresso/potentials/O.pbe-nl-kjpaw_psl.1.0.0.UPF
     MD5 check sum: eef08af8b58d9ec80f8fdb78829eb7cf
     Pseudo is Projector augmented-wave + core cor, Zval =  6.0
     Generated using 'atomic' code by A. Dal Corso  v.6.7MaX
     Shape of augmentation charge: PSQ
     Using radial grid of 1095 points,  4 beta functions with: 
                l(1) =   0
                l(2) =   0
                l(3) =   1
                l(4) =   1
     Q(r) pseudized with 0 coefficients 


     PseudoPot. # 4 for H  read from file:
     /users/bkreitz1/quantum-espresso/potentials/H.pbe-kjpaw_psl.1.0.0.UPF
     MD5 check sum: ae98473e6dc62675f0d0baffdab24f65
     Pseudo is Projector augmented-wave, Zval =  1.0
     Generated using 'atomic' code by A. Dal Corso  v.6.7MaX
     Shape of augmentation charge: PSQ
     Using radial grid of  929 points,  2 beta functions with: 
                l(1) =   0
                l(2) =   0
     Q(r) pseudized with 0 coefficients 


     atomic species   valence    mass     pseudopotential
        Pt            10.00   195.08400     Pt( 1.00)
        C              4.00    12.01100     C ( 1.00)
        O              6.00    15.99900     O ( 1.00)
        H              1.00     1.00800     H ( 1.00)

     No symmetry found



   Cartesian axes

     site n.     atom                  positions (alat units)
         1           Pt  tau(   1) = (   0.0000000   0.0000000   1.0017346  )
         2           Pt  tau(   2) = (   0.3333333   0.0000000   1.0017346  )
         3           Pt  tau(   3) = (   0.6666667   0.0000000   1.0017346  )
         4           Pt  tau(   4) = (   0.1666667   0.2886751   1.0017346  )
         5           Pt  tau(   5) = (   0.5000000   0.2886751   1.0017346  )
         6           Pt  tau(   6) = (   0.8333333   0.2886751   1.0017346  )
         7           Pt  tau(   7) = (   0.3333333   0.5773503   1.0017346  )
         8           Pt  tau(   8) = (   0.6666667   0.5773503   1.0017346  )
         9           Pt  tau(   9) = (   1.0000000   0.5773503   1.0017346  )
        10           Pt  tau(  10) = (   0.1666667   0.0962250   1.2739001  )
        11           Pt  tau(  11) = (   0.5000000   0.0962250   1.2739001  )
        12           Pt  tau(  12) = (   0.8333333   0.0962250   1.2739001  )
        13           Pt  tau(  13) = (   0.3333333   0.3849002   1.2739001  )
        14           Pt  tau(  14) = (   0.6666667   0.3849002   1.2739001  )
        15           Pt  tau(  15) = (   1.0000000   0.3849002   1.2739001  )
        16           Pt  tau(  16) = (   0.5000000   0.6735753   1.2739001  )
        17           Pt  tau(  17) = (   0.8333333   0.6735753   1.2739001  )
        18           Pt  tau(  18) = (   1.1666667   0.6735753   1.2739001  )
        19           Pt  tau(  19) = (   0.0009213   0.1938926   1.5430898  )
        20           Pt  tau(  20) = (   0.3335715   0.1945509   1.5461926  )
        21           Pt  tau(  21) = (   0.6626498   0.1940181   1.5471407  )
        22           Pt  tau(  22) = (   0.1679150   0.4816398   1.5459715  )
        23           Pt  tau(  23) = (   0.4997627   0.4817709   1.5451223  )
        24           Pt  tau(  24) = (   0.8342499   0.4813504   1.5404155  )
        25           Pt  tau(  25) = (   0.3318947   0.7670434   1.5471517  )
        26           Pt  tau(  26) = (   0.6665554   0.7718794   1.5404651  )
        27           Pt  tau(  27) = (   1.0000892   0.7707990   1.5411947  )
        28           Pt  tau(  28) = (  -0.0012724  -0.0001689   1.8160481  )
        29           Pt  tau(  29) = (   0.3363471   0.0022168   1.8153096  )
        30           Pt  tau(  30) = (   0.6675084   0.0026549   1.8191291  )
        31           Pt  tau(  31) = (   0.1567924   0.2848307   1.8185926  )
        32           Pt  tau(  32) = (   0.5032680   0.2939075   1.8337595  )
        33           Pt  tau(  33) = (   0.8305885   0.2907233   1.8159033  )
        34           Pt  tau(  34) = (   0.3385116   0.5813583   1.8327261  )
        35           Pt  tau(  35) = (   0.6758189   0.5844997   1.8106167  )
        36           Pt  tau(  36) = (   1.0016056   0.5819530   1.8147109  )
        37           C   tau(  37) = (   0.4209458   0.4373985   2.0171033  )
        38           C   tau(  38) = (   0.2982589   0.3765691   2.1171029  )
        39           O   tau(  39) = (   0.1769034   0.3028991   2.0731408  )
        40           H   tau(  40) = (   0.5162532   0.4914701   2.0840282  )
        41           H   tau(  41) = (   0.3090796   0.3952834   2.2459417  )

     number of k points=    13  Marzari-Vanderbilt smearing, width (Ry)=  0.0200
                       cart. coord. in units 2pi/alat
        k(    1) = (   0.0000000   0.0000000   0.0000000), wk =   0.0800000
        k(    2) = (   0.0000000   0.2309401   0.0000000), wk =   0.1600000
        k(    3) = (   0.0000000   0.4618802   0.0000000), wk =   0.1600000
        k(    4) = (   0.2000000  -0.1154701   0.0000000), wk =   0.1600000
        k(    5) = (   0.2000000   0.1154701   0.0000000), wk =   0.1600000
        k(    6) = (   0.2000000   0.3464102   0.0000000), wk =   0.1600000
        k(    7) = (   0.2000000  -0.5773503   0.0000000), wk =   0.1600000
        k(    8) = (   0.2000000  -0.3464102   0.0000000), wk =   0.1600000
        k(    9) = (   0.4000000  -0.2309401   0.0000000), wk =   0.1600000
        k(   10) = (   0.4000000  -0.0000000   0.0000000), wk =   0.1600000
        k(   11) = (   0.4000000   0.2309401   0.0000000), wk =   0.1600000
        k(   12) = (   0.4000000  -0.6928203   0.0000000), wk =   0.1600000
        k(   13) = (   0.4000000  -0.4618802   0.0000000), wk =   0.1600000

     Dense  grid:   690405 G-vectors     FFT dimensions: (  80,  80, 243)

     Estimated max dynamical RAM per process >       8.40 GB

     Check: negative core charge=   -0.000002

     Initial potential from superposition of free atoms

     starting charge  375.99379, renormalised to  376.00000

     negative rho (up, down):  1.125E-02 0.000E+00


     %%%%%%%%%%%%%%%%%%%%%%%%%%%%%%%%%%%%%%%%%%%%%%%%%%%%%%%%%%%%%%%%%%%%%%%%
     %                                                                      %
     % You are using vdW-DF, which was implemented by the Thonhauser group. %
     % Please cite the following two papers that made this development      %
     % possible and the two reviews that describe the various versions:     %
     %                                                                      %
     %   T. Thonhauser et al., PRL 115, 136402 (2015).                      %
     %   T. Thonhauser et al., PRB 76, 125112 (2007).                       %
     %   K. Berland et al., Rep. Prog. Phys. 78, 066501 (2015).             %
     %   D.C. Langreth et al., J. Phys.: Condens. Matter 21, 084203 (2009). %
     %                                                                      %
     %                                                                      %
     % If you are calculating the stress with vdW-DF, please also cite:     %
     %                                                                      %
     %   R. Sabatini et al., J. Phys.: Condens. Matter 24, 424209 (2012).   %
     %                                                                      %
     %%%%%%%%%%%%%%%%%%%%%%%%%%%%%%%%%%%%%%%%%%%%%%%%%%%%%%%%%%%%%%%%%%%%%%%%


     Starting wfcs are  338 randomized atomic wfcs
     Checking if some PAW data can be deallocated... 

     total cpu time spent up to now is      324.8 secs

     Self-consistent Calculation

     iteration #  1     ecut=    60.00 Ry     beta= 0.70
     Davidson diagonalization with overlap
     ethr =  1.00E-02,  avg # of iterations =  2.1

     Threshold (ethr) on eigenvalues was too large:
     Diagonalizing with lowered threshold

     Davidson diagonalization with overlap
     ethr =  9.51E-04,  avg # of iterations =  2.4

     negative rho (up, down):  1.213E-02 0.000E+00

     total cpu time spent up to now is     1515.9 secs

     total energy              =  -27836.72940597 Ry
     estimated scf accuracy    <       3.78837459 Ry

     iteration #  2     ecut=    60.00 Ry     beta= 0.70
     Davidson diagonalization with overlap
     ethr =  1.01E-03,  avg # of iterations =  2.0

     negative rho (up, down):  9.941E-03 0.000E+00

     total cpu time spent up to now is     2088.6 secs

     total energy              =  -27837.00655216 Ry
     estimated scf accuracy    <       1.05613842 Ry

     iteration #  3     ecut=    60.00 Ry     beta= 0.70
     Davidson diagonalization with overlap
     ethr =  2.81E-04,  avg # of iterations =  4.3

     negative rho (up, down):  7.655E-03 0.000E+00

     total cpu time spent up to now is     2697.9 secs

     total energy              =  -27837.09229096 Ry
     estimated scf accuracy    <       0.35973052 Ry

     iteration #  4     ecut=    60.00 Ry     beta= 0.70
     Davidson diagonalization with overlap
     c_bands:  1 eigenvalues not converged
     ethr =  9.57E-05,  avg # of iterations = 11.6

     negative rho (up, down):  5.719E-03 0.000E+00

     total cpu time spent up to now is     3481.6 secs

     total energy              =  -27837.14295361 Ry
     estimated scf accuracy    <       0.12746466 Ry

     iteration #  5     ecut=    60.00 Ry     beta= 0.70
     Davidson diagonalization with overlap
     c_bands:  3 eigenvalues not converged
     ethr =  3.39E-05,  avg # of iterations =  6.9

     negative rho (up, down):  4.409E-03 0.000E+00

     total cpu time spent up to now is     4162.1 secs

     total energy              =  -27837.15533684 Ry
     estimated scf accuracy    <       0.08023582 Ry

     iteration #  6     ecut=    60.00 Ry     beta= 0.70
     Davidson diagonalization with overlap
     ethr =  2.13E-05,  avg # of iterations =  2.9

     negative rho (up, down):  3.651E-03 0.000E+00

     total cpu time spent up to now is     4745.0 secs

     total energy              =  -27837.15858148 Ry
     estimated scf accuracy    <       0.00743347 Ry

     iteration #  7     ecut=    60.00 Ry     beta= 0.70
     Davidson diagonalization with overlap
     c_bands:  1 eigenvalues not converged
     c_bands:  2 eigenvalues not converged
     c_bands:  2 eigenvalues not converged
     ethr =  1.98E-06,  avg # of iterations = 15.0

     negative rho (up, down):  3.537E-03 0.000E+00

     total cpu time spent up to now is     5794.3 secs

     total energy              =  -27837.16178535 Ry
     estimated scf accuracy    <       0.00432010 Ry

     iteration #  8     ecut=    60.00 Ry     beta= 0.70
     Davidson diagonalization with overlap
     c_bands:  1 eigenvalues not converged
     c_bands:  2 eigenvalues not converged
     ethr =  1.15E-06,  avg # of iterations =  5.6

     negative rho (up, down):  3.714E-03 0.000E+00

     total cpu time spent up to now is     6391.5 secs

     total energy              =  -27837.16212056 Ry
     estimated scf accuracy    <       0.00162137 Ry

     iteration #  9     ecut=    60.00 Ry     beta= 0.70
     Davidson diagonalization with overlap
     ethr =  4.31E-07,  avg # of iterations =  4.3

     negative rho (up, down):  4.269E-03 0.000E+00

     total cpu time spent up to now is     6977.2 secs

     total energy              =  -27837.16221785 Ry
     estimated scf accuracy    <       0.00143202 Ry

     iteration # 10     ecut=    60.00 Ry     beta= 0.70
     Davidson diagonalization with overlap
     ethr =  3.81E-07,  avg # of iterations =  4.1

     negative rho (up, down):  5.465E-03 0.000E+00

     total cpu time spent up to now is     7551.3 secs

     total energy              =  -27837.16224191 Ry
     estimated scf accuracy    <       0.00103862 Ry

     iteration # 11     ecut=    60.00 Ry     beta= 0.70
     Davidson diagonalization with overlap
     ethr =  2.76E-07,  avg # of iterations =  4.4

     negative rho (up, down):  7.937E-03 0.000E+00

     total cpu time spent up to now is     8114.8 secs

     total energy              =  -27837.16223282 Ry
     estimated scf accuracy    <       0.00054970 Ry

     iteration # 12     ecut=    60.00 Ry     beta= 0.70
     Davidson diagonalization with overlap
     ethr =  1.46E-07,  avg # of iterations =  2.5

     negative rho (up, down):  9.338E-03 0.000E+00

     total cpu time spent up to now is     8682.1 secs

     total energy              =  -27837.16227232 Ry
     estimated scf accuracy    <       0.00014908 Ry

     iteration # 13     ecut=    60.00 Ry     beta= 0.70
     Davidson diagonalization with overlap
     ethr =  3.96E-08,  avg # of iterations =  3.8

     negative rho (up, down):  1.030E-02 0.000E+00

     total cpu time spent up to now is     9312.3 secs

     total energy              =  -27837.16230223 Ry
     estimated scf accuracy    <       0.00012769 Ry

     iteration # 14     ecut=    60.00 Ry     beta= 0.70
     Davidson diagonalization with overlap
     ethr =  3.40E-08,  avg # of iterations =  2.0

     negative rho (up, down):  9.869E-03 0.000E+00

     total cpu time spent up to now is     9868.6 secs

     total energy              =  -27837.16231457 Ry
     estimated scf accuracy    <       0.00006555 Ry

     iteration # 15     ecut=    60.00 Ry     beta= 0.70
     Davidson diagonalization with overlap
     ethr =  1.74E-08,  avg # of iterations =  1.9

     negative rho (up, down):  1.111E-02 0.000E+00

     total cpu time spent up to now is    10426.5 secs

     total energy              =  -27837.16231647 Ry
     estimated scf accuracy    <       0.00003791 Ry

     iteration # 16     ecut=    60.00 Ry     beta= 0.70
     Davidson diagonalization with overlap
     ethr =  1.01E-08,  avg # of iterations =  2.0

     negative rho (up, down):  1.178E-02 0.000E+00

     total cpu time spent up to now is    10992.4 secs

     total energy              =  -27837.16231759 Ry
     estimated scf accuracy    <       0.00001871 Ry

     iteration # 17     ecut=    60.00 Ry     beta= 0.70
     Davidson diagonalization with overlap
     ethr =  4.98E-09,  avg # of iterations =  2.0

     negative rho (up, down):  1.213E-02 0.000E+00

     total cpu time spent up to now is    11572.5 secs

     total energy              =  -27837.16231801 Ry
     estimated scf accuracy    <       0.00000382 Ry

     iteration # 18     ecut=    60.00 Ry     beta= 0.70
     Davidson diagonalization with overlap
     ethr =  1.01E-09,  avg # of iterations =  4.2

     negative rho (up, down):  1.228E-02 0.000E+00

     total cpu time spent up to now is    12474.2 secs

     total energy              =  -27837.16231941 Ry
     estimated scf accuracy    <       0.00000205 Ry

     iteration # 19     ecut=    60.00 Ry     beta= 0.70
     Davidson diagonalization with overlap
     ethr =  5.44E-10,  avg # of iterations =  1.1

     negative rho (up, down):  1.245E-02 0.000E+00

     total cpu time spent up to now is    12971.7 secs

     End of self-consistent calculation

          k = 0.0000 0.0000 0.0000 ( 86281 PWs)   bands (ev):

   -19.9981 -11.9139  -7.8459  -6.5360  -5.6397  -5.2894  -5.0581  -4.2350
    -4.1793  -4.1647  -4.1483  -4.1440  -4.1394  -4.1007  -4.0918  -3.8598
    -3.6645  -3.6050  -3.5898  -3.5747  -3.5598  -3.5472  -3.3758  -3.1566
    -3.1435  -3.1236  -3.1115  -3.0992  -2.9738  -2.9210  -2.9147  -2.9064
    -2.8736  -2.8575  -2.7848  -2.7190  -2.7116  -2.7075  -2.6953  -2.6888
    -2.6744  -2.6393  -2.6313  -2.6249  -2.6115  -2.6019  -2.2600  -2.1428
    -2.0934  -2.0840  -2.0664  -2.0550  -2.0515  -1.9874  -1.9789  -1.9643
    -1.8868  -1.8661  -1.7979  -1.7875  -1.7548  -1.4402  -1.4055  -1.3002
    -1.2680  -1.2466  -1.2238  -1.1875  -1.1320  -1.1133  -1.0893  -1.0718
    -1.0624  -1.0501  -1.0491  -1.0390  -1.0294  -1.0002  -0.9968  -0.9838
    -0.9829  -0.9686  -0.9503  -0.9329  -0.9255  -0.8503  -0.8407  -0.8317
    -0.8180  -0.6945  -0.6823  -0.6737  -0.6492  -0.6313  -0.6089  -0.5987
    -0.5818  -0.5760  -0.5477  -0.5173  -0.5070  -0.4894  -0.4820  -0.4175
    -0.3924  -0.3793  -0.3521  -0.3467  -0.3066  -0.2399  -0.2158  -0.1963
    -0.1892  -0.1166  -0.0445   0.0531   0.1806   0.2406   0.2503   0.2804
     0.2886   0.3027   0.3134   0.3537   0.3630   0.4103   0.4342   0.4673
     0.4836   0.5178   0.5524   0.5602   0.5964   0.6143   0.6450   0.6785
     0.7181   0.7788   0.7895   0.7910   0.8015   0.9650   0.9931   1.0172
     1.0291   1.0309   1.0404   1.0846   1.0986   1.1618   1.2694   1.2860
     1.2958   1.3168   1.3194   1.3436   1.3922   1.4122   1.4319   1.4695
     1.4810   1.4852   1.4913   1.4987   1.5044   1.5122   1.5317   1.5504
     1.5776   1.5806   1.5995   1.6102   1.6144   1.6826   1.6911   1.7100
     1.7149   1.7257   1.7574   1.7764   1.7786   1.7939   1.8498   1.8533
     1.8564   1.8692   1.8750   1.8928   1.9128   1.9458   1.9634   1.9776
     1.9936   2.0095   2.1137   2.1217   2.2062   2.2508   2.2635   2.3006
     2.3025   2.3239   2.3265   2.3846   2.7730   3.1159   3.1814   3.2030
     3.2050   3.4367   3.6389   4.9150   5.2715   5.4754   5.4994   5.5287
     5.8654   6.2857   6.3716   6.6714   7.0775   7.1068   7.1145   7.1375
     7.1818   7.2639

          k = 0.0000 0.2309 0.0000 ( 86226 PWs)   bands (ev):

   -19.9981 -11.9138  -7.8406  -6.3934  -5.6400  -5.1817  -5.0216  -4.6495
    -4.2621  -4.2510  -4.0976  -4.0062  -3.9577  -3.9224  -3.9006  -3.8546
    -3.6995  -3.6458  -3.5808  -3.5253  -3.5097  -3.4850  -3.3127  -3.2120
    -3.1068  -3.0903  -3.0792  -3.0469  -3.0063  -2.9811  -2.9413  -2.9116
    -2.8959  -2.8874  -2.8253  -2.8056  -2.7823  -2.7136  -2.6946  -2.6874
    -2.6672  -2.5518  -2.4961  -2.4738  -2.4610  -2.4405  -2.2943  -2.2228
    -2.1897  -2.1514  -2.1257  -2.1024  -2.0952  -2.0079  -1.9451  -1.8915
    -1.8556  -1.8103  -1.7967  -1.7710  -1.7326  -1.5488  -1.5007  -1.4795
    -1.4254  -1.3872  -1.3695  -1.3220  -1.2897  -1.2697  -1.2330  -1.2227
    -1.1989  -1.1423  -1.1336  -1.1111  -1.0763  -1.0403  -1.0154  -0.9759
    -0.9463  -0.9243  -0.8968  -0.8686  -0.8578  -0.8428  -0.8117  -0.7914
    -0.7665  -0.7432  -0.7327  -0.7085  -0.6657  -0.6544  -0.6180  -0.6004
    -0.5833  -0.5587  -0.5288  -0.5163  -0.4883  -0.4728  -0.4555  -0.4392
    -0.4100  -0.3931  -0.3836  -0.3360  -0.3118  -0.2652  -0.2379  -0.2182
    -0.1945  -0.1683  -0.1446  -0.1153  -0.1005  -0.0989  -0.0824  -0.0220
     0.1308   0.1923   0.2278   0.2644   0.2996   0.3183   0.3312   0.3629
     0.3945   0.4721   0.5093   0.5469   0.5949   0.6444   0.6634   0.6900
     0.7123   0.7275   0.7367   0.7719   0.8085   0.8399   0.8953   0.9148
     0.9253   0.9347   1.0001   1.0844   1.0967   1.1098   1.1357   1.1543
     1.1964   1.2379   1.2737   1.2928   1.3073   1.3194   1.3711   1.3840
     1.4108   1.4347   1.4956   1.5159   1.5388   1.5622   1.6031   1.6342
     1.6628   1.6739   1.7073   1.7262   1.7639   1.7947   1.8215   1.8418
     1.8680   1.8889   1.9079   1.9322   1.9483   1.9563   1.9682   2.0013
     2.0134   2.0826   2.0986   2.1651   2.1741   2.1835   2.2105   2.2265
     2.2486   2.2688   2.2897   2.3079   2.3560   2.3745   2.4107   2.4404
     2.5148   2.5978   2.6045   2.6528   2.8404   2.9838   3.2367   3.6001
     3.7894   3.8741   4.0072   4.6994   5.0334   5.3318   5.6427   5.7791
     5.9402   6.0547   6.2747   6.3413   6.4329   6.8769   6.9945   7.0515
     7.0929   7.2759

          k = 0.0000 0.4619 0.0000 ( 86314 PWs)   bands (ev):

   -19.9981 -11.9136  -7.8325  -5.9811  -5.6407  -5.3574  -5.0736  -4.7142
    -4.2950  -4.2802  -4.1901  -3.9237  -3.8599  -3.7596  -3.6753  -3.6229
    -3.5749  -3.5609  -3.4649  -3.3934  -3.3544  -3.3322  -3.3252  -3.2689
    -3.1938  -3.1747  -3.1504  -3.1249  -3.0993  -3.0813  -3.0302  -2.9945
    -2.9808  -2.9403  -2.7668  -2.7405  -2.7205  -2.7008  -2.6919  -2.6183
    -2.4973  -2.4789  -2.4732  -2.4522  -2.4233  -2.3540  -2.2395  -2.1917
    -2.1734  -2.1558  -2.1005  -2.0931  -2.0384  -2.0120  -1.9912  -1.9735
    -1.9494  -1.8773  -1.8006  -1.7898  -1.7638  -1.7282  -1.6675  -1.6272
    -1.6039  -1.5671  -1.5491  -1.5275  -1.4190  -1.3958  -1.3491  -1.3207
    -1.2919  -1.2740  -1.2197  -1.2074  -1.1829  -1.1032  -1.0799  -1.0426
    -1.0139  -0.9943  -0.9528  -0.9307  -0.9262  -0.9105  -0.8895  -0.8573
    -0.8406  -0.8334  -0.8073  -0.8049  -0.7723  -0.7461  -0.7252  -0.6736
    -0.6579  -0.6415  -0.6357  -0.6079  -0.5581  -0.5049  -0.4873  -0.4574
    -0.4228  -0.4105  -0.3804  -0.3588  -0.3307  -0.2663  -0.2263  -0.1934
    -0.1748  -0.1606  -0.1091  -0.0899  -0.0586   0.0090   0.0364   0.1152
     0.1400   0.1485   0.1784   0.2082   0.2356   0.2555   0.2812   0.3224
     0.3343   0.3469   0.3602   0.3704   0.4237   0.4283   0.4582   0.4967
     0.5550   0.5877   0.5995   0.6354   0.6624   0.6969   0.7564   0.8349
     0.8569   0.8911   0.9395   1.0054   1.0571   1.0723   1.0872   1.1395
     1.1678   1.1897   1.2140   1.2430   1.2603   1.2966   1.3362   1.3965
     1.4151   1.4449   1.4527   1.4643   1.5008   1.5379   1.6103   1.6468
     1.6926   1.7190   1.7353   1.7635   1.8246   1.8529   1.8615   1.9087
     1.9564   1.9826   2.0162   2.0370   2.0507   2.0787   2.1299   2.1729
     2.1799   2.1982   2.2040   2.2310   2.2500   2.3204   2.3888   2.4157
     2.4330   2.4494   2.5221   2.5638   2.6104   2.6900   2.8490   3.0932
     3.2277   3.3845   3.4983   3.5193   3.7334   3.8827   4.0267   4.2047
     4.4425   4.6895   4.7230   4.8026   4.9135   4.9940   5.0359   5.2205
     5.2788   5.3970   5.8128   5.9365   6.1511   6.4264   6.5882   6.7340
     6.9438   7.1791

          k = 0.2000-0.1155 0.0000 ( 86226 PWs)   bands (ev):

   -19.9981 -11.9138  -7.8406  -6.3935  -5.6402  -5.1836  -5.0207  -4.6504
    -4.2606  -4.2484  -4.1002  -4.0066  -3.9616  -3.9163  -3.8993  -3.8521
    -3.6946  -3.6444  -3.5909  -3.5261  -3.5087  -3.4887  -3.3122  -3.2087
    -3.1084  -3.0905  -3.0771  -3.0539  -3.0051  -2.9784  -2.9416  -2.9114
    -2.8968  -2.8894  -2.8250  -2.8078  -2.7789  -2.7183  -2.6939  -2.6847
    -2.6685  -2.5525  -2.4956  -2.4754  -2.4595  -2.4373  -2.2957  -2.2242
    -2.1872  -2.1464  -2.1286  -2.1023  -2.0948  -2.0047  -1.9464  -1.8864
    -1.8583  -1.8092  -1.7983  -1.7755  -1.7300  -1.5435  -1.4989  -1.4766
    -1.4249  -1.3856  -1.3652  -1.3255  -1.2850  -1.2658  -1.2361  -1.2231
    -1.2008  -1.1495  -1.1340  -1.1139  -1.0729  -1.0383  -1.0184  -0.9824
    -0.9490  -0.9270  -0.8971  -0.8656  -0.8568  -0.8418  -0.8127  -0.7864
    -0.7577  -0.7439  -0.7244  -0.7123  -0.6698  -0.6510  -0.6186  -0.6074
    -0.5824  -0.5574  -0.5323  -0.5113  -0.4908  -0.4727  -0.4549  -0.4404
    -0.4110  -0.3961  -0.3834  -0.3363  -0.3103  -0.2677  -0.2406  -0.2171
    -0.1972  -0.1667  -0.1411  -0.1136  -0.1022  -0.0989  -0.0800  -0.0333
     0.1308   0.1914   0.2291   0.2655   0.2984   0.3171   0.3299   0.3595
     0.3963   0.4781   0.5111   0.5405   0.5930   0.6432   0.6624   0.6859
     0.7151   0.7283   0.7352   0.7713   0.8071   0.8407   0.8954   0.9126
     0.9253   0.9349   0.9990   1.0830   1.0947   1.1092   1.1351   1.1526
     1.1989   1.2388   1.2755   1.2918   1.3095   1.3186   1.3715   1.3841
     1.4117   1.4356   1.4961   1.5168   1.5393   1.5626   1.6032   1.6351
     1.6622   1.6724   1.7070   1.7264   1.7644   1.7921   1.8212   1.8419
     1.8678   1.8867   1.9077   1.9326   1.9485   1.9557   1.9701   2.0016
     2.0120   2.0836   2.0911   2.1643   2.1723   2.1847   2.2083   2.2302
     2.2524   2.2713   2.2927   2.3103   2.3600   2.3855   2.4107   2.4404
     2.5140   2.5956   2.6061   2.6515   2.8373   2.9808   3.2509   3.5976
     3.7924   3.8676   4.0058   4.7015   5.0184   5.3424   5.6576   5.7747
     5.9410   6.0527   6.2787   6.3377   6.4315   6.8725   6.9980   7.0372
     7.0924   7.2736

          k = 0.2000 0.1155 0.0000 ( 86226 PWs)   bands (ev):

   -19.9981 -11.9140  -7.8404  -6.3949  -5.6402  -5.2090  -5.0076  -4.6313
    -4.2760  -4.2425  -4.0956  -4.0064  -3.9485  -3.9341  -3.8941  -3.8338
    -3.7444  -3.6790  -3.5390  -3.5232  -3.4914  -3.4768  -3.3851  -3.2095
    -3.0985  -3.0919  -3.0820  -3.0147  -3.0005  -2.9529  -2.9482  -2.9254
    -2.9108  -2.8954  -2.7992  -2.7976  -2.7610  -2.7030  -2.6977  -2.6712
    -2.6703  -2.5170  -2.4962  -2.4809  -2.4650  -2.4452  -2.2804  -2.2385
    -2.1933  -2.1740  -2.1267  -2.1078  -2.1030  -2.0028  -1.9454  -1.8661
    -1.8419  -1.8344  -1.8049  -1.7883  -1.6935  -1.5468  -1.5205  -1.4478
    -1.4092  -1.3983  -1.3516  -1.3366  -1.2874  -1.2762  -1.2199  -1.2152
    -1.2045  -1.1453  -1.1326  -1.0939  -1.0718  -1.0586  -1.0282  -1.0132
    -0.9531  -0.9160  -0.9090  -0.8748  -0.8484  -0.8385  -0.8364  -0.7769
    -0.7592  -0.7422  -0.7308  -0.6792  -0.6477  -0.6463  -0.6123  -0.5986
    -0.5867  -0.5786  -0.5332  -0.5190  -0.4899  -0.4795  -0.4634  -0.4349
    -0.4210  -0.4036  -0.3950  -0.3700  -0.3123  -0.2697  -0.2533  -0.1979
    -0.1795  -0.1534  -0.1352  -0.1192  -0.1154  -0.0958  -0.0936  -0.0230
     0.1662   0.1855   0.2443   0.2487   0.2927   0.3181   0.3267   0.3462
     0.3790   0.3859   0.4763   0.5464   0.5932   0.6477   0.6592   0.6917
     0.7044   0.7321   0.7430   0.7666   0.7805   0.8320   0.8953   0.9000
     0.9243   0.9416   1.0716   1.0750   1.0933   1.1019   1.1326   1.1371
     1.2002   1.2169   1.2618   1.3006   1.3151   1.3372   1.3560   1.3884
     1.4172   1.4275   1.4960   1.5235   1.5430   1.5645   1.6136   1.6300
     1.6712   1.6774   1.7158   1.7281   1.7788   1.7951   1.8272   1.8295
     1.8768   1.8881   1.9189   1.9373   1.9460   1.9671   1.9721   1.9863
     2.0142   2.0786   2.1076   2.1594   2.1966   2.2139   2.2213   2.2383
     2.2547   2.2766   2.2967   2.2981   2.3659   2.3973   2.4310   2.4786
     2.4898   2.5945   2.6168   2.6203   2.7762   3.0170   3.2055   3.6262
     3.7988   3.8472   4.0275   4.7152   5.1168   5.1414   5.7642   5.8293
     5.9351   6.0116   6.3039   6.4201   6.5139   6.7204   6.9112   7.0174
     7.0908   7.2644

          k = 0.2000 0.3464 0.0000 ( 86252 PWs)   bands (ev):

   -19.9981 -11.9138  -7.8338  -6.1182  -5.6398  -5.1513  -4.9122  -4.8668
    -4.7791  -3.9706  -3.8848  -3.8288  -3.8133  -3.8061  -3.7674  -3.7453
    -3.7326  -3.7018  -3.6321  -3.6011  -3.3469  -3.2743  -3.2484  -3.2373
    -3.2204  -3.1482  -3.1369  -3.0236  -3.0149  -2.9967  -2.9727  -2.9062
    -2.8885  -2.8607  -2.8407  -2.8260  -2.7645  -2.7495  -2.7306  -2.6948
    -2.6621  -2.5930  -2.4373  -2.3452  -2.3048  -2.2698  -2.2539  -2.2170
    -2.1957  -2.1771  -2.1509  -2.1202  -2.0900  -1.9838  -1.9646  -1.9151
    -1.8591  -1.8481  -1.8123  -1.7684  -1.7352  -1.7194  -1.6846  -1.5985
    -1.5453  -1.5080  -1.4694  -1.4404  -1.4266  -1.3689  -1.3568  -1.3284
    -1.2943  -1.2733  -1.1967  -1.1437  -1.1340  -1.1003  -1.0769  -1.0631
    -1.0487  -1.0025  -0.9736  -0.9472  -0.9024  -0.8761  -0.8411  -0.8145
    -0.8012  -0.7917  -0.7761  -0.7388  -0.7223  -0.7132  -0.6832  -0.6486
    -0.6255  -0.6100  -0.5485  -0.5277  -0.5140  -0.4943  -0.4626  -0.4478
    -0.4269  -0.4186  -0.3944  -0.3685  -0.3553  -0.3434  -0.3185  -0.2956
    -0.2633  -0.2415  -0.2043  -0.1854  -0.1410  -0.0658  -0.0392  -0.0089
     0.0614   0.1106   0.1473   0.1906   0.2524   0.2715   0.3140   0.3193
     0.3469   0.3735   0.3930   0.4256   0.4441   0.4758   0.5023   0.5680
     0.6345   0.6707   0.7071   0.7202   0.7395   0.7681   0.7783   0.8592
     0.8930   0.9230   0.9491   1.0086   1.0444   1.0664   1.0834   1.1277
     1.1732   1.1962   1.2227   1.2577   1.2642   1.2733   1.2888   1.3080
     1.3262   1.3490   1.4045   1.4772   1.5069   1.5386   1.6202   1.6571
     1.7444   1.8107   1.8311   1.8475   1.8777   1.9210   1.9527   1.9788
     1.9947   2.0242   2.0376   2.0448   2.0645   2.0770   2.1025   2.1276
     2.1497   2.1872   2.2232   2.2394   2.2656   2.2728   2.3461   2.3638
     2.4392   2.4824   2.4984   2.5419   2.5844   2.6004   2.7064   2.7400
     2.8027   3.1372   3.2449   3.2937   3.6027   3.7969   3.8147   3.9425
     4.2423   4.5124   4.5726   4.7266   4.7519   4.9080   5.3698   5.6186
     5.7157   5.9316   6.0814   6.2651   6.4310   6.6205   6.6637   6.6980
     6.7379   6.8772

          k = 0.2000-0.5774 0.0000 ( 86284 PWs)   bands (ev):

   -19.9981 -11.9136  -7.8301  -5.6583  -5.5944  -5.5703  -5.1198  -4.9192
    -4.3977  -4.3407  -3.9057  -3.8326  -3.7760  -3.6735  -3.6375  -3.5799
    -3.5345  -3.4735  -3.4220  -3.4165  -3.3363  -3.3066  -3.2911  -3.2680
    -3.2628  -3.2401  -3.1707  -3.1071  -3.0960  -3.0836  -3.0509  -3.0316
    -2.9777  -2.9052  -2.8290  -2.7836  -2.7494  -2.7175  -2.6855  -2.6512
    -2.6344  -2.5821  -2.4816  -2.4587  -2.4087  -2.2744  -2.2623  -2.2100
    -2.1649  -2.1343  -2.0828  -2.0285  -1.9495  -1.9336  -1.9045  -1.8769
    -1.8538  -1.8190  -1.8013  -1.7580  -1.7106  -1.6892  -1.6744  -1.6459
    -1.6231  -1.6042  -1.5923  -1.5591  -1.5432  -1.5159  -1.4243  -1.3952
    -1.3485  -1.3322  -1.2851  -1.2368  -1.1917  -1.1722  -1.1460  -1.1275
    -1.0971  -1.0858  -1.0741  -1.0216  -0.9812  -0.9539  -0.9240  -0.8894
    -0.8446  -0.8273  -0.7930  -0.7678  -0.7609  -0.7336  -0.6975  -0.6075
    -0.5923  -0.5749  -0.5358  -0.5325  -0.5077  -0.4948  -0.4677  -0.4533
    -0.4436  -0.4261  -0.4165  -0.3833  -0.3657  -0.3421  -0.3192  -0.3046
    -0.2935  -0.2769  -0.2685  -0.2194  -0.1571  -0.0418  -0.0139   0.0404
     0.0661   0.0996   0.1465   0.1709   0.2270   0.2446   0.2519   0.2722
     0.3059   0.3237   0.3593   0.3772   0.4258   0.4449   0.4726   0.5304
     0.5597   0.6015   0.6524   0.7039   0.7420   0.7654   0.8318   0.8603
     0.8718   0.9054   0.9345   0.9673   0.9930   1.0013   1.0302   1.0667
     1.0926   1.1276   1.1467   1.1823   1.2063   1.2385   1.2632   1.2826
     1.3267   1.3964   1.4603   1.5108   1.5370   1.6352   1.6727   1.6789
     1.7149   1.7951   1.8103   1.8485   1.9074   1.9334   1.9737   2.0091
     2.0223   2.0348   2.0478   2.0788   2.1290   2.1623   2.1825   2.1911
     2.2100   2.2334   2.2461   2.2955   2.3389   2.3808   2.4281   2.4462
     2.4640   2.4977   2.5203   2.6348   2.6708   2.6954   2.8158   3.3368
     3.6082   3.6241   3.8564   3.9300   3.9653   3.9777   4.0761   4.3668
     4.5782   4.6254   4.7497   5.0233   5.0917   5.1854   5.2148   5.3435
     5.4991   5.5659   5.5882   5.8156   5.9808   6.0660   6.2004   6.5127
     6.6678   6.7282

          k = 0.2000-0.3464 0.0000 ( 86252 PWs)   bands (ev):

   -19.9981 -11.9136  -7.8341  -6.1135  -5.6413  -5.1157  -4.9052  -4.8835
    -4.8079  -3.9824  -3.8737  -3.8260  -3.8149  -3.7929  -3.7824  -3.7427
    -3.7124  -3.6997  -3.6205  -3.5915  -3.3803  -3.2561  -3.2425  -3.2321
    -3.1825  -3.1545  -3.1298  -3.0307  -3.0120  -3.0044  -2.9663  -2.9467
    -2.8932  -2.8751  -2.8456  -2.8313  -2.7769  -2.7588  -2.7342  -2.7070
    -2.6807  -2.5905  -2.5542  -2.3598  -2.2974  -2.2814  -2.2352  -2.2073
    -2.1885  -2.1777  -2.1442  -2.1252  -2.0677  -1.9814  -1.9640  -1.8925
    -1.8558  -1.8322  -1.7901  -1.7771  -1.7333  -1.7075  -1.6988  -1.6072
    -1.5673  -1.5013  -1.4870  -1.4702  -1.3818  -1.3578  -1.3488  -1.3238
    -1.3020  -1.2895  -1.2291  -1.1397  -1.1250  -1.1084  -1.0719  -1.0277
    -1.0118  -0.9938  -0.9634  -0.9336  -0.9130  -0.8597  -0.8496  -0.8199
    -0.8131  -0.7839  -0.7702  -0.7505  -0.7230  -0.7047  -0.6765  -0.6354
    -0.6157  -0.5991  -0.5607  -0.5433  -0.5167  -0.4917  -0.4697  -0.4517
    -0.4252  -0.4132  -0.3812  -0.3754  -0.3604  -0.3266  -0.3032  -0.2825
    -0.2764  -0.2466  -0.1863  -0.1492  -0.1179  -0.1067  -0.0583  -0.0457
     0.0328   0.1265   0.1918   0.2047   0.2661   0.2933   0.3136   0.3288
     0.3566   0.3836   0.3868   0.4336   0.4528   0.4813   0.5088   0.5542
     0.6436   0.6738   0.6947   0.7260   0.7485   0.7728   0.7901   0.8639
     0.8800   0.9303   0.9536   0.9803   1.0169   1.0481   1.0869   1.1453
     1.1843   1.1936   1.2146   1.2515   1.2592   1.2744   1.2883   1.3234
     1.3316   1.3610   1.4261   1.4489   1.4921   1.5198   1.6231   1.6988
     1.7328   1.8060   1.8278   1.8523   1.8780   1.9311   1.9606   1.9716
     1.9972   2.0137   2.0242   2.0485   2.0598   2.0768   2.1004   2.1134
     2.1405   2.2053   2.2154   2.2315   2.2552   2.2860   2.3062   2.3637
     2.4510   2.4947   2.5256   2.5535   2.5669   2.5971   2.7005   2.7265
     2.7958   3.0804   3.2690   3.2976   3.5795   3.7889   3.8129   3.9433
     4.2597   4.5269   4.6150   4.6828   4.7099   4.8402   5.2178   5.7266
     5.8957   5.9232   6.0551   6.1674   6.3854   6.5833   6.6312   6.7241
     6.7721   6.8600

          k = 0.4000-0.2309 0.0000 ( 86314 PWs)   bands (ev):

   -19.9981 -11.9136  -7.8324  -5.9821  -5.6411  -5.3598  -5.0739  -4.7113
    -4.2962  -4.2780  -4.1876  -3.9324  -3.8421  -3.7563  -3.6860  -3.6242
    -3.5752  -3.5597  -3.4671  -3.3965  -3.3538  -3.3339  -3.3276  -3.2711
    -3.1931  -3.1737  -3.1488  -3.1266  -3.1006  -3.0852  -3.0323  -2.9940
    -2.9795  -2.9430  -2.7654  -2.7392  -2.7186  -2.6996  -2.6906  -2.6183
    -2.4960  -2.4767  -2.4730  -2.4507  -2.4241  -2.3545  -2.2374  -2.1877
    -2.1767  -2.1564  -2.1008  -2.0917  -2.0348  -2.0109  -1.9929  -1.9723
    -1.9533  -1.8736  -1.7971  -1.7890  -1.7612  -1.7256  -1.6641  -1.6254
    -1.5963  -1.5601  -1.5433  -1.5223  -1.4298  -1.3948  -1.3510  -1.3230
    -1.2986  -1.2688  -1.2180  -1.2097  -1.1771  -1.1146  -1.0871  -1.0427
    -1.0127  -0.9938  -0.9529  -0.9307  -0.9253  -0.9106  -0.8868  -0.8550
    -0.8374  -0.8315  -0.8116  -0.8016  -0.7716  -0.7504  -0.7276  -0.6716
    -0.6561  -0.6423  -0.6330  -0.6072  -0.5573  -0.5027  -0.4909  -0.4581
    -0.4269  -0.4116  -0.3846  -0.3603  -0.3341  -0.2691  -0.2261  -0.1990
    -0.1785  -0.1623  -0.1117  -0.0914  -0.0616   0.0012   0.0333   0.1129
     0.1437   0.1477   0.1797   0.2085   0.2363   0.2588   0.2852   0.3225
     0.3366   0.3484   0.3606   0.3704   0.4195   0.4274   0.4578   0.4954
     0.5537   0.5905   0.5980   0.6296   0.6597   0.6964   0.7524   0.8322
     0.8555   0.8916   0.9418   1.0103   1.0589   1.0721   1.0850   1.1343
     1.1673   1.1929   1.2150   1.2432   1.2611   1.2995   1.3366   1.3989
     1.4155   1.4461   1.4527   1.4641   1.5002   1.5332   1.6109   1.6448
     1.6928   1.7187   1.7353   1.7658   1.8195   1.8531   1.8615   1.9087
     1.9542   1.9828   2.0146   2.0349   2.0460   2.0768   2.1313   2.1745
     2.1798   2.1995   2.2046   2.2369   2.2544   2.3252   2.3882   2.4156
     2.4349   2.4547   2.5293   2.5589   2.6110   2.6901   2.8440   3.0929
     3.2485   3.3846   3.4970   3.5155   3.7346   3.8801   4.0261   4.2102
     4.4436   4.6907   4.7248   4.8042   4.9155   4.9806   5.0370   5.2274
     5.2850   5.3990   5.8213   5.9378   6.1449   6.4160   6.5898   6.7345
     6.9419   7.1708

          k = 0.4000-0.0000 0.0000 ( 86252 PWs)   bands (ev):

   -19.9981 -11.9138  -7.8338  -6.1188  -5.6398  -5.1533  -4.9136  -4.8670
    -4.7762  -3.9772  -3.8678  -3.8279  -3.8130  -3.8053  -3.7648  -3.7458
    -3.7374  -3.6999  -3.6330  -3.6080  -3.3480  -3.2797  -3.2502  -3.2371
    -3.2191  -3.1525  -3.1348  -3.0238  -3.0172  -2.9952  -2.9727  -2.9033
    -2.8860  -2.8590  -2.8402  -2.8242  -2.7637  -2.7490  -2.7359  -2.6950
    -2.6635  -2.5983  -2.4396  -2.3461  -2.3024  -2.2680  -2.2520  -2.2134
    -2.1973  -2.1766  -2.1521  -2.1201  -2.0844  -1.9838  -1.9623  -1.9130
    -1.8600  -1.8479  -1.8105  -1.7673  -1.7329  -1.7203  -1.6856  -1.5904
    -1.5413  -1.5067  -1.4689  -1.4429  -1.4248  -1.3693  -1.3541  -1.3263
    -1.2921  -1.2762  -1.1990  -1.1426  -1.1383  -1.1009  -1.0824  -1.0659
    -1.0419  -1.0005  -0.9740  -0.9481  -0.9008  -0.8770  -0.8383  -0.8139
    -0.8020  -0.7920  -0.7779  -0.7367  -0.7251  -0.7090  -0.6869  -0.6581
    -0.6291  -0.6085  -0.5460  -0.5256  -0.5150  -0.4961  -0.4606  -0.4498
    -0.4295  -0.4171  -0.3955  -0.3690  -0.3557  -0.3415  -0.3175  -0.2971
    -0.2616  -0.2436  -0.2026  -0.1836  -0.1424  -0.0666  -0.0445  -0.0187
     0.0568   0.1121   0.1491   0.1932   0.2502   0.2697   0.3091   0.3177
     0.3490   0.3755   0.3936   0.4228   0.4437   0.4756   0.5047   0.5685
     0.6345   0.6641   0.7040   0.7206   0.7391   0.7689   0.7817   0.8587
     0.8950   0.9221   0.9494   1.0080   1.0435   1.0620   1.0817   1.1271
     1.1779   1.1959   1.2236   1.2584   1.2654   1.2754   1.2899   1.3071
     1.3276   1.3504   1.4050   1.4829   1.5068   1.5381   1.6170   1.6562
     1.7436   1.8116   1.8312   1.8472   1.8777   1.9200   1.9514   1.9817
     1.9950   2.0240   2.0357   2.0423   2.0631   2.0754   2.1018   2.1270
     2.1492   2.1887   2.2203   2.2389   2.2654   2.2729   2.3458   2.3627
     2.4465   2.4893   2.5039   2.5457   2.5842   2.6030   2.7095   2.7342
     2.8093   3.1250   3.2429   3.2914   3.6057   3.7981   3.8197   3.9452
     4.2508   4.5077   4.5748   4.7267   4.7531   4.9088   5.3708   5.5951
     5.7365   5.9313   6.0844   6.2799   6.4275   6.6110   6.6603   6.6996
     6.7346   6.8788

          k = 0.4000 0.2309 0.0000 ( 86314 PWs)   bands (ev):

   -19.9981 -11.9140  -7.8321  -5.9889  -5.6405  -5.3833  -5.0816  -4.6733
    -4.3145  -4.2775  -4.1544  -3.9240  -3.8669  -3.7718  -3.7324  -3.6227
    -3.5646  -3.5572  -3.4289  -3.4081  -3.4033  -3.3336  -3.3186  -3.3156
    -3.2081  -3.1731  -3.1615  -3.1159  -3.1127  -3.0796  -3.0215  -2.9818
    -2.9792  -2.7604  -2.7431  -2.7326  -2.7300  -2.6872  -2.6830  -2.5074
    -2.4978  -2.4800  -2.4685  -2.4392  -2.4357  -2.3687  -2.2670  -2.1843
    -2.1789  -2.1390  -2.1085  -2.0934  -2.0659  -2.0027  -1.9920  -1.9805
    -1.9519  -1.9003  -1.7974  -1.7841  -1.7714  -1.7306  -1.6568  -1.6276
    -1.6094  -1.5743  -1.5468  -1.4760  -1.4350  -1.3891  -1.3519  -1.3122
    -1.3016  -1.2390  -1.2262  -1.2123  -1.1582  -1.1164  -1.1126  -1.0854
    -1.0349  -0.9741  -0.9686  -0.9649  -0.9128  -0.8948  -0.8937  -0.8537
    -0.8374  -0.8284  -0.8275  -0.8101  -0.7569  -0.7525  -0.7427  -0.6849
    -0.6544  -0.6410  -0.6321  -0.6066  -0.5720  -0.5507  -0.4780  -0.4705
    -0.4161  -0.4122  -0.3834  -0.3615  -0.3170  -0.2749  -0.2617  -0.2111
    -0.1626  -0.1541  -0.1316  -0.1240  -0.0994   0.0172   0.0658   0.1144
     0.1168   0.1387   0.2033   0.2085   0.2466   0.2507   0.2784   0.2967
     0.3189   0.3604   0.3724   0.3957   0.4210   0.4238   0.4348   0.4637
     0.5061   0.5743   0.5911   0.6114   0.6735   0.7144   0.7505   0.8108
     0.8468   0.8927   0.9458   1.0388   1.0421   1.0798   1.0953   1.1274
     1.1665   1.1798   1.2265   1.2321   1.2519   1.2966   1.3298   1.3736
     1.4162   1.4417   1.4495   1.4808   1.4995   1.5319   1.6194   1.6280
     1.6945   1.7081   1.7305   1.7956   1.8155   1.8517   1.8595   1.9365
     1.9497   1.9990   2.0219   2.0404   2.0487   2.1044   2.1087   2.1872
     2.1911   2.1925   2.2076   2.2426   2.2554   2.3536   2.3705   2.4179
     2.4424   2.4565   2.5365   2.5754   2.6406   2.6902   2.9301   3.1411
     3.2212   3.2981   3.4957   3.5021   3.7703   3.8880   4.0307   4.2426
     4.4987   4.7111   4.7211   4.8056   4.8885   4.9711   5.0642   5.1885
     5.3680   5.4001   5.8357   6.0533   6.1119   6.3443   6.5915   6.7156
     6.9878   7.1818

          k = 0.4000-0.6928 0.0000 ( 86284 PWs)   bands (ev):

   -19.9981 -11.9139  -7.8298  -5.6796  -5.5912  -5.5716  -5.0699  -4.9807
    -4.3794  -4.2976  -3.9660  -3.8265  -3.7397  -3.6858  -3.6538  -3.5871
    -3.5391  -3.4972  -3.4232  -3.4139  -3.3668  -3.3112  -3.2838  -3.2714
    -3.2616  -3.2338  -3.1417  -3.1286  -3.0977  -3.0803  -3.0589  -3.0517
    -2.9379  -2.8600  -2.8171  -2.7453  -2.7273  -2.6935  -2.6827  -2.6534
    -2.5967  -2.5764  -2.4915  -2.4742  -2.3981  -2.2781  -2.2584  -2.2417
    -2.1519  -2.0954  -2.0632  -2.0557  -1.9662  -1.9324  -1.9206  -1.8842
    -1.8456  -1.8299  -1.7749  -1.7408  -1.7292  -1.6949  -1.6734  -1.6499
    -1.6358  -1.5959  -1.5854  -1.5753  -1.5213  -1.4595  -1.4374  -1.4160
    -1.3704  -1.3173  -1.3098  -1.2535  -1.1955  -1.1727  -1.1350  -1.1192
    -1.1014  -1.0794  -1.0626  -1.0195  -0.9909  -0.9674  -0.9246  -0.9114
    -0.8852  -0.8082  -0.7910  -0.7782  -0.7665  -0.7376  -0.7110  -0.6334
    -0.5981  -0.5806  -0.5587  -0.5406  -0.5091  -0.4889  -0.4752  -0.4507
    -0.4375  -0.4293  -0.4084  -0.3902  -0.3574  -0.3474  -0.3296  -0.3130
    -0.2924  -0.2886  -0.2660  -0.2000  -0.1284  -0.0608  -0.0062   0.0143
     0.0591   0.1387   0.1436   0.1750   0.2205   0.2488   0.2710   0.2740
     0.2899   0.3398   0.3528   0.3867   0.4055   0.4472   0.4696   0.5343
     0.5526   0.5693   0.6384   0.6721   0.7203   0.7620   0.8266   0.8565
     0.8831   0.9080   0.9381   0.9629   0.9857   0.9949   1.0199   1.0725
     1.0810   1.1293   1.1531   1.1796   1.2105   1.2284   1.2583   1.2857
     1.3671   1.3977   1.4618   1.4977   1.5308   1.6124   1.6786   1.6851
     1.7644   1.7942   1.8143   1.8386   1.9078   1.9348   1.9767   1.9926
     2.0100   2.0422   2.0634   2.0918   2.1368   2.1627   2.1879   2.1917
     2.2158   2.2341   2.2444   2.3002   2.3390   2.3967   2.4260   2.4433
     2.4669   2.5060   2.5223   2.5903   2.6589   2.7096   2.8256   3.4293
     3.6051   3.6215   3.8380   3.8826   3.9833   4.0112   4.0718   4.3305
     4.6072   4.6250   4.8672   5.0784   5.1270   5.1835   5.2165   5.3944
     5.4454   5.5390   5.6511   5.6899   5.8967   6.0832   6.2428   6.5736
     6.6854   6.7350

          k = 0.4000-0.4619 0.0000 ( 86284 PWs)   bands (ev):

   -19.9981 -11.9136  -7.8300  -5.6617  -5.5929  -5.5706  -5.1167  -4.9224
    -4.3970  -4.3376  -3.9021  -3.8332  -3.7774  -3.6739  -3.6411  -3.5832
    -3.5317  -3.4683  -3.4223  -3.4195  -3.3377  -3.3081  -3.2898  -3.2689
    -3.2624  -3.2379  -3.1741  -3.1062  -3.0973  -3.0856  -3.0491  -3.0353
    -2.9818  -2.9058  -2.8276  -2.7811  -2.7473  -2.7173  -2.6829  -2.6505
    -2.6349  -2.5827  -2.4775  -2.4582  -2.4091  -2.2782  -2.2610  -2.2062
    -2.1671  -2.1312  -2.0854  -2.0293  -1.9552  -1.9370  -1.9035  -1.8740
    -1.8483  -1.8145  -1.7973  -1.7562  -1.7103  -1.6870  -1.6740  -1.6425
    -1.6215  -1.6028  -1.5901  -1.5557  -1.5442  -1.5148  -1.4314  -1.3986
    -1.3453  -1.3338  -1.2838  -1.2353  -1.1901  -1.1690  -1.1468  -1.1253
    -1.1017  -1.0873  -1.0763  -1.0208  -0.9814  -0.9559  -0.9245  -0.8898
    -0.8461  -0.8252  -0.7948  -0.7664  -0.7581  -0.7349  -0.6995  -0.6136
    -0.5933  -0.5728  -0.5347  -0.5278  -0.5089  -0.4902  -0.4756  -0.4557
    -0.4451  -0.4314  -0.4172  -0.3824  -0.3578  -0.3411  -0.3213  -0.3054
    -0.2929  -0.2785  -0.2677  -0.2184  -0.1670  -0.0447  -0.0206   0.0410
     0.0635   0.0984   0.1482   0.1713   0.2270   0.2423   0.2521   0.2722
     0.3053   0.3285   0.3598   0.3766   0.4237   0.4493   0.4710   0.5315
     0.5590   0.5966   0.6505   0.7029   0.7453   0.7658   0.8302   0.8630
     0.8720   0.9064   0.9347   0.9675   0.9949   1.0007   1.0307   1.0663
     1.0929   1.1278   1.1482   1.1818   1.2083   1.2376   1.2601   1.2804
     1.3281   1.3966   1.4563   1.5114   1.5355   1.6339   1.6737   1.6805
     1.7164   1.7946   1.8112   1.8507   1.9053   1.9330   1.9729   2.0080
     2.0197   2.0334   2.0453   2.0806   2.1313   2.1648   2.1819   2.1924
     2.2090   2.2324   2.2431   2.2972   2.3405   2.3803   2.4275   2.4502
     2.4666   2.5027   2.5211   2.6353   2.6524   2.7059   2.8294   3.3369
     3.6084   3.6220   3.8490   3.9321   3.9632   3.9762   4.0765   4.3730
     4.5820   4.6240   4.7534   5.0287   5.0953   5.1831   5.2150   5.3573
     5.4998   5.5404   5.6130   5.8008   5.9805   6.0748   6.1918   6.5135
     6.6643   6.7264

     the Fermi energy is     2.2437 ev

!    total energy              =  -27837.16231842 Ry

     total all-electron energy =  -1326948.302820 Ry
     estimated scf accuracy    <       0.00000098 Ry
     smearing contrib. (-TS)   =      -0.00045784 Ry
     internal energy E=F+TS    =  -27837.16186058 Ry

     The total energy is F=E-TS. E is the sum of the following terms:
     one-electron contribution =  -25405.79017508 Ry
     hartree contribution      =   13012.51287238 Ry
     xc contribution           =    -908.81387571 Ry
     ewald contribution        =   10962.14801846 Ry
     one-center paw contrib.   =  -25497.21870061 Ry

     convergence has been achieved in  19 iterations

     negative rho (up, down):  1.245E-02 0.000E+00

     Forces acting on atoms (cartesian axes, Ry/au):

     atom    1 type  1   force =     0.00137285   -0.00171364   -0.00547378
     atom    2 type  1   force =     0.00019667   -0.00019318   -0.00407097
     atom    3 type  1   force =    -0.00071375   -0.00054211   -0.00699972
     atom    4 type  1   force =    -0.00103375   -0.00072418   -0.00371882
     atom    5 type  1   force =     0.00147669   -0.00121422   -0.00296472
     atom    6 type  1   force =    -0.00061165    0.00195310   -0.00572786
     atom    7 type  1   force =    -0.00024415    0.00165750   -0.00302698
     atom    8 type  1   force =     0.00020185   -0.00008820   -0.00451287
     atom    9 type  1   force =     0.00007511    0.00001380   -0.00412247
     atom   10 type  1   force =    -0.00110936    0.00225335    0.00082128
     atom   11 type  1   force =     0.00236941    0.00257601    0.00652775
     atom   12 type  1   force =    -0.00064357   -0.00006448    0.00537505
     atom   13 type  1   force =    -0.00080283   -0.00015294    0.00963656
     atom   14 type  1   force =    -0.00074029   -0.00353668    0.00373613
     atom   15 type  1   force =     0.00106969   -0.00163445    0.00108587
     atom   16 type  1   force =    -0.00361656    0.00148090    0.00368305
     atom   17 type  1   force =    -0.00016914    0.00029279   -0.00102520
     atom   18 type  1   force =     0.00313990    0.00129510    0.00637194
     atom   19 type  1   force =    -0.00003057   -0.00003946    0.00017764
     atom   20 type  1   force =    -0.00015659   -0.00000793    0.00003863
     atom   21 type  1   force =     0.00007523   -0.00012374    0.00030530
     atom   22 type  1   force =    -0.00009359    0.00003559    0.00014704
     atom   23 type  1   force =    -0.00002518   -0.00002768    0.00039602
     atom   24 type  1   force =     0.00002774   -0.00031693    0.00003485
     atom   25 type  1   force =    -0.00010070    0.00019777    0.00032996
     atom   26 type  1   force =    -0.00007711    0.00000813    0.00007420
     atom   27 type  1   force =    -0.00001019   -0.00002321    0.00011009
     atom   28 type  1   force =     0.00007543    0.00029137    0.00024872
     atom   29 type  1   force =    -0.00028707    0.00007214    0.00010978
     atom   30 type  1   force =    -0.00020966   -0.00011733    0.00083152
     atom   31 type  1   force =     0.00026381    0.00027552    0.00015041
     atom   32 type  1   force =    -0.00031118    0.00051771    0.00068468
     atom   33 type  1   force =     0.00021374   -0.00028479    0.00023953
     atom   34 type  1   force =     0.00043804   -0.00032735    0.00057002
     atom   35 type  1   force =    -0.00010767   -0.00013722    0.00048236
     atom   36 type  1   force =    -0.00002422   -0.00017842   -0.00011303
     atom   37 type  2   force =     0.00024789    0.00044070   -0.00055252
     atom   38 type  2   force =    -0.00001859   -0.00108332    0.01005982
     atom   39 type  3   force =     0.00091289    0.00039852    0.00088803
     atom   40 type  4   force =    -0.00068953    0.00037510    0.00003600
     atom   41 type  4   force =    -0.00033002   -0.00160365   -0.01084328

     Total force =     0.015145     Total SCF correction =     0.001633
     SCF correction compared to forces is large: reduce conv_thr to get better values

     negative rho (up, down):  1.245E-02 0.000E+00

     negative rho (up, down):  1.245E-02 0.000E+00

     negative rho (up, down):  1.245E-02 0.000E+00

     negative rho (up, down):  1.245E-02 0.000E+00

     negative rho (up, down):  1.245E-02 0.000E+00

     negative rho (up, down):  1.245E-02 0.000E+00

     negative rho (up, down):  1.245E-02 0.000E+00

     negative rho (up, down):  1.245E-02 0.000E+00

     negative rho (up, down):  1.245E-02 0.000E+00

     negative rho (up, down):  1.245E-02 0.000E+00

     negative rho (up, down):  1.245E-02 0.000E+00

     negative rho (up, down):  1.245E-02 0.000E+00

     negative rho (up, down):  1.245E-02 0.000E+00

     negative rho (up, down):  1.245E-02 0.000E+00

     negative rho (up, down):  1.245E-02 0.000E+00

     negative rho (up, down):  1.245E-02 0.000E+00

     negative rho (up, down):  1.245E-02 0.000E+00

     negative rho (up, down):  1.245E-02 0.000E+00

     negative rho (up, down):  1.245E-02 0.000E+00

     negative rho (up, down):  1.245E-02 0.000E+00

     negative rho (up, down):  1.245E-02 0.000E+00

     negative rho (up, down):  1.245E-02 0.000E+00

     negative rho (up, down):  1.245E-02 0.000E+00

     negative rho (up, down):  1.245E-02 0.000E+00

     negative rho (up, down):  1.245E-02 0.000E+00

     negative rho (up, down):  1.245E-02 0.000E+00

     negative rho (up, down):  1.245E-02 0.000E+00

     negative rho (up, down):  1.245E-02 0.000E+00

     negative rho (up, down):  1.245E-02 0.000E+00

     negative rho (up, down):  1.245E-02 0.000E+00

     negative rho (up, down):  1.245E-02 0.000E+00

     negative rho (up, down):  1.245E-02 0.000E+00

     negative rho (up, down):  1.245E-02 0.000E+00

     negative rho (up, down):  1.245E-02 0.000E+00
 BEEFens 2000 ensemble energies
             -0.608390823969999E+02
             -0.362526428482110E+01
             -0.158783349851567E+02
              0.430486006454976E+02
             -0.221665067532813E+02
             -0.205827139913154E+02
             -0.353294775742064E+02
             -0.867364412061787E+02
             -0.466340366584255E+02
             -0.473881041410773E+02
             -0.370246706570759E+02
              0.228121344014263E+01
              0.408843626567827E+01
              0.762729209473918E+01
              0.266646393998286E+01
              0.476163162498128E+02
             -0.209382002900104E+02
             -0.230847617280187E+02
              0.193503277013621E+02
             -0.112679115730894E+03
              0.537784183987052E+02
             -0.290424400436412E+02
             -0.335318117467041E+01
             -0.114325570751330E+02
             -0.885775899287228E+01
             -0.466717599413889E+01
              0.885082147863473E+02
             -0.187445204465885E+02
             -0.903896623839330E+01
             -0.519882654619784E+02
              0.817659038510321E+02
             -0.187764065684336E+02
             -0.376019761620802E+02
              0.249958628325291E+02
             -0.284509401720140E+01
              0.164566688528665E+02
             -0.486020962411072E+01
              0.108282614390449E+02
              0.289020623237777E+02
             -0.103551396925532E+03
              0.559763333219732E+02
              0.142745223665071E+02
             -0.172239232779128E+01
             -0.362529600408213E+02
              0.123469258906668E+02
             -0.147029008060071E+02
              0.399546655465076E+02
              0.365794895013669E+02
             -0.308803541261149E+02
             -0.275924564892074E+02
             -0.329179256244212E+02
             -0.353022875425576E+02
              0.136592189796815E+02
             -0.492284407180298E+02
              0.115892996401443E+02
              0.624753498911987E+02
              0.637069173191822E+02
              0.356679240375331E+02
              0.154603655156995E+02
              0.271213351349008E+02
              0.893678640373904E+02
              0.213265289907615E+02
             -0.549990383784231E+02
             -0.157463927023573E+02
             -0.236554329078522E+02
              0.631557988525664E+02
             -0.775499151105550E+02
             -0.673349837770048E+02
             -0.260027329673584E+02
             -0.648700432375517E+01
             -0.472203778737280E+02
              0.271367073421671E+02
              0.803378402443104E+01
              0.870949515695412E+01
             -0.398135330211902E+02
             -0.347781830948126E+02
             -0.543314130553877E+02
              0.391334847536930E+02
             -0.296709289335342E+02
              0.265819156394966E+02
             -0.716418686616451E+01
             -0.318852351719307E+02
             -0.577809062155173E+02
             -0.177144877520157E+02
             -0.909106760931081E+01
             -0.125183937376981E+02
              0.413199309771089E+02
              0.684519877613347E+02
             -0.386710558360107E+02
             -0.796827209491882E+02
             -0.220179689046666E+02
              0.111799765915906E+03
             -0.593794812253068E+02
              0.357002053619896E+02
             -0.960846133274504E+01
             -0.664942109627775E+02
              0.255144830200132E+02
              0.399069488644070E+02
             -0.199239820652570E+02
              0.401173308186313E+02
             -0.296753630770688E+02
             -0.479516181689638E+02
              0.868181997958599E+02
              0.455199073807939E+02
              0.337231704639302E+02
              0.146884398858027E+02
              0.206183962108668E+02
              0.858759307490046E+02
             -0.257345298928363E+02
              0.788909758280028E+01
             -0.142776702202213E+03
              0.181660012721606E+02
             -0.718069181701257E+02
              0.151273335382891E+02
              0.205141034595552E+02
             -0.333804336012663E+02
             -0.558579189181564E+02
              0.655530945425323E+01
             -0.304920006425749E+02
              0.308869881933145E+02
             -0.531150128792428E+02
              0.171264420821728E+01
             -0.357936320948264E+02
             -0.425507701032046E+01
             -0.103338802183856E+01
              0.181600715629510E+02
              0.142376572166188E+01
             -0.653529017642040E+01
              0.591904441793071E+02
              0.910598845325211E+02
              0.485381518110935E+02
              0.832408838685589E+02
             -0.115407961323870E+02
              0.143462385884562E+02
              0.542460737491708E+02
             -0.111020781993520E+02
             -0.737607729580877E+02
             -0.385025641923002E+02
             -0.522993637973777E+02
             -0.277414844459231E+02
              0.327981764268504E+02
             -0.117094087846000E+03
             -0.187547765018657E+02
              0.415229666207684E+02
             -0.387293796289425E+02
             -0.366192738843145E+02
              0.545556944657058E+02
              0.401852902091247E+02
             -0.354730035784437E+02
              0.138115219687654E+02
             -0.273806144538157E+02
              0.344076569375354E+02
              0.447891981071109E+01
              0.211661858530021E+02
             -0.886943550099864E+02
             -0.481448813704377E+02
             -0.997217478628431E+01
              0.324180878836468E+01
             -0.367768846561612E+02
              0.106298047418504E+03
             -0.231418702379414E+02
             -0.399502694125673E+02
              0.389916370431529E+02
             -0.495524710813561E+02
             -0.364255355411482E+02
              0.325706416664713E+02
              0.124823144758737E+02
              0.164940185153240E+02
              0.116845537631476E+02
             -0.133153533790353E+02
              0.225633788618853E+02
              0.591721923437940E+02
             -0.312442325131689E+02
              0.163006966474641E+02
              0.936749004095210E+02
              0.341533616642427E+02
             -0.730844113808098E+01
             -0.189075412094418E+02
              0.153744982102086E+03
             -0.164557143543451E+02
              0.364154390133017E+02
              0.195024480506088E+02
              0.362534040925465E+02
              0.894409030667370E+02
              0.544300287658421E+02
             -0.242012809368380E+01
              0.228331174403937E+02
              0.486127923261386E+02
              0.364488949073077E+02
             -0.526936618193151E+02
              0.938368764071143E+02
             -0.827679604756767E+02
             -0.198543337136970E+02
              0.584359880117120E+02
              0.677948015050856E+01
              0.792056475241736E+01
              0.341742031800574E+02
              0.299755284362119E+02
              0.354538012013415E+02
             -0.639294146333909E+02
              0.288303910514014E+01
             -0.298265289713942E+02
             -0.873291531518369E+01
             -0.146283882414752E+01
             -0.724549884928815E+01
             -0.415897965969384E+01
              0.861452917065919E+02
             -0.101322887151297E+02
             -0.277071371782324E+02
             -0.497269052352014E+01
              0.140332531969308E+02
             -0.565539533682302E+02
             -0.408333701277582E+02
             -0.383051109052525E+02
             -0.631836519799920E+02
             -0.170199838939573E+02
             -0.448595506834390E+02
              0.163830885613922E+02
             -0.239571254277254E+01
             -0.104686262257287E+02
             -0.936542965191646E+01
              0.809263944096091E+01
             -0.243341214606471E+02
              0.691011304415947E+02
             -0.809243209520239E+02
             -0.141434085142718E+02
             -0.174499882460678E+02
              0.182364370774227E+02
              0.214940724716338E+02
             -0.465073841973210E+02
             -0.202394680301620E+02
              0.441998866570519E+02
             -0.276756348014404E+02
              0.187374817367980E+02
              0.383763888823122E+02
             -0.322835434605315E+01
              0.114437622678849E+03
             -0.230643370594184E+02
             -0.341863593914433E+02
              0.579734249133321E+01
             -0.228794640199716E+02
              0.529076816847285E+02
             -0.338178532327618E+02
              0.106803409553040E+02
              0.642180431098857E+02
             -0.126610639690235E+02
              0.120534585524009E+03
              0.126191104241845E+03
             -0.651477209760305E+02
              0.592019183301255E+02
              0.167004992056272E+02
             -0.519116390151378E+02
              0.216720305682668E+02
              0.354790789995908E+02
              0.363730436198937E+02
              0.135736537514737E+01
              0.160036327385143E+02
              0.697494938166459E+02
             -0.247567987714217E+02
              0.181646404374710E+02
              0.740891522366925E+02
             -0.373536611368846E+02
             -0.130075595348195E+02
              0.509888576429951E+02
              0.298169449410670E+02
              0.782406748117040E+02
              0.223348985784977E+02
              0.626885855261816E+01
              0.281192560449625E+02
              0.384253750102088E+02
             -0.472913074010744E+02
              0.332920767256331E+01
              0.130124080181455E+02
              0.114013464038590E+02
              0.221065016549151E+02
             -0.576272623627546E+02
              0.366987433751156E+02
             -0.445036581579949E+02
             -0.348207184520228E+02
              0.178396509477926E+02
             -0.181811125275771E+02
              0.556489232852275E+02
             -0.256658238573032E+02
              0.267487625750673E+02
              0.369181105206850E+02
              0.831269228491218E+02
              0.576031102925167E+02
              0.462910143028713E+02
             -0.105853959640434E+02
             -0.392738857714721E+01
             -0.332822437314423E+02
              0.752600100020950E+02
              0.799268893929705E+02
              0.362859075863785E+02
             -0.192545024256936E+02
              0.513163410270869E+02
             -0.163086939033922E+02
              0.215311916579413E+02
              0.616114358617664E+02
              0.214179210546021E+01
             -0.104645751714550E+02
             -0.283633544960067E+02
             -0.512928725314172E+02
              0.947739855744320E+02
              0.440866058208088E+02
             -0.560572242296414E+02
             -0.966936892616184E+01
              0.250589873396723E+02
             -0.999088265121566E+01
              0.593741940548193E+02
              0.152591921159523E+02
              0.801359137646173E+02
              0.280204366526666E+02
             -0.264711032343234E+02
              0.249610125342444E+02
             -0.503826341098681E+01
             -0.324477206689380E+02
              0.133595208679418E+02
              0.206212145563208E+02
              0.935120021061927E+02
              0.799407124927357E+02
              0.552397792359534E+02
              0.732581821341814E+02
              0.801682078987136E+01
             -0.274317023304654E+02
              0.163551795736691E+02
             -0.368978173605236E+02
             -0.477583944547894E+02
             -0.565111121582170E+02
             -0.267333241208615E+02
             -0.109979331602001E+03
             -0.292201549288183E+02
             -0.839454708260043E+02
              0.210584445783752E+02
             -0.478221313018016E+02
              0.397967170947897E+02
             -0.943822221066234E+02
             -0.330865364549418E+02
              0.549854318660338E+02
              0.208247112424751E+02
             -0.832851085205706E+02
              0.632632350256198E+02
             -0.257475485660728E+02
              0.513852459774996E+02
             -0.243369222570163E+02
             -0.753326189461010E+02
              0.112418540250753E+02
             -0.613062946425941E+02
             -0.168508939023249E+02
             -0.148615626988875E+01
              0.419394709013306E+02
              0.127338179544851E+03
             -0.462895073476237E+02
             -0.363649622548376E+02
             -0.983664685120516E+00
             -0.130563196328471E+02
             -0.824713490444949E+02
             -0.598309026725630E+02
              0.518535750265141E+02
             -0.289647051909143E+02
              0.169762059350602E+02
             -0.490744782671597E+02
             -0.132316131086301E+02
             -0.438407492918143E+02
              0.566963686557478E+02
              0.151489179573728E+02
             -0.232235443712252E+02
             -0.127318618267791E+02
              0.669455834518720E+01
             -0.621464080787888E+01
              0.442767647805555E+02
             -0.252702927426395E+02
              0.277721108293679E+01
              0.340076112279564E+02
              0.171748528132164E+02
             -0.160226465254834E+02
              0.156676334473704E+03
              0.539374277084584E+02
              0.118378292627263E+01
              0.162041912842011E+02
             -0.616317853285427E+02
              0.315885568337480E+02
             -0.723739212551340E+02
             -0.252883349376087E+02
             -0.524037772674138E+02
             -0.220568057509368E+02
              0.570642918210795E+02
             -0.538424413251338E+02
              0.161396426273564E+02
             -0.408853963355511E+01
              0.388900385841626E+01
             -0.434910880629382E+02
             -0.479517308484717E+02
             -0.401298998511186E+01
             -0.426028730684006E+02
             -0.217822494745992E+02
             -0.439606731938868E+02
             -0.119547786104995E+02
             -0.359887932512653E+02
             -0.517855202699291E+02
              0.213321771366909E+02
             -0.209830001618055E+02
              0.188345977310353E+02
              0.976941622244842E+01
             -0.739931331477125E+02
             -0.549516460900217E+02
             -0.399262429322386E+02
              0.355174472852966E+02
              0.270416808439523E+01
             -0.628374200785269E+02
              0.587140431267066E+02
             -0.402194183497570E+02
              0.546287847646058E+02
             -0.290323788160884E+02
             -0.447230610881602E+02
              0.299315264549855E+02
             -0.659541833766378E+02
             -0.380785868563872E+02
              0.674354637524326E+02
              0.204456512501023E+02
             -0.361059758720517E+02
              0.490715915495181E+02
             -0.174439843930853E+02
             -0.323652267305005E+02
             -0.302588985357816E+02
             -0.501977571658853E+02
              0.250028196804237E+02
             -0.935344779065608E+02
             -0.842358648334227E+02
             -0.736044750837982E+01
             -0.307601224283325E+02
             -0.577139985978445E+02
              0.723846787497299E+02
              0.131882607732571E+03
             -0.361738696152830E+02
             -0.256343842768683E+01
             -0.638691085716063E+02
              0.652302274528741E+02
              0.171246930939684E+02
             -0.182117502811941E+02
             -0.411048834574156E+02
              0.149081682903491E+02
             -0.587764758846130E+02
             -0.198140986278175E+02
             -0.907110399354044E+02
              0.337913616332029E+02
              0.169373814309373E+02
              0.183235361023901E+01
             -0.707595175109850E+01
             -0.330563000417385E+02
             -0.760261403658416E+01
              0.125854268276821E+03
             -0.199531489834848E+02
             -0.438512432932068E+02
             -0.685759877292044E+02
              0.109505366657285E+02
             -0.343045653669492E+02
              0.592597177728673E+01
              0.262269018692837E+02
              0.102298124285825E+02
              0.278664935263022E+02
              0.120220792439877E+02
              0.631216322242979E+02
              0.317579050386498E+02
             -0.327423957138005E+02
              0.356698019429896E+02
              0.380509819489913E+02
              0.121251781278472E+02
              0.488096972563339E+02
             -0.225442293068021E+02
              0.767787116370397E+02
              0.172948073538328E+02
             -0.273003604904960E+02
             -0.724230454215784E+01
             -0.186797680591572E+02
              0.262447068739399E+02
             -0.235214309023616E+02
             -0.135878487716695E+00
             -0.851858421941927E+01
              0.811917811927137E+02
              0.501464287708462E+02
             -0.688988197391739E+02
             -0.477661684787876E+01
             -0.556913613924717E+02
             -0.159967340919070E+02
             -0.268890472193529E+02
              0.377615333800770E+01
              0.580392812961026E+00
             -0.258242544641213E+02
              0.817244856998590E+01
             -0.605079521404630E+01
             -0.128849347965610E+02
              0.861353534234272E+02
              0.182306503840259E+02
             -0.809022610655413E+02
             -0.459418483986124E+02
              0.947407094911146E+02
              0.278487848263410E+02
             -0.107099331932834E+02
              0.104837762062761E+03
             -0.195453868927171E+02
             -0.123319447393586E+02
             -0.540687425986528E+01
              0.107741997526459E+02
              0.273141523532135E+02
              0.782173966945621E+01
              0.306193547008655E+02
             -0.188401704947119E+02
             -0.304620157633095E+02
             -0.418836104127885E+02
             -0.478144675746619E+02
              0.465107590722037E+02
              0.127243165829373E+02
              0.388608172517474E+02
              0.133816547324267E+02
              0.857931777869429E+02
              0.156996790493734E+02
             -0.848193006045569E+02
             -0.335319144859235E+02
              0.134065054599234E+02
             -0.303653856607970E+02
              0.628249694333126E+02
             -0.889977025271537E+01
              0.149276538205408E+02
              0.498660757025064E+02
             -0.709342624088341E+02
              0.150139784709947E+03
              0.209195414097383E+02
              0.272073251788064E+02
              0.348548577452427E+02
              0.103938339850060E+02
             -0.157712813333785E+01
              0.359436078198805E+02
             -0.357991039189179E+02
              0.775368210542437E+02
              0.686670353158206E+02
             -0.407046363483171E+02
              0.149904314669881E+02
              0.672100381679405E+02
             -0.224582419299026E+02
              0.154799682950585E+02
              0.436201454436801E+02
              0.423404478459981E+02
             -0.786838864109545E+02
             -0.152977920853701E+02
             -0.357082330394647E+02
             -0.149228338005469E+01
             -0.767352633697205E+01
             -0.545633281499533E+01
             -0.181138924361213E+02
             -0.294534392509559E+02
              0.636015755955064E+01
              0.111982419751558E+02
              0.537071812815917E+02
             -0.391383929590855E+02
              0.375431833588150E+02
              0.439697944408255E+02
             -0.187135887775212E+02
              0.874507478077009E+02
             -0.699752949685200E+02
             -0.103458720142586E+03
             -0.661185444222312E+01
             -0.269681708227711E+01
              0.386306656115164E+01
              0.791527235823497E+02
             -0.107290869922503E+02
              0.417785671893263E+02
              0.444992615517417E+02
              0.386359559935698E+02
             -0.997171207692872E+01
              0.629312663586346E+02
             -0.134017179402606E+02
             -0.308349470181563E+02
             -0.480565457831750E+02
              0.590496972652832E+01
              0.370636476381231E+02
             -0.603968683893703E+01
              0.394096436305022E+02
             -0.175851604871906E+01
              0.656960192139841E+02
              0.187933648783094E+02
              0.100082410412926E+02
             -0.121890034507790E+02
              0.333039375373849E+02
              0.363711773500535E+02
              0.233287041167335E+02
             -0.521081425229113E+00
             -0.552044023940708E+02
              0.261495608773661E+02
              0.175717996491621E+02
              0.403683945695324E+02
              0.273042272469476E+02
              0.373525983079418E+02
             -0.607595351678833E+01
              0.251772695105914E+02
             -0.299334162536929E+02
             -0.197783564345229E+01
             -0.570714787113424E+02
             -0.308920827222138E+02
              0.379903369808975E+02
             -0.938068951705704E+02
              0.295182105991808E+02
              0.184433419015729E+02
              0.842402942389884E+02
             -0.301224912049286E+02
              0.330264335202973E+02
             -0.138070804673857E+02
             -0.465284741017340E+02
             -0.763678051485520E+02
             -0.527988277737924E+01
             -0.862276866979109E+02
              0.200175591692755E+02
             -0.248093829558341E+02
              0.306668834198436E+02
              0.237472820500502E+02
             -0.241767831840187E+02
             -0.266054404322466E+02
              0.392090321848321E+02
             -0.589760456719127E+02
             -0.116934515314243E+02
             -0.196591120361593E+02
              0.213336246735504E+02
             -0.892332856172101E+01
              0.363267305618260E+01
             -0.201144629364876E+02
              0.560258049000191E+02
             -0.440754189526804E+02
              0.789173562820633E+01
              0.586896376120565E+02
             -0.324293814416167E+02
              0.361126895385672E+01
             -0.882772803898604E+01
             -0.671249042208860E+02
             -0.483842882835966E+02
             -0.862943351130022E+01
              0.241469342965838E+02
              0.303188363020054E+02
              0.860732175172939E+01
             -0.417213299970376E+01
              0.152366045444353E+02
             -0.441129200533530E+02
              0.332822238239925E+01
             -0.532559974357731E+02
             -0.325565872615781E+02
              0.476051322557236E+02
             -0.295986701653579E+02
              0.624173445617862E+02
             -0.215212497525675E+02
              0.354731198332780E+02
              0.242362016517940E+02
             -0.645765931958344E+02
             -0.281230671701368E+02
              0.935385839873476E+01
             -0.372752207918879E+02
             -0.340684402852253E+02
             -0.832304821671758E+02
             -0.540823060343760E+02
             -0.511819567467322E+02
             -0.416811472719436E+02
             -0.987102507284874E+00
              0.100003472690617E+02
              0.104385159357651E+01
              0.153763966751530E+02
             -0.550884119953490E+02
              0.142161597145251E+02
              0.257296887795095E+02
             -0.668693504931564E+02
             -0.703776392845531E+02
             -0.432370068943735E+02
             -0.172585524305311E+02
              0.178967022004348E+02
              0.455139061676812E+01
             -0.427316285231888E+02
              0.367194844160878E+02
             -0.216800083651882E+02
              0.518899361059051E+02
             -0.889650347876701E+02
              0.599322125071317E+02
             -0.213727822571412E+01
             -0.369481551250866E+02
             -0.217152135366698E+02
              0.472398347382286E+01
              0.375921904573606E+02
             -0.758277036353907E+02
             -0.121157808617770E+02
             -0.217145754377756E+02
              0.512351205467254E+02
              0.867070346963147E+02
             -0.967840630999013E+02
              0.946633257695933E+02
              0.469041590955827E+02
             -0.727535966722755E+02
             -0.367540397495744E+02
              0.754037277873256E+02
              0.633662898131505E+02
             -0.181552447422599E+02
             -0.465939729490833E+01
              0.735880640232847E+01
              0.651038892686467E+02
             -0.509957841687061E+02
              0.158798428397017E+02
             -0.474082045172604E+01
              0.348657005084572E+02
             -0.748947139803272E+02
             -0.649327202946975E+01
             -0.351962244282915E+02
              0.462035111022095E+02
              0.470036179544817E+02
             -0.864192675120760E+02
             -0.488353574375560E+02
             -0.256893557991239E+02
             -0.340461322298479E+02
             -0.109643847799769E+02
             -0.243502793221928E+02
              0.428558750457556E+02
              0.402355839568077E+02
             -0.566033369834668E+01
             -0.417444229507631E+02
             -0.852743158883441E+02
              0.444470312463770E+02
             -0.524638573734999E+02
             -0.314032044710173E+02
              0.548562936790739E+01
             -0.323454607591707E+02
             -0.399054136757856E+02
             -0.240886194094518E+02
             -0.386596043086745E+02
[...]
              0.284201734531682E+02
              0.142167847227169E+03
              0.243042667330965E+02
              0.122976860261313E+02
             -0.465706239772729E+02
             -0.639337183466348E+02
             -0.189334630721573E+02
              0.330356506388392E+02
             -0.428498946903994E+01
              0.190368603684681E+02
              0.336979450297731E+02
             -0.588199592907669E+02
              0.223033319808595E+02
              0.583397216959676E+02
              0.554470736845103E+02
             -0.421833917818140E+01
             -0.136610062440127E+01
             -0.995839146573269E+01
             -0.483518666559906E+02
             -0.676794191299763E+02
              0.787528217747939E+02
             -0.525681510187326E+01
             -0.589333771967579E+02
              0.172208377729683E+01
             -0.205915994743957E+02
              0.940741507206230E+02
             -0.217038892410989E+02
             -0.354521035593022E+02
              0.336029162209496E+02
             -0.146112869602585E+02
              0.390700735707676E+02
             -0.238752947166660E+01
              0.101338864782975E+03
              0.490954775358763E+02
             -0.510502608375724E+01
             -0.322851896463701E+02
              0.232962697347426E+02
             -0.529874870637691E+02
             -0.128148179633443E+02
              0.587238792471655E+02
             -0.288344076414171E+02
             -0.439479241773246E+02
             -0.223779356443417E+02
              0.520034315921877E+02
              0.125196830863288E+02
             -0.851027204075786E+02
              0.304689083072831E+02
              0.152328389016560E+02
              0.578636226421219E+01
             -0.514679062818042E+02
             -0.376832518766560E+01
              0.323976979105102E+02
              0.514111666821165E+02
              0.634136576419841E+02
              0.229659317174813E+02
              0.782545715373516E+00
             -0.499292123624818E+02
             -0.511150012128127E+02
             -0.749735640959879E+02
             -0.616443422452437E+01
              0.309741075750545E+02
             -0.379225609184348E+01
              0.548194537870372E+02
             -0.318783265281213E+02
              0.166959581659371E+02
             -0.102963308015669E+02
             -0.290190125103711E+02
              0.587073132989347E+02
              0.793975559438962E+01
              0.605730976820693E+02
              0.510539276932741E+01
              0.265596710735362E+02
             -0.193150162139389E+02
              0.587681771740394E+02
             -0.111691172607748E+02
             -0.134924724896848E+00
             -0.792100306312715E+02
             -0.128602839403569E+02
              0.720881786108034E+02
              0.674895371018575E+02
              0.252425247507533E+02
             -0.130811296650738E+02
              0.343970280533964E+01
             -0.173976438954120E+02
             -0.208024002228876E+01
              0.909993362543917E+02
              0.125301793987830E+01
             -0.191002784140236E+02
             -0.111028978739277E+03
             -0.553967833901424E+02
             -0.375900009757595E+02
             -0.660285888925279E+02
             -0.556882700287140E+02
             -0.684368370215428E+02
             -0.448164670988792E+02
             -0.411743506210446E+02
             -0.453076553310944E+02
              0.484626548035822E+02
             -0.294810166489509E+02
             -0.997957357727819E+02
              0.419942511115662E+02
             -0.260652299434454E+02
             -0.792853102270209E+02
              0.946324431874905E+02
             -0.220251380964288E+02
              0.228591545588078E+02
              0.456213474123105E+02
             -0.134375491044119E+01
              0.254956721395174E+02
              0.471482734219694E+01
              0.420806708281479E+00
             -0.150856642651432E+02
             -0.717403390023968E+02
              0.133530977685113E+02
             -0.129699237493963E+03
              0.625679069739967E+02
             -0.441628111900092E+02
             -0.163381059072040E+02
             -0.158639668395103E+02
              0.716871438227175E+01
             -0.228182070203809E+02
              0.297933356809587E+02
             -0.521946017956994E+02
              0.368107324403438E+02
              0.371737073523369E+02
              0.168817813295477E+02
              0.100668537158227E+02
              0.198337375170846E+02
              0.623648950352026E+01
              0.311140804406382E+02
             -0.800574319566849E+01
             -0.593781464271321E+02
              0.759589753482771E+01
             -0.153189803048491E+02
             -0.193738132420390E+01
              0.507418819038583E+02
             -0.828832957055684E+02
             -0.150747550383778E+01
              0.577264316098194E+00
              0.997828323568149E+01
              0.319235657226026E+02
             -0.123849479590620E+02
              0.837833612506938E+02
              0.488859825732682E+02
             -0.183746745036877E+02
             -0.959585810786740E+01
              0.107243548826602E+01
              0.771528273777483E+02
             -0.587623577313292E+02
             -0.106024037201406E+03
              0.309894532318365E+02
             -0.163345778580867E+02
             -0.139744918449118E+02
              0.130950449389283E+02
              0.770447246421278E+02
              0.465259209163112E+02
             -0.153830894515940E+02
             -0.504228166191275E+02
             -0.551298969768322E+01
              0.307134256246080E+02
             -0.111912671527265E+02
             -0.757586365712439E+02
             -0.271950167537213E+01
             -0.892145682188439E+02
             -0.476832843962266E+02
              0.770379585057604E+02
             -0.484711959926570E+02
             -0.638138033676535E+02
             -0.515567385242088E+02
             -0.350617113872998E+02
              0.341676657651644E+02
              0.823645647780171E+02
             -0.357392675019906E+01
              0.277221731177847E+02
             -0.184218403541479E+02
             -0.695610387022751E+02
              0.466168082271616E+02
             -0.446101505805264E+02
              0.322507376049086E+02
              0.377134380266347E+02
             -0.658436413797665E+01
              0.391532633739281E+02
              0.439419796894206E+02
              0.100921288716297E+03
             -0.156372345305408E+02
             -0.457177446653797E+02
             -0.614333284435432E+02
             -0.124314900649010E+02
             -0.233653949115041E+02
              0.103253760341433E+03
             -0.449996833547652E+02
              0.105476565444148E+02
              0.973734621586266E+01
             -0.265181161329474E+02
             -0.800722378188445E+02
             -0.700614697381428E+01
              0.982227938345246E+02
              0.941871619846542E+01
              0.811305746847609E+01
             -0.528256669724390E+02
             -0.606839452526060E+02
             -0.566024161386305E+01
              0.501517026999079E+02
             -0.222463360646368E+02
              0.108226254251117E+03
             -0.436518373783516E+02
              0.146780702760185E+02
             -0.224656813224046E+02
             -0.720067292340269E+02
              0.169116366595540E+01
             -0.502918510179595E+02
             -0.762449923813679E+02
              0.617625331916906E+01
              0.236982686596889E+01
              0.515338159384003E+02
              0.187811801863096E+02
             -0.324316242036353E+02
              0.230602132661522E+02
             -0.812884554808200E+02
             -0.522991583315439E+02
              0.903955195786962E+02
              0.142682291149900E+02
             -0.188333279243315E+02
             -0.353170195298758E+02
             -0.269808459116189E+01
             -0.589072489897205E+01
              0.832116752923536E+02
              0.418627863486585E+02
             -0.166414085852521E+02
             -0.122097178867916E+02
             -0.428652324120345E+02
             -0.201154811236891E+02
             -0.671595998192359E+02
              0.460746368174282E+02
              0.547422018740431E+01
              0.145135302684583E+02
              0.156480062789057E+02
             -0.579158519210722E+00
             -0.168874406446532E+02
             -0.308627138428511E+01
             -0.100681041294143E+03
             -0.230221405469313E+02
             -0.766020189927298E+01
             -0.949980690251914E+01
              0.547756212945404E+02
              0.625264625009200E+02
              0.165227781033065E+02
             -0.972867180143542E+02
              0.649088662500552E+02
             -0.215549124054387E+02
             -0.377911950054727E+02
             -0.866291701830051E+02
             -0.387760775767987E+02
              0.565844161002070E+02
              0.244813696691617E+02
              0.515869931629692E+01
              0.293036496456349E+02
             -0.566235158255001E+02
             -0.423405859455396E+02
              0.516557759785686E+02
              0.388186871345550E+02
              0.520102725812093E+02
             -0.122810055048078E+01
              0.686472969358357E+01
              0.570791137173397E+02
              0.965068953231582E+02
             -0.300825857131940E+02
              0.323649724019547E+02
             -0.118901203992129E+02
             -0.413161473854382E+02
             -0.315011980011269E+02
             -0.300863448150670E+02
             -0.131661195564285E+02
             -0.524649154889523E+02
             -0.217727367308066E+02
             -0.141486169368289E+03
              0.369644354116583E+02
              0.207389977968448E+02
             -0.394597558957703E+01
             -0.380915049583673E+02
             -0.204735436541392E+02
             -0.528060404860526E+02
              0.151419133333588E+02
              0.821929704788548E+02
             -0.252726933795627E+02
             -0.163375853194464E+02
              0.238556543770161E+02
             -0.490460616735639E+02
              0.882577820139179E+02
              0.154786460028146E+02
              0.226704457801249E+02
              0.491471771547355E+02
              0.321138350928084E+01
              0.543444900019651E+02
              0.143381567046835E+02
             -0.106665594868317E+02
              0.734275970158521E+01
              0.791276481437478E+00
              0.728932506745047E+02
              0.101278589656574E+02
              0.120856095327486E+02
             -0.130276472440415E+02
              0.132609673241725E+02
             -0.913411744081728E+02
             -0.326649311070975E+02
             -0.458492095474692E+02
              0.486493991491708E+02
             -0.291855270620421E+02
             -0.659968338008500E+02
              0.539775202013974E+02
             -0.122378848041787E+02
              0.441034156439540E+02
             -0.900884430612617E+02
              0.232494453952161E+02
              0.859608534211151E+01
              0.583712578263669E+01
             -0.834776092102777E+01
             -0.905465178744316E+01
              0.480596190963226E+02
              0.200992526003756E+01
             -0.476204255459463E+02
             -0.176529427328600E+02
              0.277298791247990E+02
             -0.118199382909908E+03
             -0.931880491243099E+02
              0.397251384153975E+01
              0.117958538334021E+02
             -0.414153408451425E+02
             -0.389156512608281E+01
              0.112367664466933E+03
              0.307345772867150E+02
             -0.572847107840690E+02
              0.927598733232833E+01
             -0.967428446251161E+01
              0.105842764545752E+02
             -0.338366234854468E+02
              0.195852524219054E+02
              0.285190077684989E+02
             -0.301331763777438E+01
              0.108432400578101E+03
             -0.140480602748517E+02
             -0.316766323421956E+02
              0.143538833658839E+02
              0.467672601714092E+02
             -0.356657760904988E+02
             -0.318299618811300E+01
              0.967017186540980E+02
             -0.466198389938768E+01
              0.622986420336770E+02
              0.135778546084265E+02
             -0.904660048791094E+01
             -0.305874766119447E+02
              0.567877135035446E+02
             -0.515612925612577E+02
             -0.221564362445190E+01
             -0.170497644459952E+02
             -0.406164399754447E+02
              0.185200297447281E+02
              0.239690774760139E+02
              0.116211687892741E+02
              0.724632338729293E+00
             -0.385415637040010E+02
              0.215921133420031E+02
             -0.675470669042210E+01
             -0.247142105152099E+02
             -0.211118317404869E+02
              0.203881124937051E+02
             -0.597005932852073E+01
             -0.350031161047524E+02
             -0.106874360441471E+03
              0.103080302278250E+02
              0.249268514370744E+02
             -0.388261719894084E+02
             -0.211434647605133E+02
              0.808891784598492E+02
              0.653121264795092E+01
              0.311665971448214E+02
              0.392156122085854E+01
              0.322738405872539E+02
              0.647268934574856E+01
             -0.373883033927489E+02
             -0.233015566824730E+01
              0.877809145469803E+01
              0.274550027034838E+02
              0.783803440552388E+02
              0.508648885263113E+02
              0.185594578018765E+00
              0.169347441453809E+02
              0.614587047372273E+02
              0.236504370655879E+02
             -0.754614773422575E+02
             -0.274409331525827E+02
              0.151352559145688E+02
              0.563852132504127E+01
              0.255647950709565E+02
             -0.549087458114258E+02
              0.901079352345067E+01
              0.386791568477770E+02
              0.499225648237075E+02
             -0.435979444189086E+02
             -0.690975827213492E+01
             -0.208755933125610E+01
             -0.134270597160682E+02
             -0.366387982449013E+02
             -0.215665558874837E+02
             -0.203162708497717E+01
              0.795088845201678E+01
              0.422344859007012E+02
             -0.309103585523565E+02
              0.828037702578351E+02
              0.328324885422842E+02
              0.220256244982572E+02
              0.333760621605407E+02
              0.323907655289026E+02
              0.346860294079246E+02
              0.538492275652947E+02
             -0.434958503091922E+02
              0.621013816342744E+02
             -0.112525865208033E+03
              0.308177649551623E+02
             -0.106781823215602E+03
              0.856700964119336E+02
              0.692382127526083E+02
             -0.110117412610047E+02
             -0.494454194189611E+02
             -0.430488982308115E+02
             -0.624937615499351E+02
             -0.630208242059595E+02
              0.553043704728133E+02
              0.406476967967503E+02
              0.237431695373342E+02
              0.374643525189887E+02
              0.404122426271121E+02
             -0.383066570274327E+02
             -0.198298708826117E+02
              0.587729090307590E+02
             -0.116229010241022E+02
              0.552921918751414E+02
              0.701102835821507E+02
             -0.554761664168873E+01
             -0.707977021621737E+02
             -0.906665012628537E+00
             -0.246761707928251E+01
             -0.885176561461105E+01
             -0.178823367154865E+01
             -0.654507384267554E+02
             -0.211210068359704E+02
              0.540990236981925E+01
              0.900718778235907E+01
              0.470023851805633E+02
             -0.398744144140483E+02
              0.658928162522628E+02
             -0.426274592183446E+02
              0.210898641360204E+02
              0.351284700234396E+02
 
 BEEF-vdW xc energy contributions
           1 :   -784.797585399970     
           2 :    721.037494219984     
           3 :   -610.571316847258     
           4 :    480.414462349037     
           5 :   -358.088689881158     
           6 :    263.489486112578     
           7 :   -204.356477533823     
           8 :    176.219403329427     
           9 :   -166.402133116851     
          10 :    160.196083111077     
          11 :   -146.677465443667     
          12 :    121.976044190617     
          13 :   -89.1453714570692     
          14 :    55.2490515062152     
          15 :   -27.3497150116319     
          16 :    9.22464918919366     
          17 :  -7.675298175456646E-002
          18 :   -4.50617580020787     
          19 :    10.0504011391686     
          20 :   -20.4731468842514     
          21 :    36.3918978440144     
          22 :   -55.1323543527300     
          23 :    72.2580584165859     
          24 :   -83.7875994582929     
          25 :    88.0100145564898     
          26 :   -86.0988575521935     
          27 :    81.3376078134116     
          28 :   -77.4270994287027     
          29 :    76.7299851067709     
          30 :   -79.2815423110706     
          31 :   -86.0279067851621     
          32 :   -65.9400772237375     

     Writing output data file ./pwscf.save/
 
     init_run     :    320.19s CPU    324.53s WALL (       1 calls)
     electrons    :  12522.30s CPU  12646.98s WALL (       1 calls)
     forces       :     96.96s CPU     98.21s WALL (       1 calls)

     Called by init_run:
     wfcinit      :    272.91s CPU    276.26s WALL (       1 calls)
     potinit      :     44.06s CPU     44.38s WALL (       1 calls)
     hinit0       :      1.40s CPU      1.45s WALL (       1 calls)

     Called by electrons:
     c_bands      :  10457.70s CPU  10553.61s WALL (      20 calls)
     sum_band     :   1448.40s CPU   1461.53s WALL (      20 calls)
     v_of_rho     :    101.91s CPU    105.86s WALL (      20 calls)
     newd         :     30.80s CPU     42.71s WALL (      20 calls)
     PAW_pot      :    134.41s CPU    134.42s WALL (      20 calls)
     mix_rho      :    393.82s CPU    394.44s WALL (      20 calls)
     vdW_kernel   :     33.46s CPU     33.47s WALL (       1 calls)

     Called by c_bands:
     init_us_2    :     73.11s CPU     73.36s WALL (     546 calls)
     cegterg      :   9691.26s CPU   9786.08s WALL (     260 calls)

     Called by *egterg:
     cdiaghg      :     95.22s CPU     95.33s WALL (    1354 calls)
     h_psi        :   6169.67s CPU   6202.91s WALL (    1380 calls)
     s_psi        :   1029.05s CPU   1029.15s WALL (    1380 calls)
     g_psi        :     15.48s CPU     15.49s WALL (    1107 calls)

     Called by h_psi:
     h_psi:calbec :    968.13s CPU    968.50s WALL (    1380 calls)
     vloc_psi     :   4147.25s CPU   4148.87s WALL (    1380 calls)
     add_vuspsi   :   1029.36s CPU   1029.57s WALL (    1380 calls)

     General routines
     calbec       :   1424.67s CPU   1425.07s WALL (    1692 calls)
     fft          :     47.52s CPU     47.55s WALL (    3220 calls)
     ffts         :    126.90s CPU    126.93s WALL (    9356 calls)
     fftw         :   4260.25s CPU   4261.22s WALL (  337128 calls)
 
     Parallel routines
 
     PWSCF        :      3h37m CPU      3h39m WALL

 
   This run was terminated on:  13:46:47   4Jan2023            

=------------------------------------------------------------------------------=
   JOB DONE.
=------------------------------------------------------------------------------=
