
     Program PWSCF v.6.7MaX starts on 26Sep2022 at 14: 7: 4 

     This program is part of the open-source Quantum ESPRESSO suite
     for quantum simulation of materials; please cite
         "P. Giannozzi et al., J. Phys.:Condens. Matter 21 395502 (2009);
         "P. Giannozzi et al., J. Phys.:Condens. Matter 29 465901 (2017);
          URL http://www.quantum-espresso.org", 
     in publications or presentations arising from this work. More details at
     http://www.quantum-espresso.org/quote

     Parallel version (MPI), running on     1 processors

     MPI processes distributed on     1 nodes
     Reading input from chch3-ensemble.in
Warning: card &CELL ignored
Warning: card / ignored

     Current dimensions of program PWSCF are:
     Max number of different atomic species (ntypx) = 10
     Max number of k-points (npk) =  40000
     Max angular momentum in pseudopotentials (lmaxx) =  3
     file Pt.pbe-n-kjpaw_psl.1.0.0.UPF: wavefunction(s)  6S 5D renormalized
     file C.pbe-n-kjpaw_psl.1.0.0.UPF: wavefunction(s)  2S 2P renormalized
     file H.pbe-kjpaw_psl.1.0.0.UPF: wavefunction(s)  1S renormalized

     **************************************************************************
     Initializing libbeef V0.1.2 with the BEEF-vdW functional.
     Citation: Wellendorff et al., PRB 85, 235149 (2012).
     **************************************************************************


     IMPORTANT: XC functional enforced from input :
     Exchange-correlation= BEEF-VDW
                           (   1   4  43  14   2   0   0)
     Any further DFT definition will be discarded
     Please, verify this is what you really want


     Subspace diagonalization in iterative solution of the eigenvalue problem:
     a serial algorithm will be used

 
     G-vector sticks info
     --------------------
     sticks:   dense  smooth     PW     G-vecs:    dense   smooth      PW
     Sum        4267    4267   1159               724113   724113  102163
 


     bravais-lattice index     =            0
     lattice parameter (alat)  =      16.0349  a.u.
     unit-cell volume          =   11527.8325 (a.u.)^3
     number of atoms/cell      =           42
     number of atomic types    =            3
     number of electrons       =       372.00
     number of Kohn-Sham states=          223
     kinetic-energy cutoff     =      60.0000  Ry
     charge density cutoff     =     240.0000  Ry
     scf convergence threshold =      1.0E-06
     mixing beta               =       0.7000
     number of iterations used =            8  local-TF  mixing
     Exchange-correlation= BEEF-VDW
                           (   1   4  43  14   2   0   0)

     celldm(1)=  16.034858  celldm(2)=   0.000000  celldm(3)=   0.000000
     celldm(4)=   0.000000  celldm(5)=   0.000000  celldm(6)=   0.000000

     crystal axes: (cart. coord. in units of alat)
               a(1) = (   1.000000   0.000000   0.000000 )  
               a(2) = (   0.500000   0.866025   0.000000 )  
               a(3) = (   0.000000   0.000000   3.228655 )  

     reciprocal axes: (cart. coord. in units 2 pi/alat)
               b(1) = (  1.000000 -0.577350  0.000000 )  
               b(2) = (  0.000000  1.154701  0.000000 )  
               b(3) = (  0.000000  0.000000  0.309726 )  


     PseudoPot. # 1 for Pt read from file:
     /users/bkreitz1/quantum-espresso/potentials/Pt.pbe-n-kjpaw_psl.1.0.0.UPF
     MD5 check sum: 04dc8a03c51ece93fc7b5889c2958091
     Pseudo is Projector augmented-wave + core cor, Zval = 10.0
     Generated using 'atomic' code by A. Dal Corso  v.6.7MaX
     Shape of augmentation charge: PSQ
     Using radial grid of 1277 points,  6 beta functions with: 
                l(1) =   0
                l(2) =   0
                l(3) =   1
                l(4) =   1
                l(5) =   2
                l(6) =   2
     Q(r) pseudized with 0 coefficients 


     PseudoPot. # 2 for C  read from file:
     /users/bkreitz1/quantum-espresso/potentials/C.pbe-n-kjpaw_psl.1.0.0.UPF
     MD5 check sum: a169b0ebad56f5ec0d79c4633f80bf22
     Pseudo is Projector augmented-wave + core cor, Zval =  4.0
     Generated using 'atomic' code by A. Dal Corso  v.6.7MaX
     Shape of augmentation charge: PSQ
     Using radial grid of 1073 points,  4 beta functions with: 
                l(1) =   0
                l(2) =   0
                l(3) =   1
                l(4) =   1
     Q(r) pseudized with 0 coefficients 


     PseudoPot. # 3 for H  read from file:
     /users/bkreitz1/quantum-espresso/potentials/H.pbe-kjpaw_psl.1.0.0.UPF
     MD5 check sum: ae98473e6dc62675f0d0baffdab24f65
     Pseudo is Projector augmented-wave, Zval =  1.0
     Generated using 'atomic' code by A. Dal Corso  v.6.7MaX
     Shape of augmentation charge: PSQ
     Using radial grid of  929 points,  2 beta functions with: 
                l(1) =   0
                l(2) =   0
     Q(r) pseudized with 0 coefficients 


     atomic species   valence    mass     pseudopotential
        Pt            10.00   195.08400     Pt( 1.00)
        C              4.00    12.01100     C ( 1.00)
        H              1.00     1.00800     H ( 1.00)

     No symmetry found



   Cartesian axes

     site n.     atom                  positions (alat units)
         1           Pt  tau(   1) = (   0.0000000   0.0000000   1.0017346  )
         2           Pt  tau(   2) = (   0.3333333   0.0000000   1.0017346  )
         3           Pt  tau(   3) = (   0.6666667   0.0000000   1.0017346  )
         4           Pt  tau(   4) = (   0.1666667   0.2886751   1.0017346  )
         5           Pt  tau(   5) = (   0.5000000   0.2886751   1.0017346  )
         6           Pt  tau(   6) = (   0.8333333   0.2886751   1.0017346  )
         7           Pt  tau(   7) = (   0.3333333   0.5773503   1.0017346  )
         8           Pt  tau(   8) = (   0.6666667   0.5773503   1.0017346  )
         9           Pt  tau(   9) = (   1.0000000   0.5773503   1.0017346  )
        10           Pt  tau(  10) = (   0.1666667   0.0962250   1.2739001  )
        11           Pt  tau(  11) = (   0.5000000   0.0962250   1.2739001  )
        12           Pt  tau(  12) = (   0.8333333   0.0962250   1.2739001  )
        13           Pt  tau(  13) = (   0.3333333   0.3849002   1.2739001  )
        14           Pt  tau(  14) = (   0.6666667   0.3849002   1.2739001  )
        15           Pt  tau(  15) = (   1.0000000   0.3849002   1.2739001  )
        16           Pt  tau(  16) = (   0.5000000   0.6735753   1.2739001  )
        17           Pt  tau(  17) = (   0.8333333   0.6735753   1.2739001  )
        18           Pt  tau(  18) = (   1.1666667   0.6735753   1.2739001  )
        19           Pt  tau(  19) = (  -0.0011258   0.1917758   1.5410445  )
        20           Pt  tau(  20) = (   0.3339883   0.1920337   1.5459885  )
        21           Pt  tau(  21) = (   0.6652488   0.1932943   1.5440678  )
        22           Pt  tau(  22) = (   0.1666787   0.4824051   1.5410539  )
        23           Pt  tau(  23) = (   0.5012733   0.4777860   1.5486002  )
        24           Pt  tau(  24) = (   0.8329783   0.4813091   1.5436184  )
        25           Pt  tau(  25) = (   0.3360672   0.7681987   1.5391756  )
        26           Pt  tau(  26) = (   0.6701809   0.7703212   1.5486021  )
        27           Pt  tau(  27) = (   0.9985565   0.7705653   1.5440513  )
        28           Pt  tau(  28) = (   0.0006540  -0.0003584   1.8170807  )
        29           Pt  tau(  29) = (   0.3333306   0.0042976   1.8391501  )
        30           Pt  tau(  30) = (   0.6739652  -0.0042634   1.8086578  )
        31           Pt  tau(  31) = (   0.1586690   0.2932295   1.8103388  )
        32           Pt  tau(  32) = (   0.4960731   0.2864614   1.8391856  )
        33           Pt  tau(  33) = (   0.8308203   0.2892863   1.8171813  )
        34           Pt  tau(  34) = (   0.3339112   0.5768909   1.8171361  )
        35           Pt  tau(  35) = (   0.6662393   0.5775169   1.8208529  )
        36           Pt  tau(  36) = (   0.9981795   0.5791168   1.8171965  )
        37           C   tau(  37) = (   0.4271496   0.1381826   2.0200926  )
        38           C   tau(  38) = (   0.3208367   0.1992005   2.1483766  )
        39           H   tau(  39) = (   0.5300202   0.0790205   2.0707357  )
        40           H   tau(  40) = (   0.3868681   0.2826263   2.2218924  )
        41           H   tau(  41) = (   0.2849105   0.1005777   2.2239187  )
        42           H   tau(  42) = (   0.2146469   0.2582669   2.1068103  )

     number of k points=    13  Marzari-Vanderbilt smearing, width (Ry)=  0.0200
                       cart. coord. in units 2pi/alat
        k(    1) = (   0.0000000   0.0000000   0.0000000), wk =   0.0800000
        k(    2) = (   0.0000000   0.2309401   0.0000000), wk =   0.1600000
        k(    3) = (   0.0000000   0.4618802   0.0000000), wk =   0.1600000
        k(    4) = (   0.2000000  -0.1154701   0.0000000), wk =   0.1600000
        k(    5) = (   0.2000000   0.1154701   0.0000000), wk =   0.1600000
        k(    6) = (   0.2000000   0.3464102   0.0000000), wk =   0.1600000
        k(    7) = (   0.2000000  -0.5773503   0.0000000), wk =   0.1600000
        k(    8) = (   0.2000000  -0.3464102   0.0000000), wk =   0.1600000
        k(    9) = (   0.4000000  -0.2309401   0.0000000), wk =   0.1600000
        k(   10) = (   0.4000000  -0.0000000   0.0000000), wk =   0.1600000
        k(   11) = (   0.4000000   0.2309401   0.0000000), wk =   0.1600000
        k(   12) = (   0.4000000  -0.6928203   0.0000000), wk =   0.1600000
        k(   13) = (   0.4000000  -0.4618802   0.0000000), wk =   0.1600000

     Dense  grid:   724113 G-vectors     FFT dimensions: (  80,  80, 256)

     Estimated max dynamical RAM per process >       8.72 GB

     Check: negative core charge=   -0.000002

     Initial potential from superposition of free atoms

     starting charge  371.99377, renormalised to  372.00000

     negative rho (up, down):  1.148E-02 0.000E+00


     %%%%%%%%%%%%%%%%%%%%%%%%%%%%%%%%%%%%%%%%%%%%%%%%%%%%%%%%%%%%%%%%%%%%%%%%
     %                                                                      %
     % You are using vdW-DF, which was implemented by the Thonhauser group. %
     % Please cite the following two papers that made this development      %
     % possible and the two reviews that describe the various versions:     %
     %                                                                      %
     %   T. Thonhauser et al., PRL 115, 136402 (2015).                      %
     %   T. Thonhauser et al., PRB 76, 125112 (2007).                       %
     %   K. Berland et al., Rep. Prog. Phys. 78, 066501 (2015).             %
     %   D.C. Langreth et al., J. Phys.: Condens. Matter 21, 084203 (2009). %
     %                                                                      %
     %                                                                      %
     % If you are calculating the stress with vdW-DF, please also cite:     %
     %                                                                      %
     %   R. Sabatini et al., J. Phys.: Condens. Matter 24, 424209 (2012).   %
     %                                                                      %
     %%%%%%%%%%%%%%%%%%%%%%%%%%%%%%%%%%%%%%%%%%%%%%%%%%%%%%%%%%%%%%%%%%%%%%%%


     Starting wfcs are  336 randomized atomic wfcs
     Checking if some PAW data can be deallocated... 

     total cpu time spent up to now is      337.5 secs

     Self-consistent Calculation

     iteration #  1     ecut=    60.00 Ry     beta= 0.70
     Davidson diagonalization with overlap
     ethr =  1.00E-02,  avg # of iterations =  2.0

     Threshold (ethr) on eigenvalues was too large:
     Diagonalizing with lowered threshold

     Davidson diagonalization with overlap
     ethr =  7.29E-04,  avg # of iterations =  2.8

     negative rho (up, down):  1.144E-02 0.000E+00

     total cpu time spent up to now is     1647.6 secs

     total energy              =  -27796.89302798 Ry
     estimated scf accuracy    <       2.97404010 Ry

     iteration #  2     ecut=    60.00 Ry     beta= 0.70
     Davidson diagonalization with overlap
     ethr =  7.99E-04,  avg # of iterations =  2.0

     negative rho (up, down):  9.628E-03 0.000E+00

     total cpu time spent up to now is     2235.6 secs

     total energy              =  -27797.03753124 Ry
     estimated scf accuracy    <       1.20149214 Ry

     iteration #  3     ecut=    60.00 Ry     beta= 0.70
     Davidson diagonalization with overlap
     ethr =  3.23E-04,  avg # of iterations =  2.6

     negative rho (up, down):  6.772E-03 0.000E+00

     total cpu time spent up to now is     2846.9 secs

     total energy              =  -27797.08638670 Ry
     estimated scf accuracy    <       0.43921446 Ry

     iteration #  4     ecut=    60.00 Ry     beta= 0.70
     Davidson diagonalization with overlap
     c_bands:  2 eigenvalues not converged
     ethr =  1.18E-04,  avg # of iterations = 13.3

     negative rho (up, down):  5.201E-03 0.000E+00

     total cpu time spent up to now is     3646.7 secs

     total energy              =  -27797.13754442 Ry
     estimated scf accuracy    <       0.23991221 Ry

     iteration #  5     ecut=    60.00 Ry     beta= 0.70
     Davidson diagonalization with overlap
     ethr =  6.45E-05,  avg # of iterations =  2.0

     negative rho (up, down):  3.502E-03 0.000E+00

     total cpu time spent up to now is     4252.8 secs

     total energy              =  -27797.14727605 Ry
     estimated scf accuracy    <       0.04684290 Ry

     iteration #  6     ecut=    60.00 Ry     beta= 0.70
     Davidson diagonalization with overlap
     c_bands:  2 eigenvalues not converged
     c_bands:  1 eigenvalues not converged
     c_bands:  1 eigenvalues not converged
     ethr =  1.26E-05,  avg # of iterations = 11.3

     negative rho (up, down):  3.018E-03 0.000E+00

     total cpu time spent up to now is     5178.3 secs

     total energy              =  -27797.15848232 Ry
     estimated scf accuracy    <       0.00969576 Ry

     iteration #  7     ecut=    60.00 Ry     beta= 0.70
     Davidson diagonalization with overlap
     c_bands:  3 eigenvalues not converged
     c_bands:  2 eigenvalues not converged
     c_bands:  2 eigenvalues not converged
     c_bands:  2 eigenvalues not converged
     c_bands:  1 eigenvalues not converged
     c_bands:  1 eigenvalues not converged
     c_bands:  1 eigenvalues not converged
     ethr =  2.61E-06,  avg # of iterations = 17.4

     negative rho (up, down):  3.026E-03 0.000E+00

     total cpu time spent up to now is     6113.6 secs

     total energy              =  -27797.16002827 Ry
     estimated scf accuracy    <       0.00674260 Ry

     iteration #  8     ecut=    60.00 Ry     beta= 0.70
     Davidson diagonalization with overlap
     ethr =  1.81E-06,  avg # of iterations = 10.8

     negative rho (up, down):  3.341E-03 0.000E+00

     total cpu time spent up to now is     6784.4 secs

     total energy              =  -27797.16042413 Ry
     estimated scf accuracy    <       0.00355005 Ry

     iteration #  9     ecut=    60.00 Ry     beta= 0.70
     Davidson diagonalization with overlap
     ethr =  9.54E-07,  avg # of iterations =  3.6

     negative rho (up, down):  4.269E-03 0.000E+00

     total cpu time spent up to now is     7397.1 secs

     total energy              =  -27797.16066918 Ry
     estimated scf accuracy    <       0.00099048 Ry

     iteration # 10     ecut=    60.00 Ry     beta= 0.70
     Davidson diagonalization with overlap
     c_bands:  1 eigenvalues not converged
     ethr =  2.66E-07,  avg # of iterations = 10.2

     negative rho (up, down):  5.006E-03 0.000E+00

     total cpu time spent up to now is     8110.5 secs

     total energy              =  -27797.16079265 Ry
     estimated scf accuracy    <       0.00063595 Ry

     iteration # 11     ecut=    60.00 Ry     beta= 0.70
     Davidson diagonalization with overlap
     ethr =  1.71E-07,  avg # of iterations =  2.0

     negative rho (up, down):  6.398E-03 0.000E+00

     total cpu time spent up to now is     8699.7 secs

     total energy              =  -27797.16084826 Ry
     estimated scf accuracy    <       0.00049171 Ry

     iteration # 12     ecut=    60.00 Ry     beta= 0.70
     Davidson diagonalization with overlap
     ethr =  1.32E-07,  avg # of iterations =  2.0

     negative rho (up, down):  7.530E-03 0.000E+00

     total cpu time spent up to now is     9267.1 secs

     total energy              =  -27797.16086990 Ry
     estimated scf accuracy    <       0.00033763 Ry

     iteration # 13     ecut=    60.00 Ry     beta= 0.70
     Davidson diagonalization with overlap
     ethr =  9.08E-08,  avg # of iterations =  1.2

     negative rho (up, down):  1.029E-02 0.000E+00

     total cpu time spent up to now is     9824.0 secs

     total energy              =  -27797.16085345 Ry
     estimated scf accuracy    <       0.00020595 Ry

     iteration # 14     ecut=    60.00 Ry     beta= 0.70
     Davidson diagonalization with overlap
     ethr =  5.54E-08,  avg # of iterations =  1.9

     negative rho (up, down):  1.035E-02 0.000E+00

     total cpu time spent up to now is    10413.4 secs

     total energy              =  -27797.16085248 Ry
     estimated scf accuracy    <       0.00013475 Ry

     iteration # 15     ecut=    60.00 Ry     beta= 0.70
     Davidson diagonalization with overlap
     ethr =  3.62E-08,  avg # of iterations =  1.3

     negative rho (up, down):  1.214E-02 0.000E+00

     total cpu time spent up to now is    10969.0 secs

     total energy              =  -27797.16083957 Ry
     estimated scf accuracy    <       0.00005964 Ry

     iteration # 16     ecut=    60.00 Ry     beta= 0.70
     Davidson diagonalization with overlap
     ethr =  1.60E-08,  avg # of iterations =  2.0

     negative rho (up, down):  1.219E-02 0.000E+00

     total cpu time spent up to now is    11584.3 secs

     total energy              =  -27797.16085057 Ry
     estimated scf accuracy    <       0.00002286 Ry

     iteration # 17     ecut=    60.00 Ry     beta= 0.70
     Davidson diagonalization with overlap
     ethr =  6.15E-09,  avg # of iterations =  4.0

     negative rho (up, down):  1.258E-02 0.000E+00

     total cpu time spent up to now is    12285.3 secs

     total energy              =  -27797.16085403 Ry
     estimated scf accuracy    <       0.00000703 Ry

     iteration # 18     ecut=    60.00 Ry     beta= 0.70
     Davidson diagonalization with overlap
     ethr =  1.89E-09,  avg # of iterations =  4.2

     negative rho (up, down):  1.267E-02 0.000E+00

     total cpu time spent up to now is    13036.9 secs

     total energy              =  -27797.16085575 Ry
     estimated scf accuracy    <       0.00000237 Ry

     iteration # 19     ecut=    60.00 Ry     beta= 0.70
     Davidson diagonalization with overlap
     ethr =  6.38E-10,  avg # of iterations =  3.2

     negative rho (up, down):  1.264E-02 0.000E+00

     total cpu time spent up to now is    13688.4 secs

     End of self-consistent calculation

          k = 0.0000 0.0000 0.0000 ( 90499 PWs)   bands (ev):

   -12.6134  -8.8062  -6.9310  -5.6943  -5.0840  -4.5782  -4.5549  -4.5413
    -4.5344  -4.5236  -4.5127  -4.4808  -4.4636  -4.1472  -4.0265  -3.9796
    -3.9614  -3.9575  -3.9478  -3.8756  -3.8257  -3.5424  -3.5077  -3.5035
    -3.4752  -3.4729  -3.4161  -3.3112  -3.2909  -3.2894  -3.2592  -3.2588
    -3.2041  -3.1032  -3.0731  -3.0711  -3.0684  -3.0652  -3.0392  -3.0207
    -3.0149  -3.0065  -2.9974  -2.9692  -2.9124  -2.4732  -2.4716  -2.4461
    -2.4423  -2.4257  -2.4204  -2.3627  -2.3588  -2.3577  -2.3147  -2.2184
    -2.2025  -2.1580  -2.1371  -2.0615  -1.7326  -1.6946  -1.6341  -1.6300
    -1.5999  -1.5707  -1.5571  -1.5067  -1.4674  -1.4486  -1.4400  -1.4343
    -1.4308  -1.4204  -1.4150  -1.4027  -1.3789  -1.3619  -1.3558  -1.3470
    -1.3389  -1.3061  -1.2918  -1.2465  -1.2256  -1.2090  -1.2062  -1.1712
    -1.0645  -1.0397  -1.0371  -1.0217  -1.0010  -0.9923  -0.9660  -0.9547
    -0.9344  -0.8829  -0.8648  -0.8405  -0.8002  -0.7866  -0.7858  -0.7457
    -0.7445  -0.6683  -0.6527  -0.6259  -0.5814  -0.5786  -0.5749  -0.5549
    -0.4900  -0.3093  -0.1708  -0.1662  -0.1467  -0.1086  -0.0832  -0.0716
    -0.0604  -0.0361  -0.0217   0.0336   0.0712   0.0857   0.0969   0.1281
     0.1752   0.1796   0.1974   0.2616   0.2954   0.3080   0.3831   0.4020
     0.4043   0.4228   0.4251   0.5942   0.6095   0.6418   0.6524   0.6649
     0.6650   0.7130   0.7160   0.7478   0.8897   0.8991   0.8993   0.9186
     0.9398   1.0043   1.0182   1.0371   1.0697   1.0714   1.0879   1.0945
     1.1011   1.1014   1.1284   1.1315   1.1423   1.1454   1.1870   1.1923
     1.2290   1.2410   1.2578   1.2685   1.3166   1.3217   1.3248   1.3342
     1.3514   1.3589   1.3921   1.4054   1.4581   1.4616   1.4638   1.4885
     1.4950   1.5049   1.5349   1.5658   1.5742   1.5880   1.6199   1.6211
     1.6246   1.7580   1.7861   1.8709   1.8792   1.8988   1.9300   1.9306
     1.9334   2.3096   2.4033   2.7337   2.7759   2.8011   2.8177   2.8627
     3.7574   4.4659   5.0594   5.0914   5.1201   5.1264   5.6415   5.8817
     6.1795   6.5819   6.6938   6.6973   6.7348   6.7395   6.7604

          k = 0.0000 0.2309 0.0000 ( 90468 PWs)   bands (ev):

   -12.6132  -8.8040  -6.7859  -5.5624  -5.0835  -5.0062  -4.6377  -4.6280
    -4.4404  -4.3937  -4.3362  -4.2965  -4.2768  -4.1739  -4.0616  -4.0121
    -3.9383  -3.9020  -3.8912  -3.8406  -3.7751  -3.5904  -3.4906  -3.4648
    -3.4515  -3.4240  -3.3851  -3.3572  -3.3398  -3.2959  -3.2829  -3.2662
    -3.2125  -3.1891  -3.1606  -3.1100  -3.0754  -3.0634  -3.0536  -2.9877
    -2.8915  -2.8590  -2.8434  -2.8172  -2.7787  -2.5929  -2.5655  -2.5527
    -2.5117  -2.4867  -2.4604  -2.4405  -2.3311  -2.2823  -2.2171  -2.2096
    -2.1647  -2.1309  -2.1239  -2.0745  -1.9071  -1.8234  -1.8085  -1.7630
    -1.7411  -1.7031  -1.6740  -1.6549  -1.6208  -1.6061  -1.5746  -1.5618
    -1.5114  -1.4885  -1.4536  -1.4335  -1.4120  -1.3681  -1.3347  -1.3164
    -1.3046  -1.2573  -1.2410  -1.2226  -1.1999  -1.1682  -1.1512  -1.1229
    -1.1057  -1.0811  -1.0553  -1.0468  -1.0203  -0.9918  -0.9594  -0.9355
    -0.9063  -0.8918  -0.8695  -0.8512  -0.8343  -0.8217  -0.7892  -0.7706
    -0.7408  -0.6853  -0.6747  -0.6450  -0.6100  -0.5905  -0.5714  -0.5633
    -0.5311  -0.5230  -0.4905  -0.4841  -0.4381  -0.3812  -0.2650  -0.1801
    -0.1527  -0.1271  -0.0746  -0.0651  -0.0473  -0.0370   0.0338   0.1136
     0.1322   0.1899   0.2070   0.2497   0.2687   0.3122   0.3313   0.3460
     0.3722   0.3992   0.4462   0.4715   0.5139   0.5384   0.5452   0.5545
     0.6281   0.7054   0.7199   0.7362   0.7677   0.7769   0.8174   0.8384
     0.8770   0.9113   0.9320   0.9442   0.9857   0.9975   1.0330   1.0490
     1.0914   1.1366   1.1515   1.1690   1.2001   1.2271   1.2669   1.2963
     1.3195   1.3328   1.3689   1.4112   1.4327   1.4576   1.4789   1.5064
     1.5106   1.5392   1.5598   1.5704   1.5785   1.5908   1.6293   1.6367
     1.7314   1.7737   1.7970   1.8081   1.8222   1.8382   1.8760   1.8830
     1.9125   1.9268   1.9711   2.0270   2.0476   2.0859   2.1455   2.2103
     2.2270   2.2553   2.5468   2.5938   2.9050   3.3246   3.4084   3.4902
     3.7201   4.4971   4.5794   4.9511   5.3135   5.5498   5.5803   5.7494
     5.8785   6.0466   6.3997   6.5119   6.5989   6.6917   6.7991

          k = 0.0000 0.4619 0.0000 ( 90460 PWs)   bands (ev):

   -12.6129  -8.8006  -6.3676  -5.7389  -5.2405  -4.9641  -4.6680  -4.6596
    -4.5408  -4.3142  -4.1645  -4.1290  -4.0639  -4.0172  -3.9423  -3.9319
    -3.8492  -3.7644  -3.7362  -3.7143  -3.7062  -3.6837  -3.5767  -3.5489
    -3.5353  -3.4977  -3.4878  -3.4555  -3.4152  -3.3657  -3.3619  -3.2856
    -3.1597  -3.1205  -3.1023  -3.0894  -3.0740  -3.0391  -2.9172  -2.8577
    -2.8492  -2.8334  -2.8136  -2.7697  -2.6678  -2.6189  -2.5384  -2.5347
    -2.4915  -2.4655  -2.4517  -2.3912  -2.3809  -2.3620  -2.3309  -2.3175
    -2.2303  -2.1666  -2.1564  -2.1125  -2.0587  -2.0043  -1.9828  -1.9576
    -1.9319  -1.8749  -1.7842  -1.7578  -1.7355  -1.7115  -1.6830  -1.6448
    -1.6201  -1.5789  -1.5644  -1.5132  -1.4723  -1.4579  -1.3876  -1.3692
    -1.3365  -1.3287  -1.3099  -1.2812  -1.2685  -1.2336  -1.2235  -1.2164
    -1.1939  -1.1870  -1.1599  -1.1499  -1.0902  -1.0647  -1.0505  -1.0255
    -1.0103  -0.9969  -0.9167  -0.8948  -0.8685  -0.8409  -0.8119  -0.7904
    -0.7625  -0.7450  -0.7143  -0.6641  -0.6397  -0.5884  -0.5642  -0.5324
    -0.4914  -0.4623  -0.3994  -0.3540  -0.3344  -0.2607  -0.2459  -0.2215
    -0.1878  -0.1765  -0.1382  -0.1221  -0.0894  -0.0642  -0.0509  -0.0381
    -0.0197   0.0082   0.0354   0.0542   0.0627   0.1168   0.1868   0.2046
     0.2313   0.2568   0.2972   0.3398   0.3867   0.4373   0.4798   0.5243
     0.5858   0.6113   0.6731   0.7054   0.7295   0.7540   0.7877   0.8022
     0.8079   0.8641   0.8828   0.9049   0.9533   0.9763   1.0242   1.0600
     1.0673   1.0759   1.1040   1.1634   1.2188   1.2670   1.3019   1.3376
     1.3584   1.3757   1.4347   1.4590   1.4852   1.5020   1.5599   1.5789
     1.6084   1.6260   1.6702   1.6737   1.7483   1.7753   1.7824   1.8159
     1.8228   1.8387   1.8575   1.8710   2.0272   2.0349   2.0468   2.0720
     2.0959   2.1896   2.2937   2.4268   2.5126   2.7077   2.8124   3.0861
     3.1249   3.2691   3.3442   3.5094   3.7178   3.8562   4.0831   4.3339
     4.3483   4.4072   4.5085   4.6139   4.6680   4.8305   4.9770   5.0769
     5.4703   5.6712   5.9327   6.1480   6.3594   6.4486   6.6881

          k = 0.2000-0.1155 0.0000 ( 90468 PWs)   bands (ev):

   -12.6133  -8.8052  -6.7858  -5.5662  -5.1135  -4.9652  -4.6504  -4.6323
    -4.4371  -4.3927  -4.3223  -4.3069  -4.2794  -4.1190  -4.1085  -4.0510
    -3.9125  -3.9115  -3.8849  -3.8125  -3.8050  -3.5910  -3.4810  -3.4696
    -3.4647  -3.4249  -3.3731  -3.3597  -3.3246  -3.2984  -3.2951  -3.2768
    -3.2346  -3.1789  -3.1651  -3.1068  -3.0704  -3.0443  -3.0440  -2.9721
    -2.8680  -2.8461  -2.8441  -2.8215  -2.7921  -2.5763  -2.5679  -2.5299
    -2.5004  -2.4923  -2.4789  -2.4414  -2.3018  -2.2998  -2.2236  -2.2109
    -2.1840  -2.1462  -2.1308  -2.0278  -1.9021  -1.8373  -1.8059  -1.7567
    -1.7532  -1.6922  -1.6697  -1.6538  -1.6183  -1.5909  -1.5841  -1.5621
    -1.5095  -1.4985  -1.4629  -1.4335  -1.4140  -1.3663  -1.3340  -1.3133
    -1.2960  -1.2640  -1.2563  -1.2285  -1.1746  -1.1600  -1.1495  -1.1350
    -1.0928  -1.0683  -1.0488  -1.0305  -1.0119  -0.9926  -0.9558  -0.9214
    -0.9088  -0.8873  -0.8792  -0.8489  -0.8485  -0.8035  -0.7966  -0.7901
    -0.7601  -0.6858  -0.6790  -0.6446  -0.6398  -0.5802  -0.5790  -0.5644
    -0.5186  -0.5032  -0.5005  -0.4922  -0.4848  -0.4343  -0.2537  -0.1648
    -0.1263  -0.1189  -0.0859  -0.0538  -0.0475  -0.0312   0.0097   0.0277
     0.0820   0.1930   0.2045   0.2502   0.2761   0.3148   0.3370   0.3375
     0.3812   0.3862   0.4273   0.4812   0.5022   0.5094   0.5459   0.5536
     0.6904   0.7029   0.7188   0.7204   0.7524   0.7552   0.8310   0.8443
     0.8625   0.9184   0.9306   0.9432   0.9790   1.0102   1.0212   1.0527
     1.0854   1.1296   1.1488   1.1582   1.2227   1.2407   1.2848   1.2857
     1.3153   1.3616   1.3821   1.4152   1.4408   1.4469   1.4844   1.5060
     1.5347   1.5352   1.5600   1.5703   1.5865   1.5877   1.6355   1.6429
     1.7503   1.7719   1.7799   1.8241   1.8505   1.8533   1.8720   1.8961
     1.9077   1.9157   1.9875   2.0132   2.0449   2.1092   2.1975   2.2143
     2.2253   2.2656   2.4001   2.6041   3.1141   3.1327   3.3849   3.5474
     3.8724   4.1817   4.7114   5.1231   5.1981   5.5476   5.5888   5.7780
     5.9181   6.0270   6.2508   6.5120   6.5587   6.6889   6.8734

          k = 0.2000 0.1155 0.0000 ( 90468 PWs)   bands (ev):

   -12.6132  -8.8040  -6.7859  -5.5624  -5.0836  -5.0059  -4.6378  -4.6279
    -4.4404  -4.3937  -4.3360  -4.2966  -4.2768  -4.1740  -4.0617  -4.0118
    -3.9382  -3.9019  -3.8912  -3.8409  -3.7753  -3.5905  -3.4905  -3.4648
    -3.4514  -3.4238  -3.3852  -3.3571  -3.3401  -3.2959  -3.2828  -3.2662
    -3.2124  -3.1891  -3.1606  -3.1099  -3.0755  -3.0633  -3.0539  -2.9876
    -2.8914  -2.8590  -2.8433  -2.8171  -2.7792  -2.5932  -2.5658  -2.5528
    -2.5115  -2.4868  -2.4602  -2.4401  -2.3310  -2.2822  -2.2172  -2.2097
    -2.1650  -2.1308  -2.1240  -2.0743  -1.9071  -1.8235  -1.8086  -1.7632
    -1.7411  -1.7032  -1.6740  -1.6548  -1.6205  -1.6060  -1.5747  -1.5622
    -1.5113  -1.4886  -1.4536  -1.4334  -1.4119  -1.3678  -1.3345  -1.3161
    -1.3046  -1.2572  -1.2410  -1.2225  -1.2000  -1.1682  -1.1514  -1.1229
    -1.1056  -1.0808  -1.0552  -1.0468  -1.0203  -0.9919  -0.9593  -0.9354
    -0.9063  -0.8918  -0.8693  -0.8513  -0.8342  -0.8215  -0.7892  -0.7708
    -0.7406  -0.6852  -0.6750  -0.6448  -0.6097  -0.5905  -0.5713  -0.5633
    -0.5311  -0.5230  -0.4904  -0.4841  -0.4383  -0.3822  -0.2650  -0.1802
    -0.1527  -0.1271  -0.0745  -0.0652  -0.0471  -0.0370   0.0338   0.1137
     0.1327   0.1899   0.2069   0.2497   0.2687   0.3122   0.3316   0.3458
     0.3722   0.3993   0.4460   0.4716   0.5139   0.5382   0.5452   0.5544
     0.6282   0.7054   0.7200   0.7365   0.7677   0.7766   0.8174   0.8381
     0.8769   0.9114   0.9320   0.9443   0.9854   0.9977   1.0329   1.0491
     1.0914   1.1366   1.1514   1.1689   1.2002   1.2269   1.2670   1.2962
     1.3194   1.3328   1.3690   1.4113   1.4327   1.4575   1.4790   1.5064
     1.5105   1.5392   1.5598   1.5704   1.5785   1.5908   1.6294   1.6368
     1.7314   1.7738   1.7971   1.8081   1.8221   1.8381   1.8759   1.8829
     1.9124   1.9267   1.9714   2.0270   2.0477   2.0861   2.1458   2.2101
     2.2268   2.2555   2.5466   2.5924   2.9062   3.3238   3.4084   3.4909
     3.7206   4.4956   4.5794   4.9522   5.3136   5.5499   5.5801   5.7507
     5.8780   6.0466   6.3991   6.5125   6.5984   6.6918   6.7978

          k = 0.2000 0.3464 0.0000 ( 90480 PWs)   bands (ev):

   -12.6130  -8.8009  -6.5035  -5.3450  -5.2946  -5.2684  -4.9682  -4.2938
    -4.2808  -4.2053  -4.1948  -4.1744  -4.1522  -4.1311  -4.0874  -4.0154
    -4.0064  -3.9471  -3.7990  -3.6357  -3.6243  -3.6188  -3.5891  -3.5398
    -3.5254  -3.3922  -3.3842  -3.3785  -3.3431  -3.3267  -3.2672  -3.2516
    -3.2164  -3.1993  -3.1495  -3.1384  -3.1130  -3.0837  -3.0565  -2.9902
    -2.9653  -2.8455  -2.7009  -2.6537  -2.6434  -2.6067  -2.5807  -2.5564
    -2.5341  -2.4982  -2.4804  -2.4173  -2.3343  -2.3286  -2.2414  -2.2339
    -2.1736  -2.1548  -2.1272  -2.1022  -2.0750  -2.0406  -1.9166  -1.8675
    -1.8651  -1.8148  -1.7785  -1.7565  -1.7224  -1.7060  -1.6802  -1.6606
    -1.6286  -1.5240  -1.5047  -1.4949  -1.4826  -1.4284  -1.4139  -1.3825
    -1.3418  -1.3261  -1.2915  -1.2697  -1.2263  -1.2089  -1.1933  -1.1723
    -1.1497  -1.1315  -1.0966  -1.0948  -1.0456  -1.0310  -1.0038  -0.9573
    -0.9432  -0.9153  -0.8959  -0.8721  -0.8430  -0.8405  -0.8271  -0.7869
    -0.7672  -0.7644  -0.7491  -0.7312  -0.6953  -0.6497  -0.6461  -0.5743
    -0.5679  -0.5397  -0.4996  -0.4645  -0.4322  -0.4150  -0.3170  -0.2558
    -0.2146  -0.1841  -0.1135  -0.1008  -0.0474  -0.0335  -0.0275   0.0073
     0.0155   0.0524   0.0643   0.1076   0.1430   0.1800   0.2535   0.3123
     0.3250   0.3559   0.3819   0.4024   0.4268   0.4563   0.4913   0.5469
     0.5936   0.6123   0.6525   0.6623   0.7116   0.7613   0.7780   0.8090
     0.8399   0.8557   0.8695   0.9029   0.9091   0.9191   0.9480   0.9759
     1.0318   1.0676   1.1098   1.1512   1.2321   1.2599   1.3415   1.4066
     1.4445   1.4590   1.4879   1.5366   1.5677   1.5882   1.5979   1.6175
     1.6317   1.6594   1.6647   1.6748   1.7133   1.7238   1.7493   1.7991
     1.8328   1.8494   1.8697   1.8885   1.9246   2.0139   2.0822   2.1088
     2.1356   2.1775   2.1954   2.2154   2.3029   2.3376   2.4537   2.7972
     2.8713   3.1383   3.2697   3.4072   3.4293   3.4805   3.8943   4.1009
     4.2134   4.3249   4.3831   4.5993   5.0222   5.2603   5.5345   5.5576
     5.7815   5.9886   6.1946   6.2311   6.2565   6.3456   6.4038

          k = 0.2000-0.5774 0.0000 ( 90514 PWs)   bands (ev):

   -12.6129  -8.8001  -5.9791  -5.9685  -5.3820  -5.1174  -4.7718  -4.6546
    -4.2473  -4.2182  -4.0766  -4.0592  -4.0244  -3.9881  -3.9086  -3.8865
    -3.8108  -3.7980  -3.7081  -3.6896  -3.6821  -3.6502  -3.6380  -3.6157
    -3.5358  -3.4872  -3.4788  -3.4683  -3.4292  -3.4074  -3.3515  -3.2554
    -3.2138  -3.1544  -3.1240  -3.0940  -3.0752  -3.0499  -3.0221  -2.9898
    -2.9129  -2.8430  -2.8235  -2.6689  -2.6472  -2.6363  -2.5735  -2.5233
    -2.4797  -2.4410  -2.3858  -2.3194  -2.2849  -2.2651  -2.2341  -2.2033
    -2.1766  -2.1620  -2.1331  -2.0534  -2.0450  -2.0200  -2.0093  -1.9845
    -1.9719  -1.9492  -1.9157  -1.8797  -1.8177  -1.7822  -1.7445  -1.7059
    -1.6571  -1.6118  -1.5778  -1.5560  -1.5376  -1.5111  -1.4875  -1.4686
    -1.4283  -1.3907  -1.3672  -1.3476  -1.3206  -1.2897  -1.2511  -1.2130
    -1.1704  -1.1515  -1.1398  -1.1117  -1.0586  -1.0171  -0.9685  -0.9546
    -0.9382  -0.9071  -0.8916  -0.8862  -0.8483  -0.8368  -0.8244  -0.8097
    -0.7845  -0.7614  -0.7358  -0.7171  -0.7132  -0.7027  -0.6816  -0.6708
    -0.6507  -0.5881  -0.5239  -0.4065  -0.3759  -0.3463  -0.2979  -0.2803
    -0.2248  -0.2053  -0.1649  -0.1502  -0.1272  -0.1086  -0.0832  -0.0449
    -0.0173   0.0179   0.0459   0.0849   0.1073   0.1527   0.1701   0.2034
     0.2711   0.3355   0.3580   0.4200   0.4517   0.4802   0.4984   0.5260
     0.5518   0.5866   0.6059   0.6242   0.6415   0.6777   0.7132   0.7466
     0.7744   0.8041   0.8318   0.8359   0.8776   0.8893   0.9439   1.0080
     1.0708   1.1295   1.1513   1.2592   1.2852   1.2965   1.3266   1.3640
     1.4237   1.4532   1.4986   1.5603   1.5913   1.6012   1.6248   1.6469
     1.6565   1.6896   1.7042   1.7797   1.7938   1.8042   1.8266   1.8467
     1.8551   1.8793   1.9352   1.9942   2.0373   2.0657   2.0816   2.0969
     2.1377   2.1748   2.2579   2.3712   2.8522   2.9742   3.2275   3.2445
     3.4916   3.5129   3.5812   3.6081   3.8115   3.9850   4.2166   4.2465
     4.3486   4.6871   4.7627   4.8250   4.8716   4.9748   5.1019   5.1663
     5.2850   5.4835   5.5956   5.6868   6.0453   6.2672   6.3208

          k = 0.2000-0.3464 0.0000 ( 90480 PWs)   bands (ev):

   -12.6131  -8.8028  -6.5034  -5.3652  -5.2859  -5.2700  -4.9589  -4.2988
    -4.2589  -4.2097  -4.1929  -4.1757  -4.1428  -4.1340  -4.1148  -4.0243
    -3.9997  -3.9678  -3.7771  -3.6543  -3.6226  -3.6135  -3.6019  -3.5362
    -3.5055  -3.4202  -3.3906  -3.3732  -3.3484  -3.3087  -3.2703  -3.2409
    -3.2276  -3.2160  -3.1678  -3.1275  -3.1156  -3.0791  -3.0519  -2.9849
    -2.9642  -2.7367  -2.6716  -2.6392  -2.6161  -2.5976  -2.5788  -2.5585
    -2.5221  -2.5022  -2.4869  -2.3900  -2.3478  -2.3286  -2.2645  -2.2233
    -2.2060  -2.1582  -2.1399  -2.1032  -2.0672  -2.0290  -1.9061  -1.8802
    -1.8673  -1.8115  -1.7845  -1.7517  -1.7374  -1.7265  -1.6862  -1.6449
    -1.6140  -1.5242  -1.5153  -1.4956  -1.4636  -1.4490  -1.4118  -1.3947
    -1.3416  -1.3259  -1.3060  -1.2632  -1.2155  -1.2039  -1.1905  -1.1635
    -1.1463  -1.1196  -1.1055  -1.0821  -1.0746  -1.0406  -1.0187  -0.9822
    -0.9364  -0.9108  -0.8870  -0.8726  -0.8525  -0.8246  -0.8033  -0.7947
    -0.7710  -0.7545  -0.7406  -0.7287  -0.7103  -0.6693  -0.6482  -0.6028
    -0.5820  -0.5628  -0.5277  -0.4387  -0.4337  -0.3936  -0.3036  -0.2650
    -0.2194  -0.2113  -0.1248  -0.0967  -0.0764  -0.0607  -0.0366  -0.0120
     0.0110   0.0550   0.0648   0.0846   0.1302   0.1995   0.2668   0.2857
     0.3263   0.3503   0.3599   0.3845   0.4436   0.4678   0.5369   0.5473
     0.5712   0.6234   0.6530   0.6726   0.6965   0.7343   0.7883   0.8130
     0.8360   0.8685   0.8835   0.8941   0.9050   0.9284   0.9413   0.9554
     1.0114   1.0830   1.1225   1.1838   1.2257   1.2546   1.3614   1.4011
     1.4431   1.4576   1.4783   1.5378   1.5640   1.5769   1.6040   1.6250
     1.6471   1.6585   1.6678   1.6882   1.7066   1.7211   1.7530   1.7953
     1.8398   1.8477   1.8669   1.8894   1.9383   2.0077   2.0651   2.1051
     2.1328   2.1601   2.1843   2.2064   2.2935   2.3412   2.6142   2.8237
     2.8872   3.0371   3.2217   3.4114   3.4308   3.7350   3.8299   4.0920
     4.2539   4.3441   4.3957   4.5033   4.9699   5.2641   5.5377   5.6818
     5.7493   5.8627   6.2122   6.2466   6.2928   6.3099   6.3653

          k = 0.4000-0.2309 0.0000 ( 90460 PWs)   bands (ev):

   -12.6131  -8.8037  -6.3681  -5.7409  -5.2637  -4.9416  -4.6866  -4.6652
    -4.5043  -4.3019  -4.1642  -4.1401  -4.1141  -4.0180  -3.9440  -3.9245
    -3.8323  -3.7881  -3.7562  -3.7088  -3.6934  -3.6848  -3.5775  -3.5538
    -3.5462  -3.4940  -3.4921  -3.4801  -3.3986  -3.3623  -3.3572  -3.2873
    -3.1254  -3.1139  -3.1073  -3.0896  -3.0670  -3.0445  -2.8644  -2.8521
    -2.8318  -2.8100  -2.8083  -2.7694  -2.6106  -2.5493  -2.5293  -2.5126
    -2.5107  -2.4700  -2.4562  -2.4187  -2.3701  -2.3609  -2.3324  -2.3167
    -2.2468  -2.1679  -2.1367  -2.1331  -2.0928  -2.0003  -1.9748  -1.9377
    -1.9269  -1.8938  -1.7791  -1.7596  -1.7281  -1.7014  -1.6763  -1.6567
    -1.6054  -1.5851  -1.5814  -1.4902  -1.4823  -1.4455  -1.3923  -1.3728
    -1.3635  -1.3438  -1.3085  -1.2864  -1.2554  -1.2352  -1.2300  -1.2102
    -1.2096  -1.1982  -1.1571  -1.1156  -1.0976  -1.0726  -1.0590  -1.0291
    -1.0114  -0.9957  -0.9384  -0.9328  -0.8568  -0.8500  -0.7989  -0.7837
    -0.7593  -0.7521  -0.7212  -0.6450  -0.6274  -0.5774  -0.5659  -0.5417
    -0.5260  -0.5041  -0.4688  -0.3592  -0.3088  -0.2831  -0.2526  -0.2315
    -0.1749  -0.1553  -0.1322  -0.1216  -0.1004  -0.0870  -0.0583  -0.0406
    -0.0296   0.0108   0.0330   0.0355   0.0865   0.1188   0.1204   0.1815
     0.2053   0.2321   0.3243   0.3417   0.4013   0.4181   0.4912   0.5131
     0.5398   0.6485   0.6544   0.7005   0.7333   0.7573   0.7740   0.7865
     0.8239   0.8571   0.8734   0.8968   0.9536   0.9699   1.0265   1.0332
     1.0626   1.0909   1.1153   1.1375   1.2315   1.2365   1.3219   1.3322
     1.3642   1.4181   1.4298   1.4616   1.4721   1.5135   1.5535   1.5719
     1.6296   1.6393   1.6662   1.6834   1.7447   1.7844   1.7984   1.8114
     1.8266   1.8349   1.8676   1.8723   2.0379   2.0489   2.0535   2.0669
     2.0736   2.2073   2.2937   2.4715   2.5669   2.7688   2.8279   3.1006
     3.1016   3.3523   3.4419   3.5607   3.5882   3.8562   4.0330   4.3296
     4.3351   4.3944   4.4814   4.6278   4.7151   4.9012   4.9631   5.1774
     5.3507   5.6227   5.8264   6.1704   6.3041   6.5071   6.7331

          k = 0.4000-0.0000 0.0000 ( 90480 PWs)   bands (ev):

   -12.6131  -8.8028  -6.5034  -5.3653  -5.2859  -5.2700  -4.9588  -4.2987
    -4.2589  -4.2097  -4.1929  -4.1757  -4.1428  -4.1340  -4.1148  -4.0243
    -3.9997  -3.9676  -3.7770  -3.6542  -3.6226  -3.6136  -3.6020  -3.5360
    -3.5057  -3.4201  -3.3906  -3.3732  -3.3482  -3.3086  -3.2705  -3.2408
    -3.2277  -3.2161  -3.1677  -3.1275  -3.1156  -3.0791  -3.0522  -2.9849
    -2.9641  -2.7366  -2.6717  -2.6392  -2.6166  -2.5978  -2.5792  -2.5587
    -2.5224  -2.5021  -2.4869  -2.3895  -2.3476  -2.3284  -2.2646  -2.2233
    -2.2060  -2.1582  -2.1400  -2.1031  -2.0672  -2.0290  -1.9059  -1.8804
    -1.8673  -1.8116  -1.7848  -1.7517  -1.7374  -1.7267  -1.6864  -1.6449
    -1.6141  -1.5243  -1.5152  -1.4954  -1.4635  -1.4488  -1.4117  -1.3944
    -1.3415  -1.3256  -1.3057  -1.2632  -1.2156  -1.2037  -1.1905  -1.1636
    -1.1464  -1.1196  -1.1054  -1.0820  -1.0743  -1.0407  -1.0187  -0.9822
    -0.9363  -0.9109  -0.8872  -0.8725  -0.8524  -0.8247  -0.8032  -0.7947
    -0.7710  -0.7543  -0.7406  -0.7288  -0.7103  -0.6693  -0.6484  -0.6027
    -0.5818  -0.5628  -0.5277  -0.4389  -0.4335  -0.3935  -0.3043  -0.2650
    -0.2194  -0.2114  -0.1245  -0.0967  -0.0765  -0.0607  -0.0366  -0.0119
     0.0109   0.0550   0.0649   0.0845   0.1301   0.1994   0.2670   0.2855
     0.3260   0.3502   0.3600   0.3847   0.4436   0.4679   0.5370   0.5471
     0.5714   0.6235   0.6529   0.6727   0.6967   0.7341   0.7884   0.8129
     0.8359   0.8685   0.8835   0.8941   0.9050   0.9284   0.9412   0.9553
     1.0114   1.0832   1.1227   1.1836   1.2255   1.2546   1.3614   1.4011
     1.4431   1.4577   1.4783   1.5379   1.5641   1.5768   1.6040   1.6250
     1.6472   1.6585   1.6678   1.6883   1.7065   1.7211   1.7531   1.7955
     1.8398   1.8477   1.8669   1.8894   1.9383   2.0077   2.0650   2.1049
     2.1329   2.1598   2.1842   2.2065   2.2936   2.3412   2.6146   2.8237
     2.8873   3.0357   3.2218   3.4113   3.4309   3.7360   3.8301   4.0919
     4.2541   4.3441   4.3958   4.5026   4.9697   5.2645   5.5377   5.6817
     5.7501   5.8627   6.2126   6.2468   6.2929   6.3099   6.3655

          k = 0.4000 0.2309 0.0000 ( 90460 PWs)   bands (ev):

   -12.6129  -8.8006  -6.3675  -5.7389  -5.2405  -4.9640  -4.6681  -4.6597
    -4.5407  -4.3141  -4.1646  -4.1292  -4.0634  -4.0171  -3.9423  -3.9319
    -3.8490  -3.7647  -3.7361  -3.7142  -3.7062  -3.6838  -3.5767  -3.5489
    -3.5353  -3.4976  -3.4879  -3.4554  -3.4151  -3.3657  -3.3618  -3.2850
    -3.1598  -3.1207  -3.1023  -3.0895  -3.0741  -3.0393  -2.9174  -2.8578
    -2.8492  -2.8333  -2.8138  -2.7702  -2.6690  -2.6186  -2.5384  -2.5347
    -2.4914  -2.4655  -2.4515  -2.3911  -2.3811  -2.3620  -2.3309  -2.3173
    -2.2303  -2.1666  -2.1565  -2.1124  -2.0587  -2.0043  -1.9831  -1.9577
    -1.9321  -1.8752  -1.7841  -1.7579  -1.7354  -1.7114  -1.6830  -1.6451
    -1.6200  -1.5783  -1.5636  -1.5128  -1.4720  -1.4578  -1.3874  -1.3692
    -1.3366  -1.3287  -1.3099  -1.2813  -1.2685  -1.2335  -1.2236  -1.2164
    -1.1939  -1.1869  -1.1600  -1.1499  -1.0905  -1.0649  -1.0505  -1.0256
    -1.0104  -0.9968  -0.9165  -0.8947  -0.8686  -0.8410  -0.8117  -0.7904
    -0.7623  -0.7449  -0.7141  -0.6641  -0.6397  -0.5884  -0.5643  -0.5325
    -0.4914  -0.4623  -0.3996  -0.3542  -0.3346  -0.2607  -0.2459  -0.2215
    -0.1879  -0.1766  -0.1385  -0.1222  -0.0893  -0.0637  -0.0510  -0.0380
    -0.0197   0.0081   0.0354   0.0542   0.0626   0.1167   0.1868   0.2046
     0.2316   0.2568   0.2971   0.3396   0.3869   0.4374   0.4797   0.5242
     0.5858   0.6112   0.6731   0.7054   0.7297   0.7540   0.7877   0.8021
     0.8079   0.8640   0.8826   0.9049   0.9533   0.9763   1.0243   1.0601
     1.0675   1.0760   1.1039   1.1636   1.2184   1.2669   1.3022   1.3376
     1.3585   1.3757   1.4345   1.4590   1.4850   1.5021   1.5599   1.5791
     1.6086   1.6261   1.6702   1.6738   1.7484   1.7752   1.7823   1.8159
     1.8228   1.8386   1.8574   1.8709   2.0271   2.0349   2.0467   2.0719
     2.0959   2.1897   2.2937   2.4267   2.5120   2.7075   2.8134   3.0862
     3.1249   3.2692   3.3444   3.5096   3.7173   3.8557   4.0826   4.3339
     4.3481   4.4072   4.5086   4.6143   4.6679   4.8311   4.9770   5.0779
     5.4697   5.6709   5.9325   6.1488   6.3585   6.4487   6.6895

          k = 0.4000-0.6928 0.0000 ( 90514 PWs)   bands (ev):

   -12.6129  -8.8001  -5.9792  -5.9684  -5.3820  -5.1175  -4.7717  -4.6546
    -4.2473  -4.2181  -4.0765  -4.0593  -4.0246  -3.9877  -3.9087  -3.8867
    -3.8108  -3.7980  -3.7080  -3.6896  -3.6821  -3.6500  -3.6381  -3.6156
    -3.5358  -3.4874  -3.4788  -3.4684  -3.4294  -3.4075  -3.3514  -3.2549
    -3.2138  -3.1545  -3.1242  -3.0937  -3.0752  -3.0499  -3.0223  -2.9900
    -2.9133  -2.8431  -2.8235  -2.6692  -2.6475  -2.6369  -2.5726  -2.5234
    -2.4798  -2.4411  -2.3857  -2.3192  -2.2848  -2.2650  -2.2340  -2.2033
    -2.1768  -2.1622  -2.1331  -2.0535  -2.0452  -2.0199  -2.0094  -1.9844
    -1.9720  -1.9492  -1.9157  -1.8799  -1.8177  -1.7821  -1.7444  -1.7058
    -1.6571  -1.6121  -1.5778  -1.5558  -1.5371  -1.5108  -1.4873  -1.4682
    -1.4282  -1.3906  -1.3670  -1.3476  -1.3206  -1.2900  -1.2515  -1.2132
    -1.1704  -1.1517  -1.1398  -1.1115  -1.0585  -1.0170  -0.9682  -0.9546
    -0.9383  -0.9072  -0.8916  -0.8862  -0.8482  -0.8367  -0.8243  -0.8097
    -0.7845  -0.7612  -0.7362  -0.7171  -0.7132  -0.7027  -0.6816  -0.6707
    -0.6505  -0.5879  -0.5238  -0.4062  -0.3763  -0.3464  -0.2979  -0.2806
    -0.2248  -0.2055  -0.1649  -0.1503  -0.1271  -0.1087  -0.0832  -0.0448
    -0.0173   0.0178   0.0459   0.0849   0.1074   0.1526   0.1701   0.2034
     0.2712   0.3358   0.3582   0.4197   0.4517   0.4802   0.4982   0.5260
     0.5519   0.5866   0.6059   0.6242   0.6415   0.6778   0.7132   0.7466
     0.7745   0.8041   0.8318   0.8359   0.8777   0.8893   0.9440   1.0080
     1.0709   1.1295   1.1513   1.2590   1.2851   1.2965   1.3265   1.3640
     1.4236   1.4534   1.4986   1.5603   1.5913   1.6012   1.6248   1.6469
     1.6566   1.6897   1.7043   1.7798   1.7938   1.8042   1.8267   1.8468
     1.8552   1.8791   1.9352   1.9943   2.0372   2.0656   2.0814   2.0968
     2.1376   2.1747   2.2579   2.3711   2.8525   2.9744   3.2275   3.2445
     3.4912   3.5127   3.5813   3.6084   3.8107   3.9856   4.2168   4.2466
     4.3484   4.6870   4.7629   4.8251   4.8721   4.9742   5.1017   5.1663
     5.2847   5.4838   5.5959   5.6870   6.0454   6.2675   6.3216

          k = 0.4000-0.4619 0.0000 ( 90514 PWs)   bands (ev):

   -12.6130  -8.8020  -6.0001  -5.9482  -5.3714  -5.1583  -4.7589  -4.6092
    -4.2949  -4.2067  -4.0870  -4.0582  -4.0200  -4.0078  -3.9014  -3.8858
    -3.8158  -3.7936  -3.7328  -3.6997  -3.6695  -3.6509  -3.6387  -3.6113
    -3.5206  -3.4887  -3.4621  -3.4452  -3.4332  -3.4274  -3.3492  -3.3003
    -3.2229  -3.1411  -3.0968  -3.0797  -3.0744  -3.0499  -3.0357  -2.9450
    -2.8863  -2.8606  -2.8164  -2.6536  -2.6344  -2.5901  -2.5741  -2.5281
    -2.4497  -2.4389  -2.3868  -2.3271  -2.2956  -2.2702  -2.2399  -2.2176
    -2.1708  -2.1384  -2.1204  -2.0655  -2.0363  -2.0249  -1.9946  -1.9858
    -1.9727  -1.9682  -1.9253  -1.8521  -1.7974  -1.7871  -1.7557  -1.7125
    -1.6569  -1.6285  -1.5885  -1.5786  -1.5251  -1.5019  -1.4935  -1.4776
    -1.3968  -1.3855  -1.3804  -1.3608  -1.3223  -1.2979  -1.2716  -1.2035
    -1.1749  -1.1595  -1.1508  -1.1249  -1.0575  -1.0304  -0.9793  -0.9614
    -0.9384  -0.9065  -0.8913  -0.8860  -0.8578  -0.8226  -0.8202  -0.8094
    -0.7925  -0.7619  -0.7520  -0.7203  -0.7189  -0.6968  -0.6896  -0.6645
    -0.6342  -0.6242  -0.5264  -0.4246  -0.3753  -0.3226  -0.3161  -0.2488
    -0.2257  -0.1985  -0.1724  -0.1377  -0.1128  -0.1009  -0.0767  -0.0346
    -0.0066   0.0120   0.0188   0.0640   0.1140   0.1592   0.1632   0.1922
     0.2440   0.3125   0.3643   0.3877   0.4361   0.4940   0.5051   0.5195
     0.5376   0.5789   0.6007   0.6014   0.6290   0.6592   0.6875   0.7412
     0.7762   0.8079   0.8211   0.8531   0.8688   0.8818   0.9993   1.0180
     1.0598   1.1067   1.1866   1.2173   1.2966   1.3012   1.3826   1.3977
     1.4203   1.4277   1.5068   1.5424   1.5853   1.6091   1.6188   1.6472
     1.6559   1.7079   1.7168   1.7828   1.7945   1.8168   1.8321   1.8507
     1.8538   1.8587   1.9397   2.0227   2.0519   2.0559   2.0662   2.0807
     2.1351   2.1613   2.2431   2.3324   2.9394   3.1829   3.2368   3.2428
     3.3685   3.4770   3.5919   3.6481   3.6990   4.1064   4.2143   4.3407
     4.3857   4.6945   4.7230   4.7952   4.8424   5.0322   5.0801   5.1445
     5.1855   5.4033   5.6631   5.6799   6.1163   6.2286   6.3316

     the Fermi energy is     1.8522 ev

!    total energy              =  -27797.16085564 Ry

     total all-electron energy =  -1326799.454453 Ry
     estimated scf accuracy    <       0.00000077 Ry
     smearing contrib. (-TS)   =       0.00284773 Ry
     internal energy E=F+TS    =  -27797.16370337 Ry

     The total energy is F=E-TS. E is the sum of the following terms:
     one-electron contribution =  -27849.43344715 Ry
     hartree contribution      =   14226.94766896 Ry
     xc contribution           =    -902.65330717 Ry
     ewald contribution        =   12215.03600714 Ry
     one-center paw contrib.   =  -25487.06062515 Ry

     convergence has been achieved in  19 iterations

     negative rho (up, down):  1.264E-02 0.000E+00

     Forces acting on atoms (cartesian axes, Ry/au):

     atom    1 type  1   force =     0.00061626    0.00177667   -0.00556164
     atom    2 type  1   force =    -0.00055777    0.00001487   -0.00324832
     atom    3 type  1   force =     0.00043187   -0.00026316   -0.00378923
     atom    4 type  1   force =    -0.00034481    0.00018873   -0.00445247
     atom    5 type  1   force =    -0.00028772    0.00045935   -0.00322493
     atom    6 type  1   force =     0.00076565   -0.00036804   -0.00381185
     atom    7 type  1   force =    -0.00123147   -0.00140594   -0.00557790
     atom    8 type  1   force =    -0.00083031    0.00048911   -0.00241134
     atom    9 type  1   force =     0.00071348   -0.00047813   -0.00381737
     atom   10 type  1   force =     0.00076523   -0.00337263    0.00501705
     atom   11 type  1   force =    -0.00047692    0.00029034    0.00796903
     atom   12 type  1   force =     0.00027324   -0.00022382   -0.00235896
     atom   13 type  1   force =     0.00330874    0.00099551    0.00502169
     atom   14 type  1   force =    -0.00196714    0.00155742    0.00904006
     atom   15 type  1   force =    -0.00066734    0.00035766    0.00083505
     atom   16 type  1   force =     0.00223485   -0.00128944   -0.00217380
     atom   17 type  1   force =    -0.00237017    0.00090161    0.00903650
     atom   18 type  1   force =     0.00034244   -0.00013821   -0.00235555
     atom   19 type  1   force =     0.00009089    0.00001326   -0.00006395
     atom   20 type  1   force =     0.00016836   -0.00008634    0.00033108
     atom   21 type  1   force =    -0.00008283    0.00004365    0.00053701
     atom   22 type  1   force =     0.00002509   -0.00008959   -0.00005984
     atom   23 type  1   force =    -0.00041213    0.00007559    0.00007460
     atom   24 type  1   force =     0.00011302   -0.00007143   -0.00037269
     atom   25 type  1   force =    -0.00018500    0.00010332   -0.00047982
     atom   26 type  1   force =    -0.00027574    0.00031889    0.00006680
     atom   27 type  1   force =    -0.00007383    0.00002982    0.00054171
     atom   28 type  1   force =    -0.00000248    0.00023801    0.00032352
     atom   29 type  1   force =     0.00005598    0.00008346    0.00031294
     atom   30 type  1   force =    -0.00023836    0.00012464    0.00008540
     atom   31 type  1   force =     0.00075554   -0.00043320    0.00030980
     atom   32 type  1   force =    -0.00005148   -0.00006651    0.00028424
     atom   33 type  1   force =     0.00008261   -0.00002617    0.00009778
     atom   34 type  1   force =    -0.00021402   -0.00014584    0.00030210
     atom   35 type  1   force =    -0.00025274    0.00014316   -0.00064508
     atom   36 type  1   force =     0.00006589   -0.00008313    0.00009439
     atom   37 type  2   force =     0.00004534    0.00004553    0.00026267
     atom   38 type  2   force =     0.00195906   -0.00103351    0.00601974
     atom   39 type  3   force =    -0.00050478    0.00038556    0.00019554
     atom   40 type  3   force =     0.00003262   -0.00062662    0.00017845
     atom   41 type  3   force =     0.00038907    0.00025977    0.00009385
     atom   42 type  3   force =    -0.00220818    0.00130577   -0.00262628

     Total force =     0.007703     Total SCF correction =     0.002363
     SCF correction compared to forces is large: reduce conv_thr to get better values

     negative rho (up, down):  1.264E-02 0.000E+00

     negative rho (up, down):  1.264E-02 0.000E+00

     negative rho (up, down):  1.264E-02 0.000E+00

     negative rho (up, down):  1.264E-02 0.000E+00

     negative rho (up, down):  1.264E-02 0.000E+00

     negative rho (up, down):  1.264E-02 0.000E+00

     negative rho (up, down):  1.264E-02 0.000E+00

     negative rho (up, down):  1.264E-02 0.000E+00

     negative rho (up, down):  1.264E-02 0.000E+00

     negative rho (up, down):  1.264E-02 0.000E+00

     negative rho (up, down):  1.264E-02 0.000E+00

     negative rho (up, down):  1.264E-02 0.000E+00

     negative rho (up, down):  1.264E-02 0.000E+00

     negative rho (up, down):  1.264E-02 0.000E+00

     negative rho (up, down):  1.264E-02 0.000E+00

     negative rho (up, down):  1.264E-02 0.000E+00

     negative rho (up, down):  1.264E-02 0.000E+00

     negative rho (up, down):  1.264E-02 0.000E+00

     negative rho (up, down):  1.264E-02 0.000E+00

     negative rho (up, down):  1.264E-02 0.000E+00

     negative rho (up, down):  1.264E-02 0.000E+00

     negative rho (up, down):  1.264E-02 0.000E+00

     negative rho (up, down):  1.264E-02 0.000E+00

     negative rho (up, down):  1.264E-02 0.000E+00

     negative rho (up, down):  1.264E-02 0.000E+00

     negative rho (up, down):  1.264E-02 0.000E+00

     negative rho (up, down):  1.264E-02 0.000E+00

     negative rho (up, down):  1.264E-02 0.000E+00

     negative rho (up, down):  1.264E-02 0.000E+00

     negative rho (up, down):  1.264E-02 0.000E+00

     negative rho (up, down):  1.264E-02 0.000E+00

     negative rho (up, down):  1.264E-02 0.000E+00

     negative rho (up, down):  1.264E-02 0.000E+00

     negative rho (up, down):  1.264E-02 0.000E+00
 BEEFens 2000 ensemble energies
             -0.603945282059337E+02
             -0.359815087085849E+01
             -0.157672727931819E+02
              0.427525492785594E+02
             -0.220294096036857E+02
             -0.204519124932608E+02
             -0.350240093589409E+02
             -0.860701144894281E+02
             -0.463300667271274E+02
             -0.471004100184307E+02
             -0.367714141986530E+02
              0.224995327172526E+01
              0.404869673389973E+01
              0.763616798903647E+01
              0.263637351775199E+01
              0.472902808393212E+02
             -0.207867027536664E+02
             -0.229560622230473E+02
              0.192103571851379E+02
             -0.111893026003540E+03
              0.533796911775824E+02
             -0.289027335729407E+02
             -0.332147764933219E+01
             -0.113711509307107E+02
             -0.883412923514084E+01
             -0.459764558332409E+01
              0.878876819891145E+02
             -0.186346007390902E+02
             -0.895092784444569E+01
             -0.515944457993425E+02
              0.812329600004202E+02
             -0.186860118605229E+02
             -0.373150301873605E+02
              0.248242245581473E+02
             -0.283554962842993E+01
              0.162981659107718E+02
             -0.486266345002093E+01
              0.107991877207251E+02
              0.286950984156069E+02
             -0.102814505727404E+03
              0.556075664295692E+02
              0.141842755170044E+02
             -0.168405123053896E+01
             -0.359965884412955E+02
              0.122751387107853E+02
             -0.146113394567982E+02
              0.396284117974083E+02
              0.363220601446909E+02
             -0.307180274590436E+02
             -0.273680249579010E+02
             -0.327207355592614E+02
             -0.350587743893342E+02
              0.135615770018069E+02
             -0.488457564954463E+02
              0.114901061190292E+02
              0.620308468687015E+02
              0.632132140617590E+02
              0.354464184026798E+02
              0.153224437832917E+02
              0.269194263187968E+02
              0.887622421854645E+02
              0.211733301039283E+02
             -0.546116162437909E+02
             -0.156579624748749E+02
             -0.234706459182354E+02
              0.626982413394548E+02
             -0.769999327751152E+02
             -0.669267890568243E+02
             -0.258228167611062E+02
             -0.640793898805771E+01
             -0.468812831556840E+02
              0.269531241396230E+02
              0.796070791217448E+01
              0.860573040427414E+01
             -0.395694875066430E+02
             -0.345276962607447E+02
             -0.539374403827019E+02
              0.388899101004423E+02
             -0.294585519238562E+02
              0.264080111383422E+02
             -0.713481183451556E+01
             -0.316723520989610E+02
             -0.573785174993436E+02
             -0.175947472239744E+02
             -0.897794199767941E+01
             -0.123880755576232E+02
              0.410583773920454E+02
              0.679541327713791E+02
             -0.383536456861773E+02
             -0.790958675446674E+02
             -0.218748933149993E+02
              0.111013740120944E+03
             -0.590170612386827E+02
              0.354821034027854E+02
             -0.951474482680294E+01
             -0.660399330917815E+02
              0.253080752771955E+02
              0.396513795501647E+02
             -0.198273068724401E+02
              0.398988964638033E+02
             -0.294826749776016E+02
             -0.475577418901106E+02
              0.861652252308220E+02
              0.451862895822196E+02
              0.335406753697533E+02
              0.145766559529574E+02
              0.204703491943098E+02
              0.852802494252870E+02
             -0.255567713980426E+02
              0.787004095804751E+01
             -0.141774385847383E+03
              0.180257913774441E+02
             -0.713265197232637E+02
              0.150444843161470E+02
              0.203666742971612E+02
             -0.331233327649589E+02
             -0.554980531457860E+02
              0.651805580140376E+01
             -0.302920294676447E+02
              0.306040682039003E+02
             -0.527850835417676E+02
              0.173631252199846E+01
             -0.355221107548890E+02
             -0.420961548978227E+01
             -0.105559031990725E+01
              0.180384017989098E+02
              0.144048438565301E+01
             -0.648030664865087E+01
              0.587567623233656E+02
              0.904225589961745E+02
              0.482061064811222E+02
              0.827217877584181E+02
             -0.114448198341134E+02
              0.142611865814008E+02
              0.538706946814219E+02
             -0.110908777008043E+02
             -0.732478800839780E+02
             -0.382372651627609E+02
             -0.519727957512396E+02
             -0.275402189818228E+02
              0.326188091728625E+02
             -0.116239433651069E+03
             -0.186796072529194E+02
              0.411989612640169E+02
             -0.384438645560456E+02
             -0.364256063089825E+02
              0.541709768209770E+02
              0.398519749545658E+02
             -0.352852268390681E+02
              0.136518197727728E+02
             -0.272249349573728E+02
              0.341485860265482E+02
              0.440567705693098E+01
              0.210447787670234E+02
             -0.881133295008487E+02
             -0.477921582926834E+02
             -0.991893187158826E+01
              0.320716285538266E+01
             -0.364799395470272E+02
              0.105544564418647E+03
             -0.230296841328014E+02
             -0.397530691004923E+02
              0.386947380092181E+02
             -0.492114113862854E+02
             -0.361720566956729E+02
              0.323345786516996E+02
              0.123996502539909E+02
              0.164080749700735E+02
              0.115969658120228E+02
             -0.132374604994533E+02
              0.224635424460910E+02
              0.587371788204849E+02
             -0.310273797684928E+02
              0.161397423388414E+02
              0.930537227869551E+02
              0.339455032364378E+02
             -0.726051164141779E+01
             -0.187814960344491E+02
              0.152653801086218E+03
             -0.163151341934840E+02
              0.361651797392636E+02
              0.193181305446161E+02
              0.360163739629495E+02
              0.887774105482385E+02
              0.540826315785245E+02
             -0.235809527495192E+01
              0.226692686390904E+02
              0.482729135721501E+02
              0.361691101059787E+02
             -0.522842654028422E+02
              0.931865072927432E+02
             -0.821938156492596E+02
             -0.197502982711771E+02
              0.580190381081272E+02
              0.670657402951026E+01
              0.786765717161165E+01
              0.339433201649060E+02
              0.298515416120167E+02
              0.352118767215703E+02
             -0.634750161375169E+02
              0.285325398771988E+01
             -0.296563179843348E+02
             -0.865885168820212E+01
             -0.145292070710764E+01
             -0.719276817386643E+01
             -0.412467134743770E+01
              0.855650926801814E+02
             -0.100763234851712E+02
             -0.275040860832690E+02
             -0.495580071898501E+01
              0.139312511244363E+02
             -0.561150082702556E+02
             -0.405025637245006E+02
             -0.380444280334905E+02
             -0.627593805455128E+02
             -0.168834295101061E+02
             -0.445677405289337E+02
              0.162447904738274E+02
             -0.240315943774844E+01
             -0.103845284142341E+02
             -0.930419086037841E+01
              0.805387206142376E+01
             -0.241971045382462E+02
              0.686551412925427E+02
             -0.803434664849127E+02
             -0.140469864134398E+02
             -0.173298603363158E+02
              0.181190906465561E+02
              0.213738936843424E+02
             -0.461491869185966E+02
             -0.201327265131829E+02
              0.438906110307040E+02
             -0.275217556740907E+02
              0.186508230089977E+02
              0.381227615302120E+02
             -0.322742692062968E+01
              0.113621242160804E+03
             -0.229330300357085E+02
             -0.339451194372904E+02
              0.576726665419727E+01
             -0.227135352861923E+02
              0.525054671389619E+02
             -0.335312856747865E+02
              0.106020214283744E+02
              0.638050191251559E+02
             -0.125628644762620E+02
              0.119721998873592E+03
              0.125302984123772E+03
             -0.646842777617769E+02
              0.588149644842809E+02
              0.165570038914683E+02
             -0.515302006889875E+02
              0.215256145222967E+02
              0.352305978270931E+02
              0.360703634732317E+02
              0.131827232357674E+01
              0.159182120482004E+02
              0.692590071867223E+02
             -0.245949038713777E+02
              0.180911095671009E+02
              0.735718906503525E+02
             -0.370769108760433E+02
             -0.128796260963621E+02
              0.506155733068124E+02
              0.296065343077536E+02
              0.776729020448948E+02
              0.221336882125569E+02
              0.620698118590485E+01
              0.279153795654905E+02
              0.381472346027955E+02
             -0.469757290812834E+02
              0.329265973387464E+01
              0.128937423829307E+02
              0.113285769248340E+02
              0.219555731893135E+02
             -0.572297112287255E+02
              0.364604286362969E+02
             -0.441907212633936E+02
             -0.346187021624443E+02
              0.177402372519638E+02
             -0.180895067380651E+02
              0.552617108951362E+02
             -0.255286074150049E+02
              0.265528057448984E+02
              0.366869032402028E+02
              0.825758219840765E+02
              0.572354604685588E+02
              0.459520230996888E+02
             -0.105149363745008E+02
             -0.387446745028359E+01
             -0.330830307667323E+02
              0.747165642687057E+02
              0.793445881348408E+02
              0.360184925970944E+02
             -0.190812908803156E+02
              0.509633937936866E+02
             -0.162623174795810E+02
              0.213875065056098E+02
              0.611458219921832E+02
              0.214962370903393E+01
             -0.103865242074973E+02
             -0.281944816622962E+02
             -0.509264756747424E+02
              0.941239720854160E+02
              0.437727069932031E+02
             -0.556388053297262E+02
             -0.954438691258153E+01
              0.248574255285371E+02
             -0.991258743520393E+01
              0.589189035299167E+02
              0.151432018525764E+02
              0.795560513761338E+02
              0.278382184394168E+02
             -0.262701791989014E+02
              0.247986427098681E+02
             -0.498567280367342E+01
             -0.322298511160927E+02
              0.132414874862716E+02
              0.204884347343366E+02
              0.929133854338280E+02
              0.793945616905645E+02
              0.548581014858555E+02
              0.727675741515543E+02
              0.799201414382279E+01
             -0.272713130591784E+02
              0.162582228954731E+02
             -0.366362009040315E+02
             -0.473955818443932E+02
             -0.560941828741633E+02
             -0.265173382298052E+02
             -0.109221051553340E+03
             -0.289964879147886E+02
             -0.833532877160393E+02
              0.209290635202309E+02
             -0.475014651872036E+02
              0.394721210665477E+02
             -0.937172121778208E+02
             -0.328866293826974E+02
              0.546495840839818E+02
              0.206689452505461E+02
             -0.826818676598938E+02
              0.628496239513919E+02
             -0.255590133914686E+02
              0.509945986855276E+02
             -0.241079036445889E+02
             -0.747820690590947E+02
              0.110999230070512E+02
             -0.608281968139827E+02
             -0.167743748022220E+02
             -0.149196167234814E+01
              0.416227143672927E+02
              0.126458721271554E+03
             -0.459748245385877E+02
             -0.360885565835234E+02
             -0.958729248948259E+00
             -0.129832232325107E+02
             -0.819048534263034E+02
             -0.594201306190984E+02
              0.514981539678658E+02
             -0.287962713223223E+02
              0.168470952928934E+02
             -0.487099366189080E+02
             -0.131211892784494E+02
             -0.435362880921707E+02
              0.563428243278344E+02
              0.150241976339588E+02
             -0.230659390044788E+02
             -0.126249994608839E+02
              0.662633623140665E+01
             -0.614717585828856E+01
              0.439618067017186E+02
             -0.250788822147302E+02
              0.274695973501025E+01
              0.338062149639914E+02
              0.170531182068170E+02
             -0.158945722977385E+02
              0.155585474626347E+03
              0.535616526283017E+02
              0.112727938343636E+01
              0.161214312003897E+02
             -0.612185545965529E+02
              0.313625971248938E+02
             -0.718364122718926E+02
             -0.250663791936189E+02
             -0.520160968636288E+02
             -0.219362632437908E+02
              0.566822588116679E+02
             -0.534545795150381E+02
              0.159876391062172E+02
             -0.408732172265900E+01
              0.385755343481614E+01
             -0.432363493688230E+02
             -0.476533017471983E+02
             -0.401009469080395E+01
             -0.423195011959956E+02
             -0.216005257030967E+02
             -0.436687799331245E+02
             -0.118977678245409E+02
             -0.357515530515903E+02
             -0.514311928019432E+02
              0.211653457157261E+02
             -0.208446808986895E+02
              0.186925430674488E+02
              0.970940440886498E+01
             -0.734804578685979E+02
             -0.545790847752139E+02
             -0.396289100360168E+02
              0.352559240675787E+02
              0.272156550501845E+01
             -0.623718063694528E+02
              0.583420612784266E+02
             -0.399314409822151E+02
              0.542442467731251E+02
             -0.288321723610477E+02
             -0.443758226027990E+02
              0.297133003854576E+02
             -0.654442157304529E+02
             -0.378485328944271E+02
              0.670069726642346E+02
              0.203260058851806E+02
             -0.358496104611021E+02
              0.487159880205323E+02
             -0.173338196953422E+02
             -0.321340758678170E+02
             -0.300385515829438E+02
             -0.498429514489186E+02
              0.248524685484642E+02
             -0.929407773984673E+02
             -0.836759433426757E+02
             -0.731636429965056E+01
             -0.305624451757398E+02
             -0.573089292720805E+02
              0.718457891479849E+02
              0.130938878359470E+03
             -0.359801876695261E+02
             -0.254786170697668E+01
             -0.634378266057624E+02
              0.647785429317114E+02
              0.169755904322112E+02
             -0.180899951627679E+02
             -0.408444620882678E+02
              0.147920323065277E+02
             -0.583395107910644E+02
             -0.197326336758837E+02
             -0.900693620302879E+02
              0.335457436093207E+02
              0.168355352173075E+02
              0.187307456590236E+01
             -0.703383656446283E+01
             -0.327967337568286E+02
             -0.754869918024042E+01
              0.124950252190182E+03
             -0.198343622232710E+02
             -0.435560174788104E+02
             -0.681019414415352E+02
              0.108771118907941E+02
             -0.340634993804723E+02
              0.587565446749474E+01
              0.260049153687438E+02
              0.102036493460183E+02
              0.276454652207996E+02
              0.119237501676299E+02
              0.627107657717490E+02
              0.315578505013451E+02
             -0.325119888089566E+02
              0.353580263312830E+02
              0.377962906227489E+02
              0.120285386889317E+02
              0.485411793340396E+02
             -0.223613708340682E+02
              0.762516502805456E+02
              0.171331941197202E+02
             -0.270682964992988E+02
             -0.721365921278907E+01
             -0.185771419837736E+02
              0.261108510879589E+02
             -0.233185838329277E+02
             -0.936043984387993E-01
             -0.843241321011737E+01
              0.806217126029956E+02
              0.497567870536066E+02
             -0.683959596492693E+02
             -0.473616303373186E+01
             -0.553091334510483E+02
             -0.158795373090713E+02
             -0.267384951810434E+02
              0.371004217807456E+01
              0.618988052676105E+00
             -0.256438391823092E+02
              0.808056669820058E+01
             -0.598762558271744E+01
             -0.128093019356071E+02
              0.855156393117717E+02
              0.181062423689365E+02
             -0.803683918229567E+02
             -0.456746411597861E+02
              0.941003535169942E+02
              0.276807161224456E+02
             -0.106477941951363E+02
              0.104085172561545E+03
             -0.193836122797987E+02
             -0.122711169295868E+02
             -0.535650926965479E+01
              0.106756492999022E+02
              0.271224726346732E+02
              0.779237765945902E+01
              0.304091087638533E+02
             -0.187406818429725E+02
             -0.302282840408179E+02
             -0.416323747562883E+02
             -0.474691708916972E+02
              0.462276610317014E+02
              0.126158141588162E+02
              0.385981945185457E+02
              0.132843816947405E+02
              0.851815841799421E+02
              0.155535138020654E+02
             -0.842821164929807E+02
             -0.333060520595664E+02
              0.133405822406327E+02
             -0.301530617325398E+02
              0.623819891449208E+02
             -0.878371665753230E+01
              0.147887538811877E+02
              0.494831976627631E+02
             -0.703857491756628E+02
              0.149087886580880E+03
              0.207911953493674E+02
              0.270288656057410E+02
              0.346050121786296E+02
              0.103398980438372E+02
             -0.155248395064257E+01
              0.356871123481737E+02
             -0.355758447913307E+02
              0.769713726850534E+02
              0.681772386443418E+02
             -0.404369108817569E+02
              0.148750504981799E+02
              0.667005286829449E+02
             -0.222871062403286E+02
              0.153626765933855E+02
              0.433469228535260E+02
              0.420324347870416E+02
             -0.781520063047572E+02
             -0.152384528907522E+02
             -0.354707343277585E+02
             -0.145520784934348E+01
             -0.763958218357772E+01
             -0.544278439197467E+01
             -0.179971864275153E+02
             -0.292638156839121E+02
              0.629186920578459E+01
              0.111399285459405E+02
              0.533344996489128E+02
             -0.388412965472027E+02
              0.372710706499254E+02
              0.436476736387198E+02
             -0.185832444125003E+02
              0.868772952064336E+02
             -0.694990497096882E+02
             -0.102740989364183E+03
             -0.657598757811926E+01
             -0.266175734129240E+01
              0.385470732833755E+01
              0.786340070784448E+02
             -0.106891583361248E+02
              0.414953432073050E+02
              0.441203222267400E+02
              0.383662430150756E+02
             -0.993584711630626E+01
              0.624780496904292E+02
             -0.133002448343161E+02
             -0.305779639774515E+02
             -0.477616601769053E+02
              0.583907141848709E+01
              0.367733567522876E+02
             -0.600939925921207E+01
              0.391342637675901E+02
             -0.176228395046638E+01
              0.652683387856769E+02
              0.186437289681265E+02
              0.995978628342704E+01
             -0.121769730609703E+02
              0.330823448047185E+02
              0.360855393296057E+02
              0.231920953668021E+02
             -0.493958979527804E+00
             -0.548218341409950E+02
              0.259513152957408E+02
              0.174306227395855E+02
              0.400972328158041E+02
              0.270864526908944E+02
              0.370947150659020E+02
             -0.599675247421484E+01
              0.249801392168587E+02
             -0.297518620684214E+02
             -0.196374727339082E+01
             -0.566903849812161E+02
             -0.306365442870947E+02
              0.376848303287672E+02
             -0.931831215942593E+02
              0.293300260285686E+02
              0.183412492904492E+02
              0.836718870399309E+02
             -0.299567384264290E+02
              0.328186406556146E+02
             -0.137296206045655E+02
             -0.461940068996327E+02
             -0.758534780495404E+02
             -0.522150520458098E+01
             -0.856164854852041E+02
              0.199250851869166E+02
             -0.246535993393349E+02
              0.304489982588340E+02
              0.236224454498090E+02
             -0.240030485992531E+02
             -0.264269915742512E+02
              0.389111162658980E+02
             -0.585984165652403E+02
             -0.116270340273014E+02
             -0.195391483346981E+02
              0.211607767324709E+02
             -0.890400494601943E+01
              0.361172601489190E+01
             -0.199890746367223E+02
              0.556525981739386E+02
             -0.437478824397454E+02
              0.784057058178610E+01
              0.582945857978619E+02
             -0.321857569972072E+02
              0.359525656135378E+01
             -0.881454428402640E+01
             -0.666488135342333E+02
             -0.480623680398942E+02
             -0.859039302021196E+01
              0.239602604537063E+02
              0.301037972916101E+02
              0.858044395584085E+01
             -0.410855783591251E+01
              0.151048488391959E+02
             -0.438008390304543E+02
              0.334270641348098E+01
             -0.528857162656029E+02
             -0.323790113144661E+02
              0.472667578317342E+02
             -0.293854269425157E+02
              0.619650996337847E+02
             -0.213901939233398E+02
              0.352044054285350E+02
              0.240720279912397E+02
             -0.641555370111746E+02
             -0.279155613328604E+02
              0.929282766757512E+01
             -0.370280775783801E+02
             -0.337832211436327E+02
             -0.826421487622358E+02
             -0.536883384455459E+02
             -0.508339415204119E+02
             -0.413591941390947E+02
             -0.991299487618704E+00
              0.987186971551264E+01
              0.102383361394104E+01
              0.152293851512216E+02
             -0.546903281691320E+02
              0.141385760759564E+02
              0.255881808349876E+02
             -0.663786472459355E+02
             -0.699436152745683E+02
             -0.429836110321023E+02
             -0.170839922494767E+02
              0.177770367212786E+02
              0.456668048030690E+01
             -0.423796870769331E+02
              0.364838460775052E+02
             -0.215251320830615E+02
              0.515229720686902E+02
             -0.883537320715792E+02
              0.595285893198863E+02
             -0.210931842756256E+01
             -0.366683351178443E+02
             -0.215065331394916E+02
              0.471240935510488E+01
              0.372521910481725E+02
             -0.753299644949613E+02
             -0.120163050927161E+02
             -0.216030865345449E+02
              0.509229129955699E+02
              0.861470444455050E+02
             -0.961234849608160E+02
              0.940053821231984E+02
              0.465765031021327E+02
             -0.722199137024748E+02
             -0.365089305236136E+02
              0.748648275478123E+02
              0.629585024679943E+02
             -0.180387289032543E+02
             -0.459912668652061E+01
              0.725207687977820E+01
              0.645942845814629E+02
             -0.505976300642978E+02
              0.157740377652662E+02
             -0.469914010493726E+01
              0.346381891736224E+02
             -0.744011572432420E+02
             -0.646037713532049E+01
             -0.349755070767720E+02
              0.458587195666719E+02
              0.466976303645487E+02
             -0.858333338108232E+02
             -0.485071214826424E+02
             -0.255260787854144E+02
             -0.337770728722233E+02
             -0.108721613320440E+02
             -0.241692593362363E+02
              0.425486100247313E+02
              0.399054678763485E+02
             -0.562085995878601E+01
             -0.414551079701208E+02
             -0.847087270624510E+02
              0.441083032650291E+02
             -0.521191474660416E+02
             -0.311601380422886E+02
              0.543782957098230E+01
             -0.321220837985095E+02
             -0.396223113560114E+02
             -0.238995595399532E+02
             -0.383568320003483E+02
             -0.269671574614745E+02
             -0.480333362889225E+02
              0.561445124787347E+02
              0.635379372751813E+02
             -0.168318310190637E+01
             -0.260224169129870E+02
             -0.626732655102160E+01
              0.439414208798638E+02
             -0.864123279004651E+02
             -0.145250469835768E+02
              0.521456330128921E+02
              0.661097921632144E+02
             -0.243838139745758E+02
              0.908121767260207E+01
              0.521452978301651E+02
              0.197535935479722E+02
             -0.825592045118617E+01
             -0.451606634712890E+02
              0.279839371029528E+02
[...]
              0.282480861032640E+02
              0.141199164287301E+03
              0.241089809817125E+02
              0.121747152857234E+02
             -0.462139210403878E+02
             -0.635017921683233E+02
             -0.188448488530888E+02
              0.328481520586123E+02
             -0.424739862368176E+01
              0.189187143028130E+02
              0.334791349917448E+02
             -0.583432681261424E+02
              0.221242698275040E+02
              0.580132966327989E+02
              0.550140347953818E+02
             -0.415441987509388E+01
             -0.137903222133809E+01
             -0.990341989438480E+01
             -0.480278109512083E+02
             -0.671745922977793E+02
              0.781928512834447E+02
             -0.518207044422167E+01
             -0.585331409923787E+02
              0.169559809466557E+01
             -0.204012978996155E+02
              0.934601494571915E+02
             -0.215690427409262E+02
             -0.351990459582336E+02
              0.333810440204952E+02
             -0.145110946527592E+02
              0.387507446551549E+02
             -0.234048098258972E+01
              0.100647029541293E+03
              0.487436530840279E+02
             -0.512394351856032E+01
             -0.320286496416873E+02
              0.231004486543476E+02
             -0.526081489510210E+02
             -0.127654909407105E+02
              0.582898293890985E+02
             -0.286607025928761E+02
             -0.436338315600042E+02
             -0.222296137045030E+02
              0.516314332618509E+02
              0.124094022277266E+02
             -0.844994774575613E+02
              0.302340008319548E+02
              0.151591043933292E+02
              0.573167883629122E+01
             -0.511384205333197E+02
             -0.381359254367152E+01
              0.321545070823521E+02
              0.510466764155636E+02
              0.629940328066877E+02
              0.227570194051635E+02
              0.717877359703948E+00
             -0.495724488123316E+02
             -0.508144433239960E+02
             -0.744638597718485E+02
             -0.611987544397027E+01
              0.307548788740835E+02
             -0.377454145441257E+01
              0.544580579802694E+02
             -0.316593591236194E+02
              0.165679980442591E+02
             -0.101917851006422E+02
             -0.288383602717005E+02
              0.583034782053286E+02
              0.789755986797024E+01
              0.601613125516860E+02
              0.505508151102094E+01
              0.264031387727586E+02
             -0.191984428266409E+02
              0.583314706152811E+02
             -0.110963557890726E+02
             -0.108064056868802E+00
             -0.786628628273302E+02
             -0.127949848715827E+02
              0.715817979678527E+02
              0.670027972020592E+02
              0.250915669535248E+02
             -0.129616561574185E+02
              0.344228251859525E+01
             -0.172656616484392E+02
             -0.200311156996381E+01
              0.903873505866448E+02
              0.123366877532339E+01
             -0.189227463134355E+02
             -0.110255516007868E+03
             -0.550319669643137E+02
             -0.373350935530017E+02
             -0.655541132408392E+02
             -0.552965886916006E+02
             -0.679243892125293E+02
             -0.445150949516179E+02
             -0.409528081224493E+02
             -0.449751547072315E+02
              0.481506367095136E+02
             -0.293163540493056E+02
             -0.990882102818041E+02
              0.416948702647972E+02
             -0.258673778982444E+02
             -0.787233288475158E+02
              0.939222029872774E+02
             -0.218671369605098E+02
              0.227264432670512E+02
              0.453195731324950E+02
             -0.136833794541673E+01
              0.253388080525178E+02
              0.468930583501992E+01
              0.410545667423140E+00
             -0.150214125280573E+02
             -0.712540770089528E+02
              0.132622240401507E+02
             -0.128821614183773E+03
              0.621229120549852E+02
             -0.438848236345742E+02
             -0.162220902993953E+02
             -0.157311609438740E+02
              0.706600591382090E+01
             -0.226924924792383E+02
              0.295593012940168E+02
             -0.517921535126928E+02
              0.365437310105246E+02
              0.369140991099634E+02
              0.167737949913102E+02
              0.100274356300004E+02
              0.196845796804610E+02
              0.618199873168680E+01
              0.308822129464138E+02
             -0.795594741847415E+01
             -0.589310444863787E+02
              0.752896410432902E+01
             -0.151198066225926E+02
             -0.191914647239321E+01
              0.503984344458423E+02
             -0.823159207602789E+02
             -0.148294335424725E+01
              0.567340388295406E+00
              0.991759981601018E+01
              0.317002557621835E+02
             -0.123060182261246E+02
              0.831902533919634E+02
              0.485601089822534E+02
             -0.182342864498942E+02
             -0.949593294781431E+01
              0.103496331976106E+01
              0.765872553107525E+02
             -0.583862445659108E+02
             -0.105293010860651E+03
              0.307967153187732E+02
             -0.162887117804381E+02
             -0.138922756690952E+02
              0.129741715635010E+02
              0.764897952678944E+02
              0.462139275791111E+02
             -0.152671156385354E+02
             -0.500696787128245E+02
             -0.544957679020209E+01
              0.305113343895683E+02
             -0.110815938602051E+02
             -0.752365255020600E+02
             -0.269133200314215E+01
             -0.885665721429572E+02
             -0.473302746758444E+02
              0.764849367823241E+02
             -0.481277768010380E+02
             -0.633319960916320E+02
             -0.511907979833261E+02
             -0.348060179654577E+02
              0.339512202700815E+02
              0.817700266780970E+02
             -0.355336420589316E+01
              0.275379414200328E+02
             -0.182933698602175E+02
             -0.690929684571577E+02
              0.462796971924234E+02
             -0.442898290094844E+02
              0.320394758367599E+02
              0.374664911733241E+02
             -0.648556661397595E+01
              0.388450433151338E+02
              0.436375893339967E+02
              0.100154441314884E+03
             -0.155362872873879E+02
             -0.453923120014163E+02
             -0.609781272087345E+02
             -0.123159492671958E+02
             -0.231285112122413E+02
              0.102571228484447E+03
             -0.447073388870421E+02
              0.104676403316128E+02
              0.969122634470750E+01
             -0.263657589733759E+02
             -0.795108843844647E+02
             -0.696266006945410E+01
              0.975314288249740E+02
              0.929875184040205E+01
              0.804092992054495E+01
             -0.524593711142657E+02
             -0.602951490179555E+02
             -0.557009378461909E+01
              0.498405869096950E+02
             -0.220715337568122E+02
              0.107502017440778E+03
             -0.433712877064725E+02
              0.145426423631015E+02
             -0.223269639871137E+02
             -0.715698344312818E+02
              0.165539913496303E+01
             -0.499171765225396E+02
             -0.757224933524620E+02
              0.612193386293154E+01
              0.235959046886404E+01
              0.511900579191015E+02
              0.186053494101456E+02
             -0.322134758942391E+02
              0.228861107127268E+02
             -0.807200900455053E+02
             -0.519452841205324E+02
              0.897474064007091E+02
              0.141862259976117E+02
             -0.187630915915047E+02
             -0.351037923598208E+02
             -0.270052071762620E+01
             -0.582809087228577E+01
              0.826279296204438E+02
              0.415929684432017E+02
             -0.165452278599651E+02
             -0.121617311558626E+02
             -0.425679731977250E+02
             -0.199749181996337E+02
             -0.666978220696066E+02
              0.457432441115062E+02
              0.544224406363205E+01
              0.144476628251574E+02
              0.155409777523798E+02
             -0.521234875428433E+00
             -0.167468756451976E+02
             -0.308184394434818E+01
             -0.999351595432423E+02
             -0.229353567438795E+02
             -0.762764683622908E+01
             -0.945266739075970E+01
              0.543877473467049E+02
              0.621042045550971E+02
              0.164077607550037E+02
             -0.966260797211983E+02
              0.644566704701472E+02
             -0.213843327323033E+02
             -0.375299822772054E+02
             -0.860143261883129E+02
             -0.385427562075969E+02
              0.561920395775474E+02
              0.242904849498956E+02
              0.506494226090570E+01
              0.290682533868336E+02
             -0.562354467396142E+02
             -0.420097030692754E+02
              0.512568700078064E+02
              0.385237844178515E+02
              0.516599598780035E+02
             -0.120875431721549E+01
              0.681853894491894E+01
              0.567008515916967E+02
              0.958056572533202E+02
             -0.299235146168120E+02
              0.321144366843398E+02
             -0.117741883328176E+02
             -0.410052435653739E+02
             -0.312850359800260E+02
             -0.298858435440981E+02
             -0.130767199164690E+02
             -0.521065833229053E+02
             -0.216143551059698E+02
             -0.140560668558275E+03
              0.367520143948715E+02
              0.205492598965736E+02
             -0.393154511573587E+01
             -0.378246103095764E+02
             -0.203121206080062E+02
             -0.524402658990484E+02
              0.150838481214387E+02
              0.816325328659724E+02
             -0.251293839578237E+02
             -0.162212489004959E+02
              0.237278119370793E+02
             -0.487228960756904E+02
              0.876341746623028E+02
              0.153549866954409E+02
              0.225764590505894E+02
              0.487741603491084E+02
              0.320478271551656E+01
              0.539363697453950E+02
              0.142231383610168E+02
             -0.106266879849443E+02
              0.725622805848536E+01
              0.808400048528313E+00
              0.723883756956860E+02
              0.100799258063910E+02
              0.119733214237344E+02
             -0.129718165032446E+02
              0.131803945697711E+02
             -0.906755601799135E+02
             -0.324044692398667E+02
             -0.455185135650154E+02
              0.482685614013599E+02
             -0.289548973946362E+02
             -0.655648728742132E+02
              0.535707887061121E+02
             -0.121216446093679E+02
              0.438119683796465E+02
             -0.894356697733255E+02
              0.231015209036614E+02
              0.853736882528517E+01
              0.582139578818430E+01
             -0.827529182941237E+01
             -0.900901411723135E+01
              0.477028644433829E+02
              0.197135493257832E+01
             -0.472809849524766E+02
             -0.175257713714474E+02
              0.275477335659079E+02
             -0.117391304051966E+03
             -0.925562309083488E+02
              0.395334359297357E+01
              0.116987724834784E+02
             -0.411158041912079E+02
             -0.387774008549485E+01
              0.111617393797652E+03
              0.304826511086674E+02
             -0.569100264749086E+02
              0.921037176799933E+01
             -0.958847920295233E+01
              0.105156792298816E+02
             -0.336204842812238E+02
              0.194525532227752E+02
              0.283501860934749E+02
             -0.295209143156615E+01
              0.107659017079269E+03
             -0.139983104878354E+02
             -0.314358895538581E+02
              0.141549783930783E+02
              0.464518831419042E+02
             -0.354208412931383E+02
             -0.317019579513404E+01
              0.960361330444078E+02
             -0.462124935987117E+01
              0.619234700491099E+02
              0.134651900301063E+02
             -0.897396530413644E+01
             -0.304572478691466E+02
              0.564138428358926E+02
             -0.511372906043407E+02
             -0.218601075271533E+01
             -0.169105041310683E+02
             -0.403243012330830E+02
              0.184452428932194E+02
              0.238352419108616E+02
              0.116006742047894E+02
              0.730617092255216E+00
             -0.382719441900225E+02
              0.214464230861404E+02
             -0.673567762018644E+01
             -0.245359687539129E+02
             -0.209550595950729E+02
              0.202230251769437E+02
             -0.596803041897533E+01
             -0.347428546834616E+02
             -0.106134605911505E+03
              0.102754965531015E+02
              0.247828785715994E+02
             -0.385155890020713E+02
             -0.209959850412733E+02
              0.803301167844139E+02
              0.647154560572420E+01
              0.308922686705275E+02
              0.387106191177696E+01
              0.320084508464016E+02
              0.644932059084255E+01
             -0.371106680564197E+02
             -0.230280378237879E+01
              0.873556667907155E+01
              0.272456949267100E+02
              0.778096422432512E+02
              0.505093105951652E+02
              0.167207738877664E+00
              0.168806545333992E+02
              0.610465164202802E+02
              0.234632892890277E+02
             -0.749460950267813E+02
             -0.272338305379124E+02
              0.150379398987901E+02
              0.557592937617164E+01
              0.253853041786597E+02
             -0.545261793461908E+02
              0.895163428726221E+01
              0.384201137171031E+02
              0.495642642146894E+02
             -0.432903299966250E+02
             -0.690444013696020E+01
             -0.206770675337958E+01
             -0.132748063481453E+02
             -0.364166115013740E+02
             -0.214621080478401E+02
             -0.200116348460824E+01
              0.787986442221597E+01
              0.419413090290515E+02
             -0.306731217504559E+02
              0.822447709181700E+02
              0.325823951061174E+02
              0.218673313249452E+02
              0.331486366125766E+02
              0.321787244092633E+02
              0.344817373914143E+02
              0.534582920433369E+02
             -0.431651632165788E+02
              0.616715456223709E+02
             -0.111749862228304E+03
              0.305839692743932E+02
             -0.106032724556601E+03
              0.850886975266336E+02
              0.687031857831049E+02
             -0.109470770372855E+02
             -0.490906776613375E+02
             -0.427652400445166E+02
             -0.620839013917735E+02
             -0.625798055378639E+02
              0.549337714597575E+02
              0.403526874760231E+02
              0.235648616697860E+02
              0.372400923935656E+02
              0.401299213119945E+02
             -0.380252997816442E+02
             -0.197159437612361E+02
              0.584158281792326E+02
             -0.115628086709615E+02
              0.549624940733072E+02
              0.695990690619338E+02
             -0.554809499552562E+01
             -0.702882196916980E+02
             -0.888778632253889E+00
             -0.248257763196915E+01
             -0.877556414924811E+01
             -0.182921768738106E+01
             -0.649932828122281E+02
             -0.210076293639037E+02
              0.534116662056068E+01
              0.894607780309622E+01
              0.466696922580738E+02
             -0.395901583977295E+02
              0.654661993454507E+02
             -0.423544427483008E+02
              0.209301372860040E+02
              0.348373053045487E+02
 
 BEEF-vdW xc energy contributions
           1 :   -779.482930804800     
           2 :    716.257571083116     
           3 :   -606.705469893563     
           4 :    477.619091459718     
           5 :   -356.326975037035     
           6 :    262.597043448547     
           7 :   -204.094964042615     
           8 :    176.326139975339     
           9 :   -166.645298480074     
          10 :    160.419435704326     
          11 :   -146.818104353436     
          12 :    122.051197789510     
          13 :   -89.2147459368341     
          14 :    55.3714863780717     
          15 :   -27.5514904989072     
          16 :    9.48478006767664     
          17 :  -0.336059963800949     
          18 :   -4.31405120801116     
          19 :    9.96577392036454     
          20 :   -20.4909547767786     
          21 :    36.4650231022489     
          22 :   -55.1960120701375     
          23 :    72.2622361293157     
          24 :   -83.7202937680347     
          25 :    87.8997862186401     
          26 :   -85.9970364268447     
          27 :    81.2932405521577     
          28 :   -77.4682456750611     
          29 :    76.8572029792194     
          30 :   -79.4726046812575     
          31 :   -85.4613138266603     
          32 :   -65.5343535684018     

     Writing output data file ./pwscf.save/
 
     init_run     :    333.00s CPU    337.37s WALL (       1 calls)
     electrons    :  13226.52s CPU  13350.95s WALL (       1 calls)
     forces       :    100.77s CPU    101.98s WALL (       1 calls)

     Called by init_run:
     wfcinit      :    284.96s CPU    288.37s WALL (       1 calls)
     potinit      :     45.13s CPU     45.47s WALL (       1 calls)
     hinit0       :      1.12s CPU      1.15s WALL (       1 calls)

     Called by electrons:
     c_bands      :  11031.40s CPU  11128.53s WALL (      20 calls)
     sum_band     :   1551.72s CPU   1563.71s WALL (      20 calls)
     v_of_rho     :    128.79s CPU    132.90s WALL (      20 calls)
     newd         :     29.91s CPU     41.12s WALL (      20 calls)
     PAW_pot      :    132.51s CPU    132.52s WALL (      20 calls)
     mix_rho      :    398.00s CPU    398.82s WALL (      20 calls)
     vdW_kernel   :     33.46s CPU     33.46s WALL (       1 calls)

     Called by c_bands:
     init_us_2    :     78.20s CPU     78.41s WALL (     546 calls)
     cegterg      :  10227.48s CPU  10324.34s WALL (     260 calls)

     Called by *egterg:
     cdiaghg      :    106.07s CPU    106.09s WALL (    1545 calls)
     h_psi        :   6570.77s CPU   6604.82s WALL (    1571 calls)
     s_psi        :   1083.96s CPU   1084.07s WALL (    1571 calls)
     g_psi        :     16.52s CPU     16.52s WALL (    1298 calls)

     Called by h_psi:
     h_psi:calbec :   1012.82s CPU   1012.99s WALL (    1571 calls)
     vloc_psi     :   4447.92s CPU   4449.65s WALL (    1571 calls)
     add_vuspsi   :   1083.85s CPU   1083.97s WALL (    1571 calls)

     General routines
     calbec       :   1482.53s CPU   1482.73s WALL (    1883 calls)
     fft          :     49.24s CPU     49.25s WALL (    3220 calls)
     ffts         :    125.59s CPU    125.66s WALL (    8724 calls)
     fftw         :   4530.37s CPU   4531.54s WALL (  332048 calls)
 
     Parallel routines
 
     PWSCF        :      3h50m CPU      3h52m WALL

 
   This run was terminated on:  17:59:30  26Sep2022            

=------------------------------------------------------------------------------=
   JOB DONE.
=------------------------------------------------------------------------------=
