
     Program PWSCF v.6.7MaX starts on  4Jan2023 at 10:12:41 

     This program is part of the open-source Quantum ESPRESSO suite
     for quantum simulation of materials; please cite
         "P. Giannozzi et al., J. Phys.:Condens. Matter 21 395502 (2009);
         "P. Giannozzi et al., J. Phys.:Condens. Matter 29 465901 (2017);
          URL http://www.quantum-espresso.org", 
     in publications or presentations arising from this work. More details at
     http://www.quantum-espresso.org/quote

     Parallel version (MPI), running on     1 processors

     MPI processes distributed on     1 nodes
     Reading input from chchch-tri-ensemble.in
Warning: card &CELL ignored
Warning: card / ignored

     Current dimensions of program PWSCF are:
     Max number of different atomic species (ntypx) = 10
     Max number of k-points (npk) =  40000
     Max angular momentum in pseudopotentials (lmaxx) =  3
     file Pt.pbe-n-kjpaw_psl.1.0.0.UPF: wavefunction(s)  6S 5D renormalized
     file C.pbe-n-kjpaw_psl.1.0.0.UPF: wavefunction(s)  2S 2P renormalized
     file H.pbe-kjpaw_psl.1.0.0.UPF: wavefunction(s)  1S renormalized

     **************************************************************************
     Initializing libbeef V0.1.2 with the BEEF-vdW functional.
     Citation: Wellendorff et al., PRB 85, 235149 (2012).
     **************************************************************************


     IMPORTANT: XC functional enforced from input :
     Exchange-correlation= BEEF-VDW
                           (   1   4  43  14   2   0   0)
     Any further DFT definition will be discarded
     Please, verify this is what you really want


     Subspace diagonalization in iterative solution of the eigenvalue problem:
     a serial algorithm will be used

 
     G-vector sticks info
     --------------------
     sticks:   dense  smooth     PW     G-vecs:    dense   smooth      PW
     Sum        4267    4267   1159               710933   710933  100073
 


     bravais-lattice index     =            0
     lattice parameter (alat)  =      16.0349  a.u.
     unit-cell volume          =   11316.3275 (a.u.)^3
     number of atoms/cell      =           42
     number of atomic types    =            3
     number of electrons       =       375.00
     number of Kohn-Sham states=          226
     kinetic-energy cutoff     =      60.0000  Ry
     charge density cutoff     =     240.0000  Ry
     scf convergence threshold =      1.0E-06
     mixing beta               =       0.7000
     number of iterations used =            8  local-TF  mixing
     Exchange-correlation= BEEF-VDW
                           (   1   4  43  14   2   0   0)

     celldm(1)=  16.034858  celldm(2)=   0.000000  celldm(3)=   0.000000
     celldm(4)=   0.000000  celldm(5)=   0.000000  celldm(6)=   0.000000

     crystal axes: (cart. coord. in units of alat)
               a(1) = (   1.000000   0.000000   0.000000 )  
               a(2) = (   0.500000   0.866025   0.000000 )  
               a(3) = (   0.000000   0.000000   3.169418 )  

     reciprocal axes: (cart. coord. in units 2 pi/alat)
               b(1) = (  1.000000 -0.577350  0.000000 )  
               b(2) = (  0.000000  1.154701  0.000000 )  
               b(3) = (  0.000000  0.000000  0.315515 )  


     PseudoPot. # 1 for Pt read from file:
     /users/bkreitz1/quantum-espresso/potentials/Pt.pbe-n-kjpaw_psl.1.0.0.UPF
     MD5 check sum: 04dc8a03c51ece93fc7b5889c2958091
     Pseudo is Projector augmented-wave + core cor, Zval = 10.0
     Generated using 'atomic' code by A. Dal Corso  v.6.7MaX
     Shape of augmentation charge: PSQ
     Using radial grid of 1277 points,  6 beta functions with: 
                l(1) =   0
                l(2) =   0
                l(3) =   1
                l(4) =   1
                l(5) =   2
                l(6) =   2
     Q(r) pseudized with 0 coefficients 


     PseudoPot. # 2 for C  read from file:
     /users/bkreitz1/quantum-espresso/potentials/C.pbe-n-kjpaw_psl.1.0.0.UPF
     MD5 check sum: a169b0ebad56f5ec0d79c4633f80bf22
     Pseudo is Projector augmented-wave + core cor, Zval =  4.0
     Generated using 'atomic' code by A. Dal Corso  v.6.7MaX
     Shape of augmentation charge: PSQ
     Using radial grid of 1073 points,  4 beta functions with: 
                l(1) =   0
                l(2) =   0
                l(3) =   1
                l(4) =   1
     Q(r) pseudized with 0 coefficients 


     PseudoPot. # 3 for H  read from file:
     /users/bkreitz1/quantum-espresso/potentials/H.pbe-kjpaw_psl.1.0.0.UPF
     MD5 check sum: ae98473e6dc62675f0d0baffdab24f65
     Pseudo is Projector augmented-wave, Zval =  1.0
     Generated using 'atomic' code by A. Dal Corso  v.6.7MaX
     Shape of augmentation charge: PSQ
     Using radial grid of  929 points,  2 beta functions with: 
                l(1) =   0
                l(2) =   0
     Q(r) pseudized with 0 coefficients 


     atomic species   valence    mass     pseudopotential
        Pt            10.00   195.08400     Pt( 1.00)
        C              4.00    12.01100     C ( 1.00)
        H              1.00     1.00800     H ( 1.00)

     No symmetry found



   Cartesian axes

     site n.     atom                  positions (alat units)
         1           Pt  tau(   1) = (   0.0000000   0.0000000   1.0017346  )
         2           Pt  tau(   2) = (   0.3333333   0.0000000   1.0017346  )
         3           Pt  tau(   3) = (   0.6666667   0.0000000   1.0017346  )
         4           Pt  tau(   4) = (   0.1666667   0.2886751   1.0017346  )
         5           Pt  tau(   5) = (   0.5000000   0.2886751   1.0017346  )
         6           Pt  tau(   6) = (   0.8333333   0.2886751   1.0017346  )
         7           Pt  tau(   7) = (   0.3333333   0.5773503   1.0017346  )
         8           Pt  tau(   8) = (   0.6666667   0.5773503   1.0017346  )
         9           Pt  tau(   9) = (   1.0000000   0.5773503   1.0017346  )
        10           Pt  tau(  10) = (   0.1666667   0.0962250   1.2739001  )
        11           Pt  tau(  11) = (   0.5000000   0.0962250   1.2739001  )
        12           Pt  tau(  12) = (   0.8333333   0.0962250   1.2739001  )
        13           Pt  tau(  13) = (   0.3333333   0.3849002   1.2739001  )
        14           Pt  tau(  14) = (   0.6666667   0.3849002   1.2739001  )
        15           Pt  tau(  15) = (   1.0000000   0.3849002   1.2739001  )
        16           Pt  tau(  16) = (   0.5000000   0.6735753   1.2739001  )
        17           Pt  tau(  17) = (   0.8333333   0.6735753   1.2739001  )
        18           Pt  tau(  18) = (   1.1666667   0.6735753   1.2739001  )
        19           Pt  tau(  19) = (  -0.0016351   0.1926673   1.5490840  )
        20           Pt  tau(  20) = (   0.3382154   0.1949703   1.5460158  )
        21           Pt  tau(  21) = (   0.6669558   0.1905042   1.5460784  )
        22           Pt  tau(  22) = (   0.1644367   0.4807973   1.5483931  )
        23           Pt  tau(  23) = (   0.5009007   0.4799220   1.5470832  )
        24           Pt  tau(  24) = (   0.8333510   0.4779089   1.5459960  )
        25           Pt  tau(  25) = (   0.3350994   0.7668412   1.5415425  )
        26           Pt  tau(  26) = (   0.6678975   0.7690473   1.5400928  )
        27           Pt  tau(  27) = (   1.0001337   0.7645187   1.5432949  )
        28           Pt  tau(  28) = (   0.0052215  -0.0100461   1.8173350  )
        29           Pt  tau(  29) = (   0.3376260   0.0009360   1.8119339  )
        30           Pt  tau(  30) = (   0.6666167  -0.0175386   1.8111811  )
        31           Pt  tau(  31) = (   0.1758829   0.2820479   1.8195450  )
        32           Pt  tau(  32) = (   0.5074800   0.2889601   1.8404753  )
        33           Pt  tau(  33) = (   0.8469842   0.2643580   1.8302045  )
        34           Pt  tau(  34) = (   0.3321603   0.5704286   1.8201900  )
        35           Pt  tau(  35) = (   0.6654168   0.5821544   1.8198925  )
        36           Pt  tau(  36) = (   0.9930384   0.5646970   1.8402952  )
        37           C   tau(  37) = (   0.6684624   0.2741995   2.0156267  )
        38           C   tau(  38) = (   0.7893090   0.3804485   2.0640214  )
        39           C   tau(  39) = (   0.8078288   0.5418749   2.0068996  )
        40           H   tau(  40) = (   0.6523346   0.1711807   2.0905002  )
        41           H   tau(  41) = (   0.8606429   0.3451999   2.1652742  )
        42           H   tau(  42) = (   0.8249512   0.6327145   2.0976176  )

     number of k points=    13  Marzari-Vanderbilt smearing, width (Ry)=  0.0200
                       cart. coord. in units 2pi/alat
        k(    1) = (   0.0000000   0.0000000   0.0000000), wk =   0.0800000
        k(    2) = (   0.0000000   0.2309401   0.0000000), wk =   0.1600000
        k(    3) = (   0.0000000   0.4618802   0.0000000), wk =   0.1600000
        k(    4) = (   0.2000000  -0.1154701   0.0000000), wk =   0.1600000
        k(    5) = (   0.2000000   0.1154701   0.0000000), wk =   0.1600000
        k(    6) = (   0.2000000   0.3464102   0.0000000), wk =   0.1600000
        k(    7) = (   0.2000000  -0.5773503   0.0000000), wk =   0.1600000
        k(    8) = (   0.2000000  -0.3464102   0.0000000), wk =   0.1600000
        k(    9) = (   0.4000000  -0.2309401   0.0000000), wk =   0.1600000
        k(   10) = (   0.4000000  -0.0000000   0.0000000), wk =   0.1600000
        k(   11) = (   0.4000000   0.2309401   0.0000000), wk =   0.1600000
        k(   12) = (   0.4000000  -0.6928203   0.0000000), wk =   0.1600000
        k(   13) = (   0.4000000  -0.4618802   0.0000000), wk =   0.1600000

     Dense  grid:   710933 G-vectors     FFT dimensions: (  80,  80, 256)

     Estimated max dynamical RAM per process >       8.63 GB

     Check: negative core charge=   -0.000002

     Initial potential from superposition of free atoms

     starting charge  374.99374, renormalised to  375.00000

     negative rho (up, down):  1.179E-02 0.000E+00


     %%%%%%%%%%%%%%%%%%%%%%%%%%%%%%%%%%%%%%%%%%%%%%%%%%%%%%%%%%%%%%%%%%%%%%%%
     %                                                                      %
     % You are using vdW-DF, which was implemented by the Thonhauser group. %
     % Please cite the following two papers that made this development      %
     % possible and the two reviews that describe the various versions:     %
     %                                                                      %
     %   T. Thonhauser et al., PRL 115, 136402 (2015).                      %
     %   T. Thonhauser et al., PRB 76, 125112 (2007).                       %
     %   K. Berland et al., Rep. Prog. Phys. 78, 066501 (2015).             %
     %   D.C. Langreth et al., J. Phys.: Condens. Matter 21, 084203 (2009). %
     %                                                                      %
     %                                                                      %
     % If you are calculating the stress with vdW-DF, please also cite:     %
     %                                                                      %
     %   R. Sabatini et al., J. Phys.: Condens. Matter 24, 424209 (2012).   %
     %                                                                      %
     %%%%%%%%%%%%%%%%%%%%%%%%%%%%%%%%%%%%%%%%%%%%%%%%%%%%%%%%%%%%%%%%%%%%%%%%


     Starting wfcs are  339 randomized atomic wfcs
     Checking if some PAW data can be deallocated... 

     total cpu time spent up to now is      343.5 secs

     Self-consistent Calculation

     iteration #  1     ecut=    60.00 Ry     beta= 0.70
     Davidson diagonalization with overlap
     ethr =  1.00E-02,  avg # of iterations =  2.1

     Threshold (ethr) on eigenvalues was too large:
     Diagonalizing with lowered threshold

     Davidson diagonalization with overlap
     ethr =  8.86E-04,  avg # of iterations =  2.4

     negative rho (up, down):  1.264E-02 0.000E+00

     total cpu time spent up to now is     1606.8 secs

     total energy              =  -27814.47267229 Ry
     estimated scf accuracy    <       3.62400857 Ry

     iteration #  2     ecut=    60.00 Ry     beta= 0.70
     Davidson diagonalization with overlap
     ethr =  9.66E-04,  avg # of iterations =  2.0

     negative rho (up, down):  1.058E-02 0.000E+00

     total cpu time spent up to now is     2198.5 secs

     total energy              =  -27814.72654815 Ry
     estimated scf accuracy    <       1.60971635 Ry

     iteration #  3     ecut=    60.00 Ry     beta= 0.70
     Davidson diagonalization with overlap
     ethr =  4.29E-04,  avg # of iterations =  3.1

     negative rho (up, down):  8.120E-03 0.000E+00

     total cpu time spent up to now is     2789.9 secs

     total energy              =  -27814.79636238 Ry
     estimated scf accuracy    <       0.70417693 Ry

     iteration #  4     ecut=    60.00 Ry     beta= 0.70
     Davidson diagonalization with overlap
     ethr =  1.88E-04,  avg # of iterations =  7.9

     negative rho (up, down):  6.154E-03 0.000E+00

     total cpu time spent up to now is     3467.6 secs

     total energy              =  -27814.83973249 Ry
     estimated scf accuracy    <       0.15856311 Ry

     iteration #  5     ecut=    60.00 Ry     beta= 0.70
     Davidson diagonalization with overlap
     ethr =  4.23E-05,  avg # of iterations = 10.7

     negative rho (up, down):  4.587E-03 0.000E+00

     total cpu time spent up to now is     4365.4 secs

     total energy              =  -27814.86789316 Ry
     estimated scf accuracy    <       0.08016991 Ry

     iteration #  6     ecut=    60.00 Ry     beta= 0.70
     Davidson diagonalization with overlap
     ethr =  2.14E-05,  avg # of iterations =  2.8

     negative rho (up, down):  3.502E-03 0.000E+00

     total cpu time spent up to now is     4967.6 secs

     total energy              =  -27814.87066129 Ry
     estimated scf accuracy    <       0.01343643 Ry

     iteration #  7     ecut=    60.00 Ry     beta= 0.70
     Davidson diagonalization with overlap
     c_bands:  3 eigenvalues not converged
     c_bands:  2 eigenvalues not converged
     c_bands:  3 eigenvalues not converged
     c_bands:  2 eigenvalues not converged
     c_bands:  1 eigenvalues not converged
     c_bands:  1 eigenvalues not converged
     c_bands:  1 eigenvalues not converged
     ethr =  3.58E-06,  avg # of iterations = 16.4

     negative rho (up, down):  3.236E-03 0.000E+00

     total cpu time spent up to now is     5892.1 secs

     total energy              =  -27814.87304521 Ry
     estimated scf accuracy    <       0.00468350 Ry

     iteration #  8     ecut=    60.00 Ry     beta= 0.70
     Davidson diagonalization with overlap
     ethr =  1.25E-06,  avg # of iterations =  4.2

     negative rho (up, down):  3.206E-03 0.000E+00

     total cpu time spent up to now is     6528.3 secs

     total energy              =  -27814.87346860 Ry
     estimated scf accuracy    <       0.00300469 Ry

     iteration #  9     ecut=    60.00 Ry     beta= 0.70
     Davidson diagonalization with overlap
     ethr =  8.01E-07,  avg # of iterations =  2.0

     negative rho (up, down):  3.765E-03 0.000E+00

     total cpu time spent up to now is     7120.4 secs

     total energy              =  -27814.87360110 Ry
     estimated scf accuracy    <       0.00256531 Ry

     iteration # 10     ecut=    60.00 Ry     beta= 0.70
     Davidson diagonalization with overlap
     c_bands:  1 eigenvalues not converged
     c_bands:  2 eigenvalues not converged
     ethr =  6.84E-07,  avg # of iterations = 10.4

     negative rho (up, down):  4.592E-03 0.000E+00

     total cpu time spent up to now is     7793.2 secs

     total energy              =  -27814.87363269 Ry
     estimated scf accuracy    <       0.00193091 Ry

     iteration # 11     ecut=    60.00 Ry     beta= 0.70
     Davidson diagonalization with overlap
     ethr =  5.15E-07,  avg # of iterations =  2.5

     negative rho (up, down):  8.111E-03 0.000E+00

     total cpu time spent up to now is     8376.1 secs

     total energy              =  -27814.87360387 Ry
     estimated scf accuracy    <       0.00115848 Ry

     iteration # 12     ecut=    60.00 Ry     beta= 0.70
     Davidson diagonalization with overlap
     ethr =  3.09E-07,  avg # of iterations =  3.8

     negative rho (up, down):  8.962E-03 0.000E+00

     total cpu time spent up to now is     8966.8 secs

     total energy              =  -27814.87370229 Ry
     estimated scf accuracy    <       0.00032857 Ry

     iteration # 13     ecut=    60.00 Ry     beta= 0.70
     Davidson diagonalization with overlap
     ethr =  8.76E-08,  avg # of iterations =  3.5

     negative rho (up, down):  9.819E-03 0.000E+00

     total cpu time spent up to now is     9593.3 secs

     total energy              =  -27814.87378364 Ry
     estimated scf accuracy    <       0.00021384 Ry

     iteration # 14     ecut=    60.00 Ry     beta= 0.70
     Davidson diagonalization with overlap
     ethr =  5.70E-08,  avg # of iterations =  2.0

     negative rho (up, down):  9.742E-03 0.000E+00

     total cpu time spent up to now is    10183.1 secs

     total energy              =  -27814.87380345 Ry
     estimated scf accuracy    <       0.00009852 Ry

     iteration # 15     ecut=    60.00 Ry     beta= 0.70
     Davidson diagonalization with overlap
     ethr =  2.63E-08,  avg # of iterations =  2.0

     negative rho (up, down):  1.152E-02 0.000E+00

     total cpu time spent up to now is    10798.9 secs

     total energy              =  -27814.87381240 Ry
     estimated scf accuracy    <       0.00009645 Ry

     iteration # 16     ecut=    60.00 Ry     beta= 0.70
     Davidson diagonalization with overlap
     ethr =  2.57E-08,  avg # of iterations =  1.1

     negative rho (up, down):  1.256E-02 0.000E+00

     total cpu time spent up to now is    11337.9 secs

     total energy              =  -27814.87381285 Ry
     estimated scf accuracy    <       0.00002700 Ry

     iteration # 17     ecut=    60.00 Ry     beta= 0.70
     Davidson diagonalization with overlap
     ethr =  7.20E-09,  avg # of iterations =  3.4

     negative rho (up, down):  1.288E-02 0.000E+00

     total cpu time spent up to now is    11989.5 secs

     total energy              =  -27814.87381482 Ry
     estimated scf accuracy    <       0.00000815 Ry

     iteration # 18     ecut=    60.00 Ry     beta= 0.70
     Davidson diagonalization with overlap
     ethr =  2.17E-09,  avg # of iterations =  4.2

     negative rho (up, down):  1.294E-02 0.000E+00

     total cpu time spent up to now is    12825.7 secs

     total energy              =  -27814.87381764 Ry
     estimated scf accuracy    <       0.00000619 Ry

     iteration # 19     ecut=    60.00 Ry     beta= 0.70
     Davidson diagonalization with overlap
     ethr =  1.65E-09,  avg # of iterations =  1.1

     negative rho (up, down):  1.315E-02 0.000E+00

     total cpu time spent up to now is    13365.9 secs

     total energy              =  -27814.87381756 Ry
     estimated scf accuracy    <       0.00000338 Ry

     iteration # 20     ecut=    60.00 Ry     beta= 0.70
     Davidson diagonalization with overlap
     ethr =  9.03E-10,  avg # of iterations =  1.0

     negative rho (up, down):  1.323E-02 0.000E+00

     total cpu time spent up to now is    13901.6 secs

     total energy              =  -27814.87381759 Ry
     estimated scf accuracy    <       0.00000102 Ry

     iteration # 21     ecut=    60.00 Ry     beta= 0.70
     Davidson diagonalization with overlap
     ethr =  2.73E-10,  avg # of iterations =  2.3

     negative rho (up, down):  1.307E-02 0.000E+00

     total cpu time spent up to now is    14480.9 secs

     End of self-consistent calculation

          k = 0.0000 0.0000 0.0000 ( 88877 PWs)   bands (ev):

   -13.9347 -10.7833  -7.5174  -6.6099  -6.1583  -5.3454  -4.5620  -4.5236
    -4.3402  -4.2576  -4.2410  -4.2321  -4.2201  -4.1996  -4.1454  -4.0872
    -3.8587  -3.7182  -3.7022  -3.6554  -3.6427  -3.6156  -3.4914  -3.3127
    -3.2625  -3.2265  -3.2081  -3.1144  -3.0761  -3.0300  -3.0003  -2.9859
    -2.9776  -2.9213  -2.8752  -2.8636  -2.8527  -2.8116  -2.7928  -2.7602
    -2.7253  -2.7100  -2.6996  -2.6855  -2.6644  -2.5599  -2.4580  -2.3214
    -2.2527  -2.2188  -2.1637  -2.1520  -2.1386  -2.0974  -2.0866  -2.0301
    -1.9982  -1.9536  -1.8993  -1.8871  -1.8784  -1.7334  -1.5220  -1.4732
    -1.4084  -1.3892  -1.3708  -1.3524  -1.3126  -1.2712  -1.2217  -1.2074
    -1.1726  -1.1618  -1.1501  -1.1434  -1.1377  -1.1268  -1.1070  -1.0898
    -1.0745  -1.0539  -1.0498  -1.0346  -1.0072  -0.9918  -0.9801  -0.9454
    -0.9308  -0.9044  -0.8519  -0.7889  -0.7601  -0.7413  -0.7247  -0.7203
    -0.6714  -0.6631  -0.6300  -0.6220  -0.6090  -0.5973  -0.5545  -0.5094
    -0.5035  -0.4819  -0.4608  -0.4574  -0.4116  -0.3944  -0.3424  -0.3236
    -0.2661  -0.2352  -0.1301  -0.0648  -0.0147   0.0516   0.0865   0.1094
     0.1708   0.1845   0.2126   0.2579   0.2831   0.3115   0.3515   0.3745
     0.3850   0.4059   0.4190   0.4383   0.4578   0.4797   0.5208   0.5778
     0.6625   0.6806   0.6907   0.7191   0.7456   0.8265   0.8630   0.8962
     0.9113   0.9315   0.9453   0.9859   0.9942   1.0440   1.0639   1.1273
     1.1732   1.1813   1.1978   1.2459   1.2619   1.2736   1.3156   1.3412
     1.3539   1.3656   1.3744   1.3906   1.4018   1.4100   1.4139   1.4302
     1.4455   1.4486   1.4664   1.4946   1.5204   1.5651   1.5926   1.6007
     1.6127   1.6282   1.6571   1.6654   1.6815   1.7075   1.7232   1.7341
     1.7423   1.7576   1.7903   1.7931   1.8235   1.8445   1.8563   1.8981
     1.9085   1.9730   2.0346   2.0821   2.1218   2.1486   2.1660   2.1942
     2.2034   2.2370   2.5636   2.5840   2.7093   2.9994   3.0438   3.0677
     3.5302   3.7831   4.4114   4.8308   5.2737   5.3201   5.5887   5.6623
     5.7941   6.0565   6.3273   6.7441   6.8151   6.9782   7.0082   7.0319
     7.0448   7.1286

          k = 0.0000 0.2309 0.0000 ( 88780 PWs)   bands (ev):

   -13.9344 -10.7850  -7.5016  -6.4778  -6.1459  -5.2239  -4.7717  -4.5139
    -4.4846  -4.3666  -4.3067  -4.1547  -4.1036  -4.0076  -3.9896  -3.9612
    -3.8600  -3.7621  -3.7032  -3.6242  -3.5912  -3.5800  -3.4393  -3.2845
    -3.2430  -3.1932  -3.1596  -3.1227  -3.0992  -3.0620  -3.0343  -3.0086
    -2.9809  -2.9557  -2.8992  -2.8849  -2.8509  -2.8113  -2.7838  -2.7722
    -2.6698  -2.6424  -2.5933  -2.5633  -2.5295  -2.5012  -2.4582  -2.3597
    -2.3148  -2.2811  -2.2387  -2.2276  -2.1721  -2.1370  -2.0679  -1.9851
    -1.9727  -1.9495  -1.9202  -1.8780  -1.8056  -1.7566  -1.6317  -1.5800
    -1.5485  -1.5147  -1.4781  -1.4687  -1.4258  -1.4009  -1.3650  -1.3414
    -1.3064  -1.2934  -1.2658  -1.2230  -1.1945  -1.1732  -1.1409  -1.1078
    -1.0805  -1.0586  -1.0299  -0.9859  -0.9646  -0.9596  -0.9366  -0.9149
    -0.8918  -0.8767  -0.8425  -0.7896  -0.7759  -0.7690  -0.7362  -0.7240
    -0.7066  -0.6939  -0.6341  -0.6269  -0.6042  -0.5913  -0.5692  -0.5640
    -0.5347  -0.5168  -0.4925  -0.4784  -0.4593  -0.4223  -0.3929  -0.3580
    -0.2864  -0.2687  -0.2277  -0.2191  -0.2151  -0.2078  -0.1702  -0.0378
     0.0028   0.0672   0.1096   0.1452   0.1834   0.1940   0.2166   0.2284
     0.2630   0.3459   0.3878   0.4212   0.4538   0.5104   0.5449   0.5735
     0.6025   0.6207   0.6395   0.6684   0.6834   0.7362   0.7766   0.7988
     0.8162   0.8597   0.8989   0.9283   0.9559   0.9660   0.9981   1.0320
     1.0682   1.1180   1.1499   1.1683   1.1965   1.2260   1.2553   1.2825
     1.3056   1.3506   1.3836   1.3895   1.4311   1.4522   1.4741   1.5200
     1.5255   1.5616   1.6224   1.6619   1.6835   1.7003   1.7188   1.7424
     1.7601   1.7840   1.8079   1.8386   1.8472   1.8741   1.8860   1.8987
     1.9406   2.0132   2.0257   2.0519   2.0621   2.0811   2.1248   2.1318
     2.1540   2.1736   2.1886   2.2562   2.2901   2.3063   2.3594   2.4192
     2.4652   2.4770   2.5229   2.6807   3.0127   3.1270   3.4391   3.6230
     3.7219   4.0203   4.2215   4.9312   5.0260   5.4104   5.6079   5.7236
     5.8876   5.9763   6.0987   6.2731   6.4263   6.7345   6.8340   6.8951
     7.0712   7.1698

          k = 0.0000 0.4619 0.0000 ( 88834 PWs)   bands (ev):

   -13.9338 -10.7878  -7.4776  -6.1938  -6.0200  -5.4318  -4.8892  -4.5716
    -4.4428  -4.3699  -4.3521  -4.1955  -4.0076  -3.9148  -3.8096  -3.7208
    -3.6788  -3.6359  -3.6023  -3.5349  -3.4824  -3.4152  -3.3949  -3.3925
    -3.2685  -3.2503  -3.2411  -3.2139  -3.1998  -3.1444  -3.0876  -3.0680
    -3.0129  -2.9243  -2.8404  -2.8176  -2.8047  -2.7749  -2.7223  -2.6574
    -2.6093  -2.5778  -2.5526  -2.5439  -2.5063  -2.4735  -2.3802  -2.3282
    -2.2940  -2.2480  -2.2370  -2.2272  -2.1733  -2.1238  -2.0995  -2.0806
    -2.0548  -2.0233  -1.9803  -1.8963  -1.8682  -1.8560  -1.7986  -1.7347
    -1.7092  -1.6733  -1.6634  -1.6186  -1.5778  -1.5187  -1.4779  -1.4511
    -1.3992  -1.3837  -1.3580  -1.3304  -1.3100  -1.2767  -1.2179  -1.1866
    -1.1615  -1.1190  -1.1041  -1.0622  -1.0383  -1.0166  -0.9991  -0.9761
    -0.9513  -0.9442  -0.9165  -0.9058  -0.8834  -0.8496  -0.8280  -0.8088
    -0.7771  -0.7530  -0.7313  -0.7027  -0.6434  -0.6276  -0.6098  -0.5718
    -0.5593  -0.5237  -0.5109  -0.4848  -0.4533  -0.3874  -0.3480  -0.3234
    -0.2988  -0.2775  -0.2561  -0.2376  -0.2237  -0.1154  -0.0737  -0.0579
    -0.0169   0.0144   0.0348   0.0718   0.1009   0.1375   0.1540   0.1847
     0.2048   0.2227   0.2641   0.2759   0.2932   0.3161   0.3710   0.3825
     0.4226   0.4648   0.4880   0.5286   0.5695   0.6277   0.6666   0.7143
     0.7604   0.7818   0.8615   0.9048   0.9270   0.9450   0.9645   1.0319
     1.0554   1.0766   1.0848   1.1119   1.1780   1.1872   1.2162   1.2640
     1.2816   1.3067   1.3394   1.3713   1.4008   1.4637   1.4977   1.5153
     1.5807   1.6218   1.6585   1.6990   1.7345   1.7514   1.7747   1.8098
     1.8637   1.8803   1.9259   1.9292   1.9736   2.0104   2.0175   2.0608
     2.0743   2.0933   2.1400   2.1701   2.1998   2.2862   2.3211   2.3324
     2.3482   2.3870   2.4257   2.5777   2.6699   2.7699   2.9506   3.1958
     3.2950   3.3567   3.3789   3.6199   3.6865   3.8074   4.1046   4.1849
     4.4035   4.5402   4.6634   4.6919   4.7627   4.9570   5.1349   5.1695
     5.3115   5.6082   5.7408   5.9267   6.1172   6.2757   6.4467   6.6703
     6.8867   7.0052

          k = 0.2000-0.1155 0.0000 ( 88780 PWs)   bands (ev):

   -13.9345 -10.7832  -7.5060  -6.4758  -6.1459  -5.2234  -4.7576  -4.5302
    -4.4843  -4.3360  -4.2892  -4.1575  -4.1028  -4.0377  -3.9756  -3.9673
    -3.8914  -3.7719  -3.6541  -3.6188  -3.5816  -3.5600  -3.4548  -3.2786
    -3.2471  -3.2238  -3.1768  -3.1153  -3.1056  -3.0507  -3.0266  -3.0014
    -2.9594  -2.9439  -2.9156  -2.8954  -2.8698  -2.8262  -2.8076  -2.7789
    -2.7228  -2.6433  -2.5970  -2.5581  -2.5486  -2.5158  -2.4334  -2.3385
    -2.3095  -2.2797  -2.2396  -2.2154  -2.1875  -2.1376  -2.0716  -2.0288
    -1.9799  -1.9535  -1.8849  -1.8708  -1.8411  -1.7730  -1.6472  -1.5726
    -1.5509  -1.5219  -1.4844  -1.4536  -1.4360  -1.4112  -1.3729  -1.3263
    -1.3031  -1.2837  -1.2417  -1.2200  -1.2022  -1.1834  -1.1657  -1.1040
    -1.0739  -1.0481  -1.0203  -0.9974  -0.9900  -0.9513  -0.9393  -0.9203
    -0.9010  -0.8797  -0.8548  -0.8106  -0.7817  -0.7608  -0.7249  -0.7202
    -0.7055  -0.6704  -0.6233  -0.6158  -0.5988  -0.5832  -0.5569  -0.5385
    -0.5347  -0.5194  -0.4861  -0.4727  -0.4327  -0.3997  -0.3787  -0.3134
    -0.2823  -0.2507  -0.2361  -0.2177  -0.2161  -0.1895  -0.1649  -0.0699
    -0.0099   0.0905   0.1055   0.1504   0.1901   0.2134   0.2376   0.2823
     0.3331   0.3504   0.3936   0.4278   0.4859   0.4920   0.5248   0.5766
     0.6066   0.6170   0.6418   0.6700   0.6844   0.7405   0.7845   0.8136
     0.8268   0.8463   0.8757   0.9388   0.9726   0.9838   1.0160   1.0382
     1.0611   1.0778   1.1571   1.1687   1.1884   1.2272   1.2538   1.2812
     1.3076   1.3541   1.3805   1.3982   1.4060   1.4287   1.4789   1.5053
     1.5485   1.5702   1.6027   1.6468   1.6832   1.6934   1.7226   1.7361
     1.7448   1.7812   1.8021   1.8306   1.8414   1.8593   1.8721   1.9029
     1.9344   1.9958   2.0316   2.0523   2.0801   2.0845   2.1070   2.1224
     2.1427   2.1626   2.1776   2.2087   2.2586   2.3043   2.3211   2.4188
     2.4668   2.4945   2.6147   2.7354   2.8487   3.0416   3.4987   3.6413
     3.7691   3.8657   4.4785   4.7800   4.9525   5.4185   5.6824   5.7268
     5.8627   5.8991   6.0841   6.3041   6.4408   6.7561   6.8543   6.9663
     7.0522   7.1109

          k = 0.2000 0.1155 0.0000 ( 88780 PWs)   bands (ev):

   -13.9344 -10.7847  -7.4995  -6.4792  -6.1481  -5.2248  -4.7556  -4.4975
    -4.4850  -4.3762  -4.3096  -4.1285  -4.0998  -4.0160  -3.9928  -3.9454
    -3.8298  -3.7606  -3.7439  -3.6394  -3.5956  -3.5606  -3.4184  -3.3027
    -3.2240  -3.2000  -3.1781  -3.1470  -3.1126  -3.0814  -3.0290  -2.9977
    -2.9822  -2.9411  -2.9189  -2.8867  -2.8680  -2.8179  -2.8093  -2.7820
    -2.7027  -2.6462  -2.6236  -2.5817  -2.5384  -2.4933  -2.4367  -2.3762
    -2.2858  -2.2475  -2.2326  -2.2028  -2.1599  -2.1189  -2.0873  -2.0291
    -1.9790  -1.9448  -1.9014  -1.8813  -1.8132  -1.7722  -1.6480  -1.5965
    -1.5339  -1.5179  -1.4810  -1.4635  -1.4405  -1.3918  -1.3645  -1.3335
    -1.3190  -1.2737  -1.2626  -1.2376  -1.1955  -1.1575  -1.1321  -1.1066
    -1.0827  -1.0514  -1.0169  -1.0057  -0.9750  -0.9469  -0.9344  -0.9249
    -0.9010  -0.8849  -0.8495  -0.8218  -0.7994  -0.7599  -0.7390  -0.7067
    -0.6990  -0.6820  -0.6486  -0.6239  -0.5899  -0.5692  -0.5514  -0.5334
    -0.5242  -0.5037  -0.4854  -0.4707  -0.4403  -0.4152  -0.3814  -0.3186
    -0.2913  -0.2759  -0.2436  -0.2271  -0.2136  -0.2064  -0.1563  -0.0991
     0.0048   0.0682   0.1315   0.1649   0.1812   0.1983   0.2249   0.2822
     0.3191   0.3627   0.4029   0.4311   0.4699   0.5093   0.5275   0.5712
     0.5985   0.6205   0.6401   0.6650   0.7177   0.7376   0.7743   0.7995
     0.8153   0.8409   0.8984   0.9619   0.9680   0.9824   1.0094   1.0183
     1.0729   1.1079   1.1555   1.1766   1.1823   1.2116   1.2517   1.2708
     1.3098   1.3473   1.3803   1.3918   1.4215   1.4459   1.4746   1.5205
     1.5413   1.5716   1.5848   1.6421   1.6690   1.6890   1.7106   1.7412
     1.7536   1.7936   1.8074   1.8266   1.8400   1.8743   1.8925   1.9067
     1.9281   1.9916   2.0031   2.0457   2.0694   2.0915   2.1036   2.1271
     2.1543   2.1569   2.2015   2.2480   2.2801   2.2999   2.3182   2.4191
     2.4570   2.4830   2.5636   2.6540   2.9727   3.2593   3.3372   3.6003
     3.7118   3.9570   4.3111   4.9490   5.0943   5.2940   5.5924   5.7560
     5.8997   5.9593   6.1331   6.2527   6.4284   6.7854   6.8208   6.8786
     7.0507   7.1826

          k = 0.2000 0.3464 0.0000 ( 88810 PWs)   bands (ev):

   -13.9339 -10.7874  -7.4779  -6.2563  -6.0931  -5.0415  -4.9970  -4.9448
    -4.4743  -4.3875  -4.1273  -3.9386  -3.9020  -3.8961  -3.8593  -3.8411
    -3.8061  -3.7862  -3.6992  -3.6704  -3.5552  -3.3704  -3.3423  -3.3123
    -3.2961  -3.2337  -3.2216  -3.1561  -3.1095  -3.0715  -3.0501  -3.0156
    -2.9801  -2.9679  -2.9266  -2.9136  -2.8629  -2.8428  -2.8199  -2.7694
    -2.7299  -2.6885  -2.5467  -2.4675  -2.4450  -2.3848  -2.3639  -2.3384
    -2.3067  -2.2720  -2.2405  -2.2075  -2.1590  -2.1094  -2.0748  -2.0434
    -1.9931  -1.9791  -1.9352  -1.9083  -1.8519  -1.8098  -1.8006  -1.7240
    -1.6794  -1.6316  -1.6025  -1.5682  -1.5422  -1.4825  -1.4615  -1.4348
    -1.4092  -1.3693  -1.3368  -1.2988  -1.2666  -1.2401  -1.2254  -1.1778
    -1.1648  -1.1180  -1.0897  -1.0566  -1.0340  -1.0124  -0.9971  -0.9619
    -0.9338  -0.8980  -0.8716  -0.8554  -0.8385  -0.8086  -0.8039  -0.7834
    -0.7695  -0.7179  -0.6760  -0.6539  -0.6238  -0.6030  -0.5971  -0.5731
    -0.5451  -0.5380  -0.5126  -0.4994  -0.4822  -0.4418  -0.4244  -0.3933
    -0.3767  -0.3314  -0.2927  -0.2723  -0.2422  -0.1764  -0.1250  -0.1060
    -0.0330   0.0168   0.0399   0.0730   0.1193   0.1482   0.1718   0.1959
     0.2120   0.2633   0.3067   0.3264   0.3466   0.3774   0.4073   0.4624
     0.5159   0.5352   0.5740   0.5991   0.6353   0.6493   0.7142   0.7528
     0.7730   0.8305   0.8373   0.8661   0.8843   0.9160   0.9773   1.0044
     1.0387   1.0613   1.1052   1.1287   1.1555   1.1784   1.1872   1.2128
     1.2235   1.2844   1.3292   1.4045   1.4315   1.4575   1.4953   1.6316
     1.6627   1.6705   1.7110   1.7394   1.7626   1.8103   1.8411   1.8732
     1.8950   1.9042   1.9253   1.9370   1.9487   1.9804   2.0014   2.0348
     2.0786   2.0931   2.1130   2.1444   2.1528   2.2043   2.2687   2.3164
     2.3527   2.3799   2.3918   2.4694   2.5256   2.5583   2.6641   2.8306
     3.0245   3.0785   3.2289   3.4568   3.5671   3.6933   3.7875   4.0651
     4.1725   4.4205   4.5819   4.6360   4.7515   5.0815   5.3923   5.5200
     5.7916   5.8590   6.0466   6.1934   6.2614   6.4032   6.5139   6.6108
     6.6987   6.7831

          k = 0.2000-0.5774 0.0000 ( 88788 PWs)   bands (ev):

   -13.9336 -10.7876  -7.4719  -6.1670  -5.7071  -5.6135  -5.0787  -4.6809
    -4.5596  -4.3322  -4.2673  -4.0357  -3.8551  -3.8243  -3.7460  -3.6805
    -3.6160  -3.6043  -3.5289  -3.5050  -3.4561  -3.4107  -3.3705  -3.3585
    -3.3375  -3.3148  -3.2964  -3.2014  -3.1845  -3.1500  -3.1421  -3.0736
    -3.0422  -2.9351  -2.9185  -2.8859  -2.8393  -2.7714  -2.7581  -2.7300
    -2.6873  -2.6618  -2.5938  -2.5732  -2.4807  -2.3939  -2.3713  -2.3461
    -2.2947  -2.2138  -2.1855  -2.1597  -2.1226  -2.0707  -2.0589  -2.0222
    -1.9719  -1.9473  -1.8950  -1.8578  -1.8454  -1.8354  -1.7999  -1.7531
    -1.7307  -1.7027  -1.6864  -1.6772  -1.6253  -1.5989  -1.5485  -1.5247
    -1.4806  -1.4461  -1.4220  -1.3677  -1.3478  -1.3143  -1.2968  -1.2533
    -1.2322  -1.2213  -1.1538  -1.1389  -1.1167  -1.0786  -1.0585  -1.0329
    -1.0009  -0.9915  -0.9166  -0.8889  -0.8756  -0.8390  -0.8061  -0.7731
    -0.7420  -0.7020  -0.6598  -0.6579  -0.6214  -0.6064  -0.5880  -0.5714
    -0.5485  -0.5348  -0.5152  -0.4696  -0.4432  -0.4411  -0.4231  -0.4029
    -0.3901  -0.3837  -0.3694  -0.3002  -0.2730  -0.1508  -0.1241  -0.0793
    -0.0718   0.0056   0.0297   0.0555   0.0845   0.1188   0.1371   0.1540
     0.2029   0.2318   0.2437   0.2654   0.2887   0.3228   0.3884   0.4135
     0.4438   0.4994   0.5129   0.5764   0.6009   0.6368   0.7108   0.7448
     0.7630   0.7963   0.8086   0.8439   0.8577   0.8868   0.9127   0.9538
     0.9765   1.0113   1.0336   1.0693   1.1060   1.1220   1.1595   1.2278
     1.2405   1.3021   1.3703   1.4229   1.4467   1.5410   1.5726   1.6372
     1.6647   1.6757   1.7212   1.7605   1.8107   1.8188   1.8380   1.8693
     1.9108   1.9435   1.9605   2.0189   2.0313   2.0565   2.0664   2.0839
     2.0973   2.1184   2.1805   2.2119   2.2425   2.3244   2.3324   2.3436
     2.3810   2.3989   2.4244   2.5545   2.6996   3.0575   3.1982   3.3627
     3.4983   3.5090   3.7081   3.8433   3.8737   3.9868   4.1041   4.3547
     4.4978   4.6448   4.8376   4.8757   4.9949   5.0958   5.1770   5.3353
     5.4175   5.4466   5.5421   5.7556   5.8132   6.0765   6.3733   6.4611
     6.5822   6.6244

          k = 0.2000-0.3464 0.0000 ( 88810 PWs)   bands (ev):

   -13.9340 -10.7850  -7.4886  -6.2395  -6.1010  -5.0398  -5.0008  -4.9382
    -4.4786  -4.4138  -4.1155  -3.9633  -3.9195  -3.8880  -3.8441  -3.8338
    -3.8128  -3.8021  -3.7213  -3.6674  -3.4761  -3.3886  -3.3497  -3.3082
    -3.2791  -3.2477  -3.2062  -3.1585  -3.1339  -3.0662  -3.0188  -3.0013
    -2.9771  -2.9571  -2.9466  -2.9161  -2.8551  -2.8408  -2.7870  -2.7476
    -2.7134  -2.6781  -2.5708  -2.4969  -2.4438  -2.4196  -2.3585  -2.3173
    -2.2890  -2.2716  -2.2556  -2.2347  -2.1990  -2.1317  -2.1057  -2.0400
    -2.0060  -1.9437  -1.9234  -1.8844  -1.8487  -1.8309  -1.7914  -1.7707
    -1.6916  -1.6225  -1.6002  -1.5650  -1.5136  -1.4918  -1.4611  -1.4407
    -1.4259  -1.3756  -1.3417  -1.3021  -1.2619  -1.2497  -1.2187  -1.1988
    -1.1800  -1.1211  -1.0885  -1.0570  -1.0315  -0.9923  -0.9738  -0.9410
    -0.9249  -0.8928  -0.8801  -0.8654  -0.8253  -0.8063  -0.7921  -0.7799
    -0.7561  -0.7154  -0.6928  -0.6575  -0.6298  -0.6053  -0.5818  -0.5717
    -0.5275  -0.5212  -0.4962  -0.4849  -0.4700  -0.4534  -0.4358  -0.4172
    -0.3635  -0.3195  -0.2986  -0.2791  -0.2364  -0.1885  -0.1317  -0.1188
    -0.0142   0.0196   0.0453   0.0746   0.0904   0.1291   0.1902   0.2114
     0.2234   0.2672   0.3091   0.3285   0.3432   0.3686   0.4199   0.4811
     0.4973   0.5567   0.5736   0.6079   0.6203   0.6442   0.7388   0.7792
     0.8031   0.8129   0.8237   0.8576   0.8982   0.9381   0.9546   1.0044
     1.0476   1.0584   1.0931   1.1119   1.1492   1.1753   1.1891   1.2100
     1.2317   1.2699   1.3161   1.3572   1.4198   1.4754   1.5445   1.5791
     1.6574   1.6742   1.7196   1.7584   1.8062   1.8174   1.8443   1.8536
     1.8842   1.9199   1.9304   1.9438   1.9562   1.9783   1.9997   2.0332
     2.0551   2.0914   2.1184   2.1296   2.1721   2.2168   2.2347   2.3220
     2.3403   2.3692   2.4049   2.4415   2.5084   2.5639   2.5945   2.8864
     3.0711   3.1224   3.1980   3.3717   3.5526   3.6796   3.8029   4.0867
     4.1940   4.4344   4.5087   4.6385   4.7294   5.0493   5.3562   5.5818
     5.7986   5.8699   6.0337   6.1255   6.1980   6.4081   6.5116   6.6025
     6.7286   6.8854

          k = 0.4000-0.2309 0.0000 ( 88834 PWs)   bands (ev):

   -13.9340 -10.7830  -7.4889  -6.1806  -6.0268  -5.4380  -4.8723  -4.5325
    -4.4690  -4.3670  -4.2946  -4.2078  -3.9930  -3.9062  -3.8425  -3.7200
    -3.6703  -3.6365  -3.5775  -3.5109  -3.4553  -3.4099  -3.3863  -3.3767
    -3.3016  -3.2547  -3.2241  -3.2021  -3.1902  -3.1755  -3.1179  -3.0843
    -3.0668  -2.9981  -2.8767  -2.8226  -2.8080  -2.7810  -2.7653  -2.7279
    -2.6461  -2.6081  -2.5805  -2.5358  -2.5089  -2.4624  -2.3883  -2.3513
    -2.3013  -2.2729  -2.2300  -2.1919  -2.1737  -2.1219  -2.0931  -2.0800
    -2.0591  -2.0194  -1.9632  -1.9221  -1.8969  -1.8536  -1.8345  -1.7318
    -1.7121  -1.6816  -1.6557  -1.6409  -1.5550  -1.5088  -1.4953  -1.4562
    -1.4186  -1.3861  -1.3558  -1.3354  -1.3018  -1.2234  -1.1989  -1.1659
    -1.1440  -1.1107  -1.0768  -1.0508  -1.0365  -1.0180  -1.0011  -0.9741
    -0.9565  -0.9345  -0.9227  -0.9084  -0.8841  -0.8611  -0.8145  -0.7907
    -0.7635  -0.7354  -0.7174  -0.7038  -0.6921  -0.6263  -0.5881  -0.5671
    -0.5318  -0.5220  -0.4726  -0.4429  -0.4056  -0.3856  -0.3425  -0.2971
    -0.2673  -0.2437  -0.2234  -0.1977  -0.1718  -0.1267  -0.0760  -0.0386
     0.0125   0.0298   0.0497   0.0899   0.1173   0.1407   0.1606   0.1789
     0.1967   0.2065   0.2389   0.2752   0.3150   0.3434   0.3514   0.3820
     0.4503   0.4750   0.4949   0.5243   0.5401   0.6432   0.6927   0.7429
     0.7690   0.8110   0.8369   0.8970   0.9474   0.9590   0.9867   1.0373
     1.0544   1.0839   1.1103   1.1398   1.1611   1.2015   1.2203   1.2792
     1.2992   1.3116   1.3579   1.3701   1.4233   1.4382   1.4724   1.5267
     1.5564   1.6084   1.6531   1.6854   1.7310   1.7525   1.7644   1.7978
     1.8367   1.8744   1.8992   1.9260   1.9751   2.0215   2.0335   2.0473
     2.0658   2.0839   2.1068   2.1552   2.2410   2.2625   2.2840   2.3134
     2.3346   2.3697   2.4403   2.5784   2.6433   2.6851   2.8644   3.0770
     3.2236   3.3817   3.3978   3.5860   3.6572   3.8780   4.0527   4.1145
     4.3575   4.5763   4.6361   4.6706   4.8147   4.9206   4.9894   5.2317
     5.2724   5.6850   5.7486   5.9009   6.1020   6.2400   6.4791   6.7823
     6.8302   6.9921

          k = 0.4000-0.0000 0.0000 ( 88810 PWs)   bands (ev):

   -13.9340 -10.7844  -7.4852  -6.2453  -6.1016  -5.0324  -5.0111  -4.9276
    -4.4525  -4.3946  -4.0778  -3.9473  -3.9022  -3.8888  -3.8721  -3.8499
    -3.8372  -3.7578  -3.7184  -3.6787  -3.5053  -3.3565  -3.3446  -3.3069
    -3.2715  -3.2336  -3.2122  -3.1607  -3.1254  -3.0813  -3.0686  -3.0434
    -2.9918  -2.9615  -2.9480  -2.9071  -2.8754  -2.8446  -2.8202  -2.8129
    -2.7732  -2.6807  -2.6322  -2.5132  -2.4608  -2.4209  -2.3784  -2.3261
    -2.2937  -2.2624  -2.2427  -2.1967  -2.1715  -2.1242  -2.0951  -2.0143
    -1.9831  -1.9370  -1.9069  -1.8740  -1.8601  -1.8347  -1.8090  -1.7469
    -1.7035  -1.6196  -1.6010  -1.5879  -1.5182  -1.4882  -1.4795  -1.4443
    -1.4145  -1.3803  -1.3667  -1.2796  -1.2543  -1.2313  -1.2002  -1.1828
    -1.1706  -1.1019  -1.0750  -1.0474  -1.0341  -1.0108  -0.9787  -0.9625
    -0.9308  -0.9122  -0.8616  -0.8502  -0.8326  -0.7979  -0.7823  -0.7579
    -0.7371  -0.7014  -0.6805  -0.6632  -0.6279  -0.6084  -0.5963  -0.5598
    -0.5503  -0.5279  -0.5042  -0.4728  -0.4590  -0.4255  -0.4065  -0.3824
    -0.3374  -0.3098  -0.2897  -0.2640  -0.2492  -0.1935  -0.1501  -0.1214
    -0.0181   0.0227   0.0427   0.1000   0.1266   0.1483   0.1921   0.2272
     0.2402   0.2645   0.3061   0.3476   0.3617   0.3740   0.4171   0.4498
     0.5153   0.5538   0.5826   0.6067   0.6292   0.6535   0.6870   0.7595
     0.7860   0.8191   0.8390   0.8470   0.8954   0.9496   0.9840   1.0166
     1.0317   1.0776   1.1016   1.1201   1.1294   1.1678   1.1957   1.2122
     1.2538   1.2773   1.3424   1.3554   1.3706   1.4615   1.5435   1.6062
     1.6493   1.6748   1.7047   1.7254   1.7943   1.8199   1.8536   1.8731
     1.8939   1.9124   1.9254   1.9478   1.9607   1.9762   2.0060   2.0341
     2.0454   2.0957   2.1046   2.1409   2.1635   2.2033   2.2663   2.3099
     2.3430   2.3802   2.4001   2.4312   2.4827   2.5784   2.6022   2.8462
     2.9899   3.0884   3.2160   3.4049   3.5207   3.6418   3.6956   4.0727
     4.2061   4.4310   4.5031   4.6488   4.7174   5.0378   5.4775   5.5882
     5.7430   5.8762   6.0686   6.1243   6.3007   6.4048   6.5043   6.5480
     6.7199   6.9060

          k = 0.4000 0.2309 0.0000 ( 88834 PWs)   bands (ev):

   -13.9338 -10.7869  -7.4721  -6.2057  -6.0160  -5.4326  -4.8886  -4.5187
    -4.4312  -4.3883  -4.3243  -4.1428  -3.9872  -3.9112  -3.8195  -3.7231
    -3.6898  -3.6309  -3.6129  -3.5282  -3.4475  -3.4276  -3.4059  -3.3246
    -3.2795  -3.2601  -3.2470  -3.2266  -3.1893  -3.1750  -3.1241  -3.0951
    -3.0509  -3.0235  -2.9233  -2.8670  -2.8081  -2.7852  -2.7662  -2.7034
    -2.6287  -2.6116  -2.5744  -2.5455  -2.5219  -2.4674  -2.3800  -2.3448
    -2.2853  -2.2561  -2.2189  -2.1767  -2.1622  -2.1172  -2.0833  -2.0693
    -2.0292  -2.0144  -1.9563  -1.9157  -1.8854  -1.8507  -1.7801  -1.7578
    -1.7249  -1.6921  -1.6739  -1.5960  -1.5880  -1.5139  -1.4722  -1.4532
    -1.4209  -1.3694  -1.3493  -1.3254  -1.2619  -1.2386  -1.2223  -1.1608
    -1.1494  -1.1295  -1.0977  -1.0759  -1.0696  -1.0256  -1.0058  -0.9867
    -0.9645  -0.9461  -0.9146  -0.9024  -0.8875  -0.8530  -0.8236  -0.7840
    -0.7487  -0.7308  -0.7196  -0.6821  -0.6507  -0.6263  -0.6094  -0.5722
    -0.5386  -0.5100  -0.4941  -0.4500  -0.4103  -0.3897  -0.3659  -0.3323
    -0.2867  -0.2678  -0.2431  -0.1917  -0.1629  -0.1347  -0.0888  -0.0719
     0.0128   0.0335   0.0562   0.1037   0.1266   0.1439   0.1895   0.2065
     0.2226   0.2404   0.2565   0.2720   0.3138   0.3263   0.3522   0.3988
     0.4350   0.4674   0.4938   0.5278   0.5674   0.5973   0.6622   0.7173
     0.7593   0.7748   0.8846   0.9039   0.9279   0.9568   0.9943   1.0145
     1.0308   1.0612   1.1053   1.1319   1.1446   1.2128   1.2443   1.2754
     1.2920   1.3142   1.3427   1.3724   1.3934   1.4948   1.5191   1.5446
     1.5732   1.6139   1.6347   1.6744   1.7405   1.7455   1.7553   1.8226
     1.8521   1.8675   1.9059   1.9327   1.9598   2.0121   2.0335   2.0529
     2.0639   2.0728   2.0986   2.1636   2.2240   2.2616   2.3025   2.3278
     2.3497   2.3833   2.4113   2.5776   2.6047   2.6616   2.9076   3.1263
     3.3221   3.3478   3.4543   3.6171   3.6700   3.7660   3.9742   4.2555
     4.4117   4.5564   4.6197   4.7329   4.7519   4.8693   5.1216   5.1822
     5.3011   5.5951   5.7308   6.0187   6.1586   6.2750   6.4822   6.6580
     6.9094   6.9959

          k = 0.4000-0.6928 0.0000 ( 88788 PWs)   bands (ev):

   -13.9336 -10.7870  -7.4685  -6.1740  -5.6758  -5.6468  -5.0732  -4.6801
    -4.5290  -4.3456  -4.2052  -4.0215  -3.8931  -3.8058  -3.7472  -3.6822
    -3.6155  -3.5917  -3.5158  -3.4907  -3.4163  -3.4048  -3.3859  -3.3671
    -3.3357  -3.3199  -3.2912  -3.2162  -3.1946  -3.1674  -3.1551  -3.1086
    -3.0623  -3.0087  -2.9304  -2.9035  -2.8628  -2.8400  -2.7582  -2.7385
    -2.7204  -2.6629  -2.5929  -2.5720  -2.4999  -2.3988  -2.3488  -2.3249
    -2.2969  -2.2512  -2.2124  -2.1575  -2.1024  -2.0535  -2.0236  -1.9957
    -1.9707  -1.9542  -1.9033  -1.8807  -1.8494  -1.8210  -1.8012  -1.7492
    -1.7380  -1.7124  -1.6818  -1.6611  -1.6418  -1.6139  -1.5734  -1.5063
    -1.4670  -1.4385  -1.4064  -1.3812  -1.3226  -1.3002  -1.2674  -1.2544
    -1.2323  -1.1894  -1.1775  -1.1329  -1.1032  -1.0702  -1.0419  -1.0317
    -1.0148  -0.9684  -0.8997  -0.8920  -0.8701  -0.8518  -0.8243  -0.7424
    -0.7271  -0.7004  -0.6714  -0.6468  -0.6164  -0.5997  -0.5831  -0.5671
    -0.5547  -0.5301  -0.4984  -0.4810  -0.4541  -0.4318  -0.4247  -0.4028
    -0.3944  -0.3908  -0.3513  -0.2965  -0.2621  -0.1405  -0.1098  -0.0580
    -0.0479  -0.0005   0.0536   0.0672   0.0838   0.1121   0.1290   0.1442
     0.1770   0.2121   0.2529   0.2595   0.3060   0.3480   0.4016   0.4299
     0.4604   0.4870   0.5253   0.5675   0.6010   0.6734   0.7070   0.7342
     0.7741   0.7909   0.8083   0.8609   0.8853   0.9015   0.9160   0.9552
     0.9943   1.0192   1.0326   1.0611   1.0845   1.1067   1.1772   1.1984
     1.2385   1.3358   1.3630   1.4214   1.4981   1.5290   1.5517   1.5708
     1.6391   1.6678   1.7200   1.7581   1.8110   1.8331   1.8827   1.8893
     1.9119   1.9284   1.9365   1.9890   2.0254   2.0390   2.0523   2.0865
     2.1081   2.1195   2.1933   2.2144   2.2484   2.3206   2.3432   2.3512
     2.3637   2.4093   2.4717   2.5487   2.6608   3.0503   3.0758   3.3428
     3.4757   3.5090   3.7015   3.7767   3.8558   4.0025   4.1753   4.4504
     4.4813   4.5247   4.7800   4.8248   5.0090   5.0926   5.1991   5.2670
     5.3860   5.4169   5.6403   5.8402   5.8741   6.1281   6.2993   6.4576
     6.5687   6.6158

          k = 0.4000-0.4619 0.0000 ( 88788 PWs)   bands (ev):

   -13.9338 -10.7846  -7.4790  -6.1605  -5.6943  -5.6356  -5.0756  -4.6342
    -4.5259  -4.4234  -4.2587  -3.9346  -3.8931  -3.7840  -3.7375  -3.7180
    -3.6150  -3.5822  -3.5106  -3.4956  -3.4775  -3.3934  -3.3816  -3.3789
    -3.3475  -3.3235  -3.2571  -3.2179  -3.1741  -3.1605  -3.1366  -3.1222
    -3.0359  -3.0250  -2.9175  -2.8960  -2.8601  -2.7870  -2.7667  -2.7313
    -2.7217  -2.6730  -2.6012  -2.5534  -2.5142  -2.4195  -2.3582  -2.3399
    -2.3119  -2.2631  -2.1990  -2.1436  -2.1156  -2.0621  -2.0527  -2.0063
    -1.9743  -1.9376  -1.9085  -1.8744  -1.8581  -1.8102  -1.7886  -1.7757
    -1.7331  -1.7151  -1.6755  -1.6692  -1.6446  -1.6094  -1.5534  -1.5278
    -1.4864  -1.4490  -1.4199  -1.3600  -1.3368  -1.3045  -1.2834  -1.2431
    -1.2249  -1.2100  -1.1536  -1.1402  -1.0970  -1.0779  -1.0373  -1.0148
    -1.0036  -0.9500  -0.9061  -0.8886  -0.8800  -0.8662  -0.7913  -0.7411
    -0.7138  -0.6905  -0.6563  -0.6435  -0.6236  -0.5981  -0.5748  -0.5552
    -0.5384  -0.5176  -0.5051  -0.4754  -0.4672  -0.4337  -0.4128  -0.3993
    -0.3875  -0.3687  -0.3523  -0.3017  -0.2451  -0.1816  -0.1420  -0.0958
    -0.0611   0.0151   0.0286   0.0560   0.0725   0.1031   0.1209   0.1719
     0.1933   0.2284   0.2452   0.2907   0.3165   0.3500   0.3671   0.4236
     0.4486   0.5157   0.5444   0.5994   0.6245   0.6791   0.7092   0.7652
     0.7682   0.7886   0.8112   0.8395   0.8713   0.8833   0.9332   0.9580
     0.9855   0.9986   1.0268   1.0584   1.0947   1.1249   1.1488   1.2064
     1.2838   1.3116   1.3729   1.4007   1.4779   1.5202   1.5589   1.5863
     1.6082   1.6833   1.7172   1.7488   1.8211   1.8283   1.8601   1.8930
     1.9147   1.9222   1.9602   2.0144   2.0373   2.0498   2.0608   2.0804
     2.0921   2.1327   2.1918   2.2323   2.2507   2.3102   2.3244   2.3452
     2.3668   2.3988   2.4819   2.5393   2.6274   3.0352   3.1251   3.2140
     3.4883   3.5593   3.7551   3.7983   3.8963   3.9826   4.0647   4.2728
     4.5083   4.5900   4.6383   4.9608   5.0405   5.1585   5.1799   5.2549
     5.4020   5.4953   5.5595   5.7449   5.9453   6.0413   6.2659   6.4300
     6.5458   6.6215

     the Fermi energy is     2.1350 ev

!    total energy              =  -27814.87381781 Ry

     total all-electron energy =  -1326874.931517 Ry
     estimated scf accuracy    <       0.00000025 Ry
     smearing contrib. (-TS)   =       0.00159186 Ry
     internal energy E=F+TS    =  -27814.87540967 Ry

     The total energy is F=E-TS. E is the sum of the following terms:
     one-electron contribution =  -27099.52778009 Ry
     hartree contribution      =   13856.39036796 Ry
     xc contribution           =    -906.71442366 Ry
     ewald contribution        =   11828.62453815 Ry
     one-center paw contrib.   =  -25493.64811203 Ry

     convergence has been achieved in  21 iterations

     negative rho (up, down):  1.307E-02 0.000E+00

     Forces acting on atoms (cartesian axes, Ry/au):

     atom    1 type  1   force =    -0.00215130    0.00077258   -0.00547069
     atom    2 type  1   force =     0.00211283   -0.00087872   -0.00718092
     atom    3 type  1   force =    -0.00066037    0.00094932   -0.00477705
     atom    4 type  1   force =    -0.00161432   -0.00001029   -0.00332937
     atom    5 type  1   force =     0.00125354   -0.00092841   -0.00489873
     atom    6 type  1   force =     0.00031460   -0.00054332   -0.00428719
     atom    7 type  1   force =    -0.00006233    0.00048985   -0.00301062
     atom    8 type  1   force =     0.00005953    0.00109859   -0.00314997
     atom    9 type  1   force =    -0.00019253    0.00105407   -0.00384575
     atom   10 type  1   force =    -0.00090463    0.00431846    0.00067584
     atom   11 type  1   force =    -0.00357151    0.00158126    0.00349537
     atom   12 type  1   force =     0.00293116    0.00233436    0.00479812
     atom   13 type  1   force =    -0.00057608   -0.00228248    0.00374044
     atom   14 type  1   force =    -0.00183184   -0.00064324    0.00837525
     atom   15 type  1   force =     0.00181816   -0.00163093    0.01050139
     atom   16 type  1   force =     0.00071451   -0.00100708    0.00006864
     atom   17 type  1   force =     0.00071835    0.00060520    0.00220446
     atom   18 type  1   force =    -0.00007950   -0.00339767    0.00622322
     atom   19 type  1   force =     0.00034697    0.00008915    0.00029301
     atom   20 type  1   force =    -0.00010401    0.00050248    0.00004509
     atom   21 type  1   force =     0.00025242   -0.00010946   -0.00002874
     atom   22 type  1   force =    -0.00004331   -0.00013430    0.00040502
     atom   23 type  1   force =    -0.00020966   -0.00001054    0.00013313
     atom   24 type  1   force =    -0.00004443    0.00003976    0.00050977
     atom   25 type  1   force =    -0.00031077   -0.00006537   -0.00007838
     atom   26 type  1   force =     0.00017166    0.00029539   -0.00024233
     atom   27 type  1   force =     0.00035526    0.00010296    0.00029458
     atom   28 type  1   force =     0.00001760    0.00030807    0.00030687
     atom   29 type  1   force =    -0.00008643    0.00032122   -0.00015722
     atom   30 type  1   force =     0.00005726   -0.00016079    0.00013288
     atom   31 type  1   force =     0.00006993    0.00041616    0.00002887
     atom   32 type  1   force =     0.00013319   -0.00019227   -0.00039406
     atom   33 type  1   force =    -0.00055454    0.00049575    0.00060012
     atom   34 type  1   force =    -0.00018632   -0.00035099    0.00019280
     atom   35 type  1   force =     0.00033445    0.00001748    0.00021148
     atom   36 type  1   force =    -0.00025274    0.00002392    0.00028770
     atom   37 type  2   force =     0.00112110   -0.00206570    0.00080291
     atom   38 type  2   force =    -0.00087327   -0.00114283   -0.00219835
     atom   39 type  2   force =     0.00289061    0.00374549    0.00694828
     atom   40 type  3   force =     0.00019074    0.00028289   -0.00026599
     atom   41 type  3   force =    -0.00056275    0.00082502   -0.00076954
     atom   42 type  3   force =    -0.00099123   -0.00511504   -0.00719036

     Total force =     0.012965     Total SCF correction =     0.001147

     negative rho (up, down):  1.307E-02 0.000E+00

     negative rho (up, down):  1.307E-02 0.000E+00

     negative rho (up, down):  1.307E-02 0.000E+00

     negative rho (up, down):  1.307E-02 0.000E+00

     negative rho (up, down):  1.307E-02 0.000E+00

     negative rho (up, down):  1.307E-02 0.000E+00

     negative rho (up, down):  1.307E-02 0.000E+00

     negative rho (up, down):  1.307E-02 0.000E+00

     negative rho (up, down):  1.307E-02 0.000E+00

     negative rho (up, down):  1.307E-02 0.000E+00

     negative rho (up, down):  1.307E-02 0.000E+00

     negative rho (up, down):  1.307E-02 0.000E+00

     negative rho (up, down):  1.307E-02 0.000E+00

     negative rho (up, down):  1.307E-02 0.000E+00

     negative rho (up, down):  1.307E-02 0.000E+00

     negative rho (up, down):  1.307E-02 0.000E+00

     negative rho (up, down):  1.307E-02 0.000E+00

     negative rho (up, down):  1.307E-02 0.000E+00

     negative rho (up, down):  1.307E-02 0.000E+00

     negative rho (up, down):  1.307E-02 0.000E+00

     negative rho (up, down):  1.307E-02 0.000E+00

     negative rho (up, down):  1.307E-02 0.000E+00

     negative rho (up, down):  1.307E-02 0.000E+00

     negative rho (up, down):  1.307E-02 0.000E+00

     negative rho (up, down):  1.307E-02 0.000E+00

     negative rho (up, down):  1.307E-02 0.000E+00

     negative rho (up, down):  1.307E-02 0.000E+00

     negative rho (up, down):  1.307E-02 0.000E+00

     negative rho (up, down):  1.307E-02 0.000E+00

     negative rho (up, down):  1.307E-02 0.000E+00

     negative rho (up, down):  1.307E-02 0.000E+00

     negative rho (up, down):  1.307E-02 0.000E+00

     negative rho (up, down):  1.307E-02 0.000E+00

     negative rho (up, down):  1.307E-02 0.000E+00
 BEEFens 2000 ensemble energies
             -0.606885182042044E+02
             -0.362053063830484E+01
             -0.158461085788109E+02
              0.429399640766451E+02
             -0.221056004246968E+02
             -0.205338954827909E+02
             -0.352207309035134E+02
             -0.865140874988367E+02
             -0.465201300920081E+02
             -0.472751791649857E+02
             -0.369360913527174E+02
              0.225870296691003E+01
              0.408660309835781E+01
              0.761802299106046E+01
              0.266121689749266E+01
              0.474994002764460E+02
             -0.208866081699992E+02
             -0.230437389655271E+02
              0.193184355469856E+02
             -0.112389825296104E+03
              0.536369785209863E+02
             -0.289826741678199E+02
             -0.334602071358731E+01
             -0.113984441852076E+02
             -0.885162463204051E+01
             -0.466030680040237E+01
              0.882843838777399E+02
             -0.186915392647290E+02
             -0.901736287751078E+01
             -0.518626406161996E+02
              0.815794057404744E+02
             -0.187455415182135E+02
             -0.375156729986521E+02
              0.249373658026987E+02
             -0.283589562138269E+01
              0.164140214596301E+02
             -0.484957423190889E+01
              0.108035197321902E+02
              0.288302035080137E+02
             -0.103297521578768E+03
              0.558322435974560E+02
              0.142373792169033E+02
             -0.170410936342773E+01
             -0.361691558840985E+02
              0.123191362885079E+02
             -0.146503354983568E+02
              0.398560186449160E+02
              0.364856574084175E+02
             -0.308127001715657E+02
             -0.275315770908560E+02
             -0.328526775456380E+02
             -0.352098221596574E+02
              0.136183471966875E+02
             -0.491061439557303E+02
              0.115514128556408E+02
              0.623117834883151E+02
              0.635365851777464E+02
              0.355699395067380E+02
              0.154172871348074E+02
              0.270443652986801E+02
              0.891343329536618E+02
              0.212833683972589E+02
             -0.548588605549662E+02
             -0.157079512977162E+02
             -0.235933683079563E+02
              0.630094760290844E+02
             -0.773528498713191E+02
             -0.671748075672529E+02
             -0.259270266673701E+02
             -0.644158827029753E+01
             -0.471173432066652E+02
              0.270664874660180E+02
              0.801190990052999E+01
              0.868243498500328E+01
             -0.397073384868848E+02
             -0.346941230867100E+02
             -0.541913621093718E+02
              0.390514013864929E+02
             -0.295919497195929E+02
              0.265037197523157E+02
             -0.713944112573633E+01
             -0.318125313947949E+02
             -0.576443182104956E+02
             -0.176826523390774E+02
             -0.907430686946884E+01
             -0.124863383634690E+02
              0.412089364463400E+02
              0.682638775146054E+02
             -0.385638395320009E+02
             -0.794830015601543E+02
             -0.219619888447550E+02
              0.111520428705521E+03
             -0.592270197243456E+02
              0.356213872047423E+02
             -0.958468352177715E+01
             -0.663324050594014E+02
              0.254456875181606E+02
              0.398086615950552E+02
             -0.198848122344899E+02
              0.400275014850324E+02
             -0.296106420277740E+02
             -0.478201081846196E+02
              0.866004194889385E+02
              0.454174462267322E+02
              0.336391427738964E+02
              0.146589773716367E+02
              0.205613464700294E+02
              0.856659331434089E+02
             -0.256596703364447E+02
              0.786886944104060E+01
             -0.142426697015213E+03
              0.181202038095419E+02
             -0.716383333508497E+02
              0.150852298018144E+02
              0.204592515678963E+02
             -0.332903072215456E+02
             -0.557244856024370E+02
              0.655099002648876E+01
             -0.304169630240007E+02
              0.308076550039334E+02
             -0.529850872007839E+02
              0.171278560113979E+01
             -0.357043484752982E+02
             -0.424836901582142E+01
             -0.103181903370967E+01
              0.181124127195720E+02
              0.142937725404227E+01
             -0.651605343396523E+01
              0.590301938595172E+02
              0.908277582381486E+02
              0.484209880349745E+02
              0.830435722465040E+02
             -0.115015557136247E+02
              0.143289493649839E+02
              0.541007448707495E+02
             -0.110822993557867E+02
             -0.735580636578442E+02
             -0.383987114792876E+02
             -0.521679487962313E+02
             -0.276654452944068E+02
              0.327234001877559E+02
             -0.116803296634327E+03
             -0.187112709496939E+02
              0.414220764426964E+02
             -0.386345488032608E+02
             -0.365410502870344E+02
              0.544122868266089E+02
              0.400774751001991E+02
             -0.353809277429268E+02
              0.137595382801587E+02
             -0.273094827280686E+02
              0.343194888593098E+02
              0.447088260185490E+01
              0.211218727273165E+02
             -0.884678285088981E+02
             -0.480170180881549E+02
             -0.993618674291497E+01
              0.324920588476929E+01
             -0.366724339525426E+02
              0.106032746564359E+03
             -0.230831639596615E+02
             -0.398528833048436E+02
              0.388995678139700E+02
             -0.494352385335239E+02
             -0.363410616589075E+02
              0.324902916346475E+02
              0.124556596835693E+02
              0.164444825754482E+02
              0.116539758161554E+02
             -0.132880757532681E+02
              0.225084112572850E+02
              0.590196374542869E+02
             -0.311675626745792E+02
              0.162591037741869E+02
              0.934342964250946E+02
              0.340714045416273E+02
             -0.728432718770466E+01
             -0.188664354521611E+02
              0.153355868980861E+03
             -0.164168981658262E+02
              0.363234064512695E+02
              0.194470871355190E+02
              0.361687951510264E+02
              0.892202898156345E+02
              0.543093416794791E+02
             -0.241739381017356E+01
              0.227780923577997E+02
              0.485029689501753E+02
              0.363586864695383E+02
             -0.525469018354841E+02
              0.935991351339169E+02
             -0.825444589583680E+02
             -0.198154121417672E+02
              0.582923096202119E+02
              0.675647999473730E+01
              0.791660637611585E+01
              0.340919154061760E+02
              0.299112584418943E+02
              0.353611821167547E+02
             -0.637763484225471E+02
              0.287810447554125E+01
             -0.297543455754218E+02
             -0.871755697639483E+01
             -0.146406624707879E+01
             -0.722810973865618E+01
             -0.414571297981502E+01
              0.859244437008434E+02
             -0.101076708045220E+02
             -0.276386986162790E+02
             -0.496214733753633E+01
              0.140047794116617E+02
             -0.564159140994956E+02
             -0.407166987983458E+02
             -0.382137457138849E+02
             -0.630355737117422E+02
             -0.169887878041218E+02
             -0.447562509047769E+02
              0.163374677157096E+02
             -0.239633634255894E+01
             -0.104368684889878E+02
             -0.934405980608216E+01
              0.807435585089365E+01
             -0.242829692384014E+02
              0.689257947547762E+02
             -0.807110137455260E+02
             -0.141059382027795E+02
             -0.174072070313697E+02
              0.181851787838587E+02
              0.214480277780689E+02
             -0.463997820971128E+02
             -0.202074963199533E+02
              0.440849579606152E+02
             -0.276086824475141E+02
              0.186958208118060E+02
              0.382751952128319E+02
             -0.322666490030940E+01
              0.114165565123071E+03
             -0.230247405859637E+02
             -0.341076781263620E+02
              0.578241755286820E+01
             -0.228208757554683E+02
              0.527813257786553E+02
             -0.337221181854109E+02
              0.106591054525311E+02
              0.640686517170221E+02
             -0.126174424243745E+02
              0.120236017501830E+03
              0.125869836854038E+03
             -0.649823996212644E+02
              0.590585969646010E+02
              0.166585736418410E+02
             -0.517742794151176E+02
              0.216278171899621E+02
              0.353832438014967E+02
              0.362740426208871E+02
              0.135436056762080E+01
              0.159665185557197E+02
              0.695564406469177E+02
             -0.246992233077053E+02
              0.181145806065335E+02
              0.738935433144902E+02
             -0.372561763836543E+02
             -0.129642074833874E+02
              0.508559188565048E+02
              0.297461049597088E+02
              0.780612901343790E+02
              0.222614970592703E+02
              0.624601030701098E+01
              0.280503899733131E+02
              0.383225751559482E+02
             -0.471586135876401E+02
              0.331685283302420E+01
              0.129625888656529E+02
              0.113788356574429E+02
              0.220486743677303E+02
             -0.574732063101519E+02
              0.366227491838371E+02
             -0.443981417873017E+02
             -0.347375607763290E+02
              0.177903095423020E+02
             -0.181370968791586E+02
              0.555202452168352E+02
             -0.256167042720044E+02
              0.266803306337684E+02
              0.368442880149375E+02
              0.829280947587417E+02
              0.574570191118240E+02
              0.461583303442453E+02
             -0.105659334133663E+02
             -0.391810141685278E+01
             -0.331889099181334E+02
              0.750656141376573E+02
              0.797310571986854E+02
              0.361949600750114E+02
             -0.191969947848104E+02
              0.511963018755196E+02
             -0.162799612658813E+02
              0.214760531857420E+02
              0.614496031689974E+02
              0.214928798037556E+01
             -0.104342894191618E+02
             -0.283054507663680E+02
             -0.511513525577922E+02
              0.945374342077400E+02
              0.439645770142031E+02
             -0.559190852323878E+02
             -0.963975177924922E+01
              0.249887550872572E+02
             -0.995706253054624E+01
              0.592217954725832E+02
              0.152339190820020E+02
              0.799453832737838E+02
              0.279398385819975E+02
             -0.264179919322822E+02
              0.249145143250415E+02
             -0.502912842357603E+01
             -0.323786886955284E+02
              0.133256491030803E+02
              0.205837143512543E+02
              0.932768132443186E+02
              0.797397479695316E+02
              0.550999467822200E+02
              0.730907491040907E+02
              0.798973720340345E+01
             -0.273664053018820E+02
              0.163219067106369E+02
             -0.368081408259694E+02
             -0.476255501058110E+02
             -0.563671363454745E+02
             -0.266628896323448E+02
             -0.109702115232537E+03
             -0.291443610119202E+02
             -0.837262059348095E+02
              0.210064658284595E+02
             -0.476982571182205E+02
              0.396914332816560E+02
             -0.941354390885089E+02
             -0.330106127926716E+02
              0.548646156633025E+02
              0.207789456691067E+02
             -0.830742529367044E+02
              0.631196942867139E+02
             -0.256800716298262E+02
              0.512499914552162E+02
             -0.242755528894235E+02
             -0.751365778061951E+02
              0.112085539608697E+02
             -0.611441956088433E+02
             -0.168110780371932E+02
             -0.147870465480461E+01
              0.418330422650969E+02
              0.127024177148204E+03
             -0.461779884287771E+02
             -0.362878213822236E+02
             -0.977369578197113E+00
             -0.130110059118622E+02
             -0.822756083980991E+02
             -0.596817071584130E+02
              0.517334122591522E+02
             -0.288952105784407E+02
              0.169409876549660E+02
             -0.489530768454483E+02
             -0.131927161197984E+02
             -0.437392106362415E+02
              0.565653713118582E+02
              0.151244411495283E+02
             -0.231686267380003E+02
             -0.126935228021474E+02
              0.666910451805705E+01
             -0.618746571082869E+01
              0.441672918773880E+02
             -0.252061466836403E+02
              0.275050762494823E+01
              0.339176849050488E+02
              0.171373718668906E+02
             -0.159689805086415E+02
              0.156294408148723E+03
              0.537901405198495E+02
              0.118098064381492E+01
              0.161867493855474E+02
             -0.614642095875543E+02
              0.315154523139906E+02
             -0.721936662505868E+02
             -0.252283453627203E+02
             -0.522665083050721E+02
             -0.220082401828171E+02
              0.569266845792674E+02
             -0.536994429532404E+02
              0.160921749823466E+02
             -0.407918822174190E+01
              0.388474246048872E+01
             -0.433930077683111E+02
             -0.478445318640985E+02
             -0.400187761404277E+01
             -0.425002517525250E+02
             -0.217337203977456E+02
             -0.438537684747356E+02
             -0.119296493536968E+02
             -0.358960364223185E+02
             -0.516554046170401E+02
              0.212682716691849E+02
             -0.209345077412999E+02
              0.187836496327333E+02
              0.973868950819092E+01
             -0.738076707571180E+02
             -0.548157904823518E+02
             -0.398214488993522E+02
              0.354198189827969E+02
              0.269986269598110E+01
             -0.626740133866841E+02
              0.585644253202942E+02
             -0.401172909215064E+02
              0.544952813391371E+02
             -0.289492029577877E+02
             -0.446010696811975E+02
              0.298728821846064E+02
             -0.657901048718385E+02
             -0.379748504421316E+02
              0.672626556356190E+02
              0.203950219240227E+02
             -0.359962384928682E+02
              0.489251851491615E+02
             -0.173936509101029E+02
             -0.322667443661293E+02
             -0.301758692701172E+02
             -0.500745284111165E+02
              0.249390214119789E+02
             -0.933035815906672E+02
             -0.840210386458883E+02
             -0.733813932522594E+01
             -0.306914590666427E+02
             -0.575645964005273E+02
              0.722076985490064E+02
              0.131552938275859E+03
             -0.360864295937996E+02
             -0.256242881983820E+01
             -0.636984445976734E+02
              0.650789945696521E+02
              0.170706859474525E+02
             -0.181471580981012E+02
             -0.410080611087693E+02
              0.148702767777832E+02
             -0.586264976527525E+02
             -0.197573172837050E+02
             -0.904833467924627E+02
              0.336968927898986E+02
              0.168979503321306E+02
              0.183115994806849E+01
             -0.705837651627201E+01
             -0.329546356740013E+02
             -0.757986359414366E+01
              0.125522838648035E+03
             -0.199175144537699E+02
             -0.437253393081587E+02
             -0.684078856952875E+02
              0.109152673658091E+02
             -0.342138238559124E+02
              0.590162260769975E+01
              0.261523117913570E+02
              0.102087160420657E+02
              0.277904326524416E+02
              0.119881478329791E+02
              0.629754113560870E+02
              0.316865407168820E+02
             -0.326577119477890E+02
              0.355699439933908E+02
              0.379597608611408E+02
              0.120975448372171E+02
              0.486800966150861E+02
             -0.224844879968030E+02
              0.765911089268410E+02
              0.172497419687324E+02
             -0.272266846240888E+02
             -0.721502961270219E+01
             -0.186302699378735E+02
              0.261879584361093E+02
             -0.234687494265159E+02
             -0.127511493060354E+00
             -0.848225690042977E+01
              0.810016500058242E+02
              0.500083020272178E+02
             -0.687288706262033E+02
             -0.475700684444206E+01
             -0.555533587679690E+02
             -0.159643851587618E+02
             -0.268171366232481E+02
              0.375483680848572E+01
              0.578337372079197E+00
             -0.257492691784375E+02
              0.814498758920161E+01
             -0.603344064033944E+01
             -0.128497440588780E+02
              0.859274305765846E+02
              0.181877100098811E+02
             -0.807028526630154E+02
             -0.458280556365660E+02
              0.945062936777484E+02
              0.277765938516293E+02
             -0.106900567452130E+02
              0.104563413833992E+03
             -0.195064517077904E+02
             -0.123062163313347E+02
             -0.538772181965555E+01
              0.107327493699875E+02
              0.272433149140858E+02
              0.780691661702127E+01
              0.305477255076714E+02
             -0.188082468209840E+02
             -0.303765832074066E+02
             -0.417755021928652E+02
             -0.476844950801570E+02
              0.463966076212511E+02
              0.126936354858847E+02
              0.387570994606496E+02
              0.133418290963217E+02
              0.855722870048111E+02
              0.156598577219585E+02
             -0.846180247069698E+02
             -0.334417898802875E+02
              0.133795538321391E+02
             -0.302910663871093E+02
              0.626651781631059E+02
             -0.886385402393330E+01
              0.148901016779353E+02
              0.497382081682490E+02
             -0.707537497418618E+02
              0.149762250330448E+03
              0.208643697701586E+02
              0.271506259855032E+02
              0.347624484358985E+02
              0.103573373863347E+02
             -0.158473504930600E+01
              0.358532232424632E+02
             -0.356968705816503E+02
              0.773344060866711E+02
              0.684854552465940E+02
             -0.405923902542091E+02
              0.149354469595625E+02
              0.670347968364778E+02
             -0.224054474223907E+02
              0.154445307654377E+02
              0.435117790156676E+02
              0.422368083394080E+02
             -0.784749878401126E+02
             -0.152595001269943E+02
             -0.356172760551432E+02
             -0.147554196834170E+01
             -0.764596255664085E+01
             -0.545568449535199E+01
             -0.180749196928061E+02
             -0.293643057898003E+02
              0.633327972006990E+01
              0.111736598793794E+02
              0.535654831945917E+02
             -0.390302934062770E+02
              0.374399650747670E+02
              0.438505088528084E+02
             -0.186721249155642E+02
              0.872304417989342E+02
             -0.698065036513309E+02
             -0.103197684217106E+03
             -0.660286785805178E+01
             -0.267519617118523E+01
              0.385983815748580E+01
              0.789540155436042E+02
             -0.107086082385995E+02
              0.416748827110019E+02
              0.443692955889850E+02
              0.385487550509484E+02
             -0.994954433662042E+01
              0.627782048138080E+02
             -0.133665732712481E+02
             -0.307485156359206E+02
             -0.479248790972940E+02
              0.588956294184602E+01
              0.369603907894298E+02
             -0.603056061722728E+01
              0.393168571118100E+02
             -0.176860128568427E+01
              0.655404034478322E+02
              0.187507463097143E+02
              0.999136060010716E+01
             -0.121654758967139E+02
              0.332187150394350E+02
              0.362884253551789E+02
              0.232812757077392E+02
             -0.521016461842549E+00
             -0.550649034622607E+02
              0.260824607650987E+02
              0.175263720695110E+02
              0.402699928647274E+02
              0.272300086673647E+02
              0.372699239141234E+02
             -0.606973235405476E+01
              0.251007940316196E+02
             -0.298719288158914E+02
             -0.196479012748330E+01
             -0.569316252496936E+02
             -0.308268125607668E+02
              0.378908183997733E+02
             -0.935725881384328E+02
              0.294455216444152E+02
              0.183949077683033E+02
              0.840295119590231E+02
             -0.300567743157480E+02
              0.329409781363834E+02
             -0.137836060298661E+02
             -0.464132875082496E+02
             -0.761940903775663E+02
             -0.525923265162710E+01
             -0.859978127551808E+02
              0.199793739092481E+02
             -0.247495211380620E+02
              0.305933437558437E+02
              0.236951737585301E+02
             -0.241042480800868E+02
             -0.265243265345990E+02
              0.391143968176149E+02
             -0.588193327646328E+02
             -0.116583421462628E+02
             -0.196087827446492E+02
              0.212655984170794E+02
             -0.891271401712191E+01
              0.362966781839228E+01
             -0.200597982859289E+02
              0.558911164567817E+02
             -0.439499499426668E+02
              0.785855406062910E+01
              0.585315522369029E+02
             -0.323411759743762E+02
              0.360250862304767E+01
             -0.881902035613030E+01
             -0.669506133173109E+02
             -0.482705234241883E+02
             -0.861200574263133E+01
              0.240837292267753E+02
              0.302462553872107E+02
              0.858165783501329E+01
             -0.416689327859444E+01
              0.151874237193244E+02
             -0.440017827751879E+02
              0.333617824405007E+01
             -0.531184806531331E+02
             -0.324902117125638E+02
              0.474874281412872E+02
             -0.295271054997163E+02
              0.622517161833753E+02
             -0.214554282876492E+02
              0.353835698458865E+02
              0.241694634075257E+02
             -0.644178979014929E+02
             -0.280523824994553E+02
              0.934022814354529E+01
             -0.371816935100727E+02
             -0.339773566152539E+02
             -0.830284055501813E+02
             -0.539396303133508E+02
             -0.510505282375493E+02
             -0.415764893048420E+02
             -0.989631003991207E+00
              0.997301283954044E+01
              0.103508564281250E+01
              0.153310450574160E+02
             -0.549473427405522E+02
              0.141709608206949E+02
              0.256596148972947E+02
             -0.666988123289192E+02
             -0.702115101540784E+02
             -0.431334398702078E+02
             -0.172002308455309E+02
              0.178480046509605E+02
              0.454867754325073E+01
             -0.426265127752152E+02
              0.366338461743392E+02
             -0.216278833906742E+02
              0.517623123055182E+02
             -0.887494273153548E+02
              0.597833724530886E+02
             -0.213077661199127E+01
             -0.368404376951576E+02
             -0.216637362101663E+02
              0.472058131770847E+01
              0.374927462021216E+02
             -0.756329623746558E+02
             -0.120901377354008E+02
             -0.216587789057707E+02
              0.511104013512424E+02
              0.864954010088243E+02
             -0.965380184707565E+02
              0.944312220972473E+02
              0.467965077044415E+02
             -0.725685743999673E+02
             -0.366650140471898E+02
              0.752072908720687E+02
              0.632166090497368E+02
             -0.180889604639553E+02
             -0.464679654748170E+01
              0.732787859140454E+01
              0.649260267284549E+02
             -0.508605114827633E+02
              0.158391239347851E+02
             -0.472952506175042E+01
              0.347873856372125E+02
             -0.747072497436707E+02
             -0.647714773562672E+01
             -0.351079550221609E+02
              0.460842480354427E+02
              0.468977014785194E+02
             -0.862059453015278E+02
             -0.487158060043663E+02
             -0.256305562658879E+02
             -0.339501289410447E+02
             -0.109322514004756E+02
             -0.242916279970299E+02
              0.427447657654591E+02
              0.401362305987432E+02
             -0.564383987657459E+01
             -0.416364693936973E+02
             -0.850618038565015E+02
              0.443379277419377E+02
             -0.523360846617125E+02
[...]
              0.283550921626363E+02
              0.141827609418712E+03
              0.242269296289820E+02
              0.122569876229816E+02
             -0.464581668626200E+02
             -0.637789920036364E+02
             -0.188849075780362E+02
              0.329412070377669E+02
             -0.426670128432806E+01
              0.189744420872352E+02
              0.336163287362515E+02
             -0.586817132275584E+02
              0.222341606754234E+02
              0.582185103493641E+02
              0.553110278445165E+02
             -0.421320620823025E+01
             -0.136935501894254E+01
             -0.993225165541079E+01
             -0.482252283752172E+02
             -0.675153918715610E+02
              0.785520480074354E+02
             -0.524304242065929E+01
             -0.587835802116070E+02
              0.172301116758837E+01
             -0.205324887638907E+02
              0.938386611732651E+02
             -0.216522670965567E+02
             -0.353689021307575E+02
              0.335162014822224E+02
             -0.145696444804499E+02
              0.389624283691115E+02
             -0.238283894658116E+01
              0.101092340503996E+03
              0.489766897338803E+02
             -0.509292113037715E+01
             -0.322019277593771E+02
              0.232270036194168E+02
             -0.528509928742012E+02
             -0.127916466118557E+02
              0.585737795481118E+02
             -0.287633528508512E+02
             -0.438406321336037E+02
             -0.223286046812331E+02
              0.518819382816271E+02
              0.124903135338755E+02
             -0.848891386099372E+02
              0.303799849181625E+02
              0.151874075878554E+02
              0.576227438994823E+01
             -0.513439408454119E+02
             -0.377167344962459E+01
              0.323177098365908E+02
              0.512773311853200E+02
              0.632532145098675E+02
              0.228990651774879E+02
              0.786815077205972E+00
             -0.498003927567166E+02
             -0.509907656457490E+02
             -0.747894320145182E+02
             -0.614095753604272E+01
              0.308895914592607E+02
             -0.376919862852253E+01
              0.546929338314882E+02
             -0.317958816446385E+02
              0.166690261039020E+02
             -0.102592066176410E+02
             -0.289374893682537E+02
              0.585521971984571E+02
              0.792258577594123E+01
              0.604156797324908E+02
              0.508234739524369E+01
              0.264983622259234E+02
             -0.192737820416302E+02
              0.586175849112341E+02
             -0.111268367591973E+02
             -0.140191825396688E+00
             -0.790148128931585E+02
             -0.128312190801502E+02
              0.719053239320019E+02
              0.673217845124221E+02
              0.251837315432820E+02
             -0.130518070800514E+02
              0.343144667983654E+01
             -0.173558462653764E+02
             -0.206769487615435E+01
              0.907739968911235E+02
              0.125503852863596E+01
             -0.190447979049328E+02
             -0.110757521049260E+03
             -0.552645667849026E+02
             -0.374926034359559E+02
             -0.658635079687377E+02
             -0.555417111270903E+02
             -0.682578418492024E+02
             -0.446985164042376E+02
             -0.410841113868134E+02
             -0.451949310452630E+02
              0.483388408144992E+02
             -0.294210014232431E+02
             -0.995548721507115E+02
              0.418793577336631E+02
             -0.259920259010483E+02
             -0.790921013927075E+02
              0.943902997512032E+02
             -0.219652041820079E+02
              0.228122208657066E+02
              0.455080615533389E+02
             -0.135340025226122E+01
              0.254351266945833E+02
              0.470469961663321E+01
              0.425598269116577E+00
             -0.150411421604629E+02
             -0.715468105462681E+02
              0.133126240595966E+02
             -0.129374974539252E+03
              0.624021290894352E+02
             -0.440515397692415E+02
             -0.163114106929748E+02
             -0.158367539983684E+02
              0.713731999909327E+01
             -0.227695513468120E+02
              0.297226922680633E+02
             -0.520673866511640E+02
              0.367110696454930E+02
              0.370619741978981E+02
              0.168496724597291E+02
              0.100307849801360E+02
              0.197827791497008E+02
              0.621748700187624E+01
              0.310404921619227E+02
             -0.797105807932292E+01
             -0.592167507759671E+02
              0.756822309439610E+01
             -0.152647814977595E+02
             -0.191998811928403E+01
              0.506075431381495E+02
             -0.826733974526895E+02
             -0.151856398956664E+01
              0.577453677951155E+00
              0.995608709824012E+01
              0.318461551408070E+02
             -0.123524247104633E+02
              0.835870771586228E+02
              0.487660266634106E+02
             -0.183298158020550E+02
             -0.957657352398201E+01
              0.106267460605594E+01
              0.769634448238414E+02
             -0.586320140477220E+02
             -0.105760440108856E+03
              0.309071374648396E+02
             -0.162965952214065E+02
             -0.139265858596283E+02
              0.130632028285129E+02
              0.768478198283430E+02
              0.464036645616172E+02
             -0.153446771474643E+02
             -0.502993079924914E+02
             -0.549953347775489E+01
              0.306380701492175E+02
             -0.111551510774827E+02
             -0.755758351833820E+02
             -0.270899392806018E+01
             -0.889884513360999E+02
             -0.475702636520114E+02
              0.768411832333011E+02
             -0.483418420437217E+02
             -0.636422186893789E+02
             -0.514173760708633E+02
             -0.349755110418296E+02
              0.340665521873617E+02
              0.821518208762880E+02
             -0.355662252581493E+01
              0.276587232555903E+02
             -0.183726742051489E+02
             -0.693935193422428E+02
              0.464923453233069E+02
             -0.444907447861160E+02
              0.321748258478472E+02
              0.376218505834695E+02
             -0.655837727549840E+01
              0.390518881584970E+02
              0.438315371675611E+02
              0.100654757819827E+03
             -0.156004106307856E+02
             -0.456060249763457E+02
             -0.612833580209337E+02
             -0.124044906827447E+02
             -0.232901400212811E+02
              0.102995271120461E+03
             -0.448775146811564E+02
              0.105286640646036E+02
              0.972301165030063E+01
             -0.264554616739910E+02
             -0.798587809930062E+02
             -0.698303721435923E+01
              0.979746814902281E+02
              0.938971576310048E+01
              0.809172911704849E+01
             -0.526938761512997E+02
             -0.605488292999346E+02
             -0.564260762846357E+01
              0.500413757754707E+02
             -0.221826816267841E+02
              0.107962033655706E+03
             -0.435259037892677E+02
              0.146378763805191E+02
             -0.224230194974170E+02
             -0.718359517067228E+02
              0.168675791406497E+01
             -0.501677580874584E+02
             -0.760628383980147E+02
              0.615294174690189E+01
              0.237595024523898E+01
              0.514044103264063E+02
              0.187295428627465E+02
             -0.323442502746910E+02
              0.229971970710845E+02
             -0.810758123379394E+02
             -0.521769807450777E+02
              0.901666363962862E+02
              0.142436230301511E+02
             -0.187996966267979E+02
             -0.352337664413826E+02
             -0.268492505303334E+01
             -0.587849517427651E+01
              0.829768755139029E+02
              0.417474752494699E+02
             -0.166107562843488E+02
             -0.121903974351882E+02
             -0.427594685528431E+02
             -0.200636079832036E+02
             -0.669999073540985E+02
              0.459447581320888E+02
              0.545299910808035E+01
              0.144842446285204E+02
              0.156097401346588E+02
             -0.571247283749447E+00
             -0.168407545483905E+02
             -0.308287450001214E+01
             -0.100422700123024E+03
             -0.229647964062019E+02
             -0.763568123337001E+01
             -0.947878702882275E+01
              0.546531847149233E+02
              0.623634531838691E+02
              0.164882728873637E+02
             -0.970454448648624E+02
              0.647590027058418E+02
             -0.215054664322357E+02
             -0.376987208593266E+02
             -0.864119263189206E+02
             -0.386846741287839E+02
              0.564348077339509E+02
              0.243963934368619E+02
              0.512605649605871E+01
              0.292241217564741E+02
             -0.564821979582488E+02
             -0.422289819035083E+02
              0.515164799946200E+02
              0.387260637814691E+02
              0.518865935865485E+02
             -0.122998938576697E+01
              0.684084107420728E+01
              0.569417054212544E+02
              0.962563352188864E+02
             -0.300228870228202E+02
              0.322663654612390E+02
             -0.118429790905794E+02
             -0.412027033721896E+02
             -0.314102365708079E+02
             -0.300046731951870E+02
             -0.131363000388534E+02
             -0.523445640907610E+02
             -0.217186270067907E+02
             -0.141132797505042E+03
              0.368669437307356E+02
              0.206933829957550E+02
             -0.393710952285030E+01
             -0.379919239611060E+02
             -0.204190551669990E+02
             -0.526780006457842E+02
              0.150970704560021E+02
              0.819862752135283E+02
             -0.252213614864643E+02
             -0.162952905779046E+02
              0.238054879564330E+02
             -0.489141319851868E+02
              0.880331512302132E+02
              0.154354357529801E+02
              0.226261946963263E+02
              0.490293855070407E+02
              0.321529524881072E+01
              0.542141201319394E+02
              0.143013869570965E+02
             -0.106435387157149E+02
              0.733256009581515E+01
              0.813256347315473E+00
              0.727212476470371E+02
              0.100896567390380E+02
              0.120462579561242E+02
             -0.129932454315855E+02
              0.132188783379486E+02
             -0.911097320945102E+02
             -0.325695176015950E+02
             -0.457401396730029E+02
              0.485272411982968E+02
             -0.291134087212553E+02
             -0.658331938910579E+02
              0.538326175916530E+02
             -0.122041655745716E+02
              0.439951898974145E+02
             -0.898552655093707E+02
              0.231847083510228E+02
              0.858122904495650E+01
              0.583231219423499E+01
             -0.833203437715287E+01
             -0.903383169894596E+01
              0.479260978767540E+02
              0.200396792648343E+01
             -0.475036611855470E+02
             -0.176051263338884E+02
              0.276644152621035E+02
             -0.117894303580949E+03
             -0.929563390846696E+02
              0.396842840502353E+01
              0.117657486094012E+02
             -0.413038412305231E+02
             -0.387305972831280E+01
              0.112097181797619E+03
              0.306585486221552E+02
             -0.571455257879194E+02
              0.925565820017226E+01
             -0.965544930177410E+01
              0.105459727205028E+02
             -0.337489951037593E+02
              0.195336349848994E+02
              0.284510889310628E+02
             -0.301412646454003E+01
              0.108159967584764E+03
             -0.140149603349111E+02
             -0.315901619709825E+02
              0.143056267536074E+02
              0.466541443718897E+02
             -0.355675716465716E+02
             -0.317937758704304E+01
              0.964548252590948E+02
             -0.465183088582751E+01
              0.621508895716544E+02
              0.135369550759444E+02
             -0.903179972677013E+01
             -0.305273550825268E+02
              0.566521835385828E+02
             -0.514248763235802E+02
             -0.220288421401085E+01
             -0.170081474634874E+02
             -0.405072586842888E+02
              0.184717808641435E+02
              0.239039104144792E+02
              0.115926972922366E+02
              0.729452674241543E+00
             -0.384541935218512E+02
              0.215549756228356E+02
             -0.674527243503417E+01
             -0.246612248938756E+02
             -0.210591620539067E+02
              0.203415226842628E+02
             -0.594143350212687E+01
             -0.349132673436896E+02
             -0.106593827686944E+03
              0.102889259522289E+02
              0.248596358302002E+02
             -0.387160225685289E+02
             -0.210927864207798E+02
              0.806793379727504E+02
              0.651040883433970E+01
              0.310822720071488E+02
              0.391133037542360E+01
              0.321904065437524E+02
              0.644784851998531E+01
             -0.372947205933981E+02
             -0.231442467839278E+01
              0.875890062372588E+01
              0.273832342124006E+02
              0.781823209689769E+02
              0.507433653025529E+02
              0.175870618639919E+00
              0.168807841112471E+02
              0.613039131542958E+02
              0.235900310819657E+02
             -0.752799326998271E+02
             -0.273668193790767E+02
              0.150899495402375E+02
              0.562496710075351E+01
              0.255077740251631E+02
             -0.547733664136082E+02
              0.899063809965321E+01
              0.385723106734687E+02
              0.498005700535739E+02
             -0.434939521175585E+02
             -0.690118166014628E+01
             -0.208086820126556E+01
             -0.133925991799314E+02
             -0.365647381490457E+02
             -0.215168428659478E+02
             -0.202186124179998E+01
              0.792594086544693E+01
              0.421271645528184E+02
             -0.308447011585338E+02
              0.826007533550044E+02
              0.327480717609213E+02
              0.219579181830498E+02
              0.332823256526303E+02
              0.323124654882757E+02
              0.345954012074760E+02
              0.537174917833723E+02
             -0.433807737336643E+02
              0.619426218717010E+02
             -0.112235927365793E+03
              0.307408294545755E+02
             -0.106513726445057E+03
              0.854664588343705E+02
              0.690541439178853E+02
             -0.109871867325763E+02
             -0.493198103748182E+02
             -0.429383531017847E+02
             -0.623420029916532E+02
             -0.628653150541614E+02
              0.551563866223906E+02
              0.405480122475279E+02
              0.236886456817459E+02
              0.373827937367973E+02
              0.403163043675274E+02
             -0.382116649359456E+02
             -0.197842332175982E+02
              0.586235270291339E+02
             -0.115868680766842E+02
              0.551548973346876E+02
              0.699351133529269E+02
             -0.553598282913508E+01
             -0.706186200555987E+02
             -0.918382593382717E+00
             -0.246228610328899E+01
             -0.882942510393787E+01
             -0.178186832429918E+01
             -0.652853431761665E+02
             -0.210829622640012E+02
              0.538842618162558E+01
              0.897563895048393E+01
              0.468844131449978E+02
             -0.397811450940666E+02
              0.657334140559457E+02
             -0.425270096973297E+02
              0.210287932638031E+02
              0.350375231385588E+02
 
 BEEF-vdW xc energy contributions
           1 :   -782.955636999164     
           2 :    719.491261120488     
           3 :   -609.426590101729     
           4 :    479.587578640340     
           5 :   -357.435729977776     
           6 :    262.911100168660     
           7 :   -203.820007104149     
           8 :    175.729089461190     
           9 :   -165.966456776104     
          10 :    159.811731012782     
          11 :   -146.332409063847     
          12 :    121.664034195136     
          13 :   -88.8774151427065     
          14 :    55.0515147670650     
          15 :   -27.2496976555431     
          16 :    9.22767435664116     
          17 :  -0.154914430098302     
          18 :   -4.40280126257778     
          19 :    9.96706420336898     
          20 :   -20.4252669514535     
          21 :    36.3565696505572     
          22 :   -55.0619577964230     
          23 :    72.1097775600796     
          24 :   -83.5510667439048     
          25 :    87.7156846732724     
          26 :   -85.8048217356829     
          27 :    81.1041174493583     
          28 :   -77.2915951712771     
          29 :    76.6945024778332     
          30 :   -79.3183248277631     
          31 :   -85.8984258278894     
          32 :   -65.8905518801587     

     Writing output data file ./pwscf.save/
 
     init_run     :    338.75s CPU    343.31s WALL (       1 calls)
     electrons    :  14003.41s CPU  14137.49s WALL (       1 calls)
     forces       :    100.87s CPU    102.01s WALL (       1 calls)

     Called by init_run:
     wfcinit      :    290.69s CPU    294.32s WALL (       1 calls)
     potinit      :     45.20s CPU     45.51s WALL (       1 calls)
     hinit0       :      1.11s CPU      1.14s WALL (       1 calls)

     Called by electrons:
     c_bands      :  11626.21s CPU  11731.02s WALL (      22 calls)
     sum_band     :   1691.09s CPU   1704.04s WALL (      22 calls)
     v_of_rho     :    136.18s CPU    140.59s WALL (      22 calls)
     newd         :     31.74s CPU     43.74s WALL (      22 calls)
     PAW_pot      :    146.53s CPU    146.54s WALL (      22 calls)
     mix_rho      :    417.51s CPU    418.23s WALL (      22 calls)
     vdW_kernel   :     33.47s CPU     33.47s WALL (       1 calls)

     Called by c_bands:
     init_us_2    :     81.32s CPU     81.61s WALL (     598 calls)
     cegterg      :  10761.54s CPU  10866.07s WALL (     286 calls)

     Called by *egterg:
     cdiaghg      :    111.50s CPU    111.54s WALL (    1454 calls)
     h_psi        :   6954.97s CPU   6991.88s WALL (    1480 calls)
     s_psi        :   1137.91s CPU   1138.06s WALL (    1480 calls)
     g_psi        :     16.56s CPU     16.57s WALL (    1181 calls)

     Called by h_psi:
     h_psi:calbec :   1072.76s CPU   1073.06s WALL (    1480 calls)
     vloc_psi     :   4717.58s CPU   4719.53s WALL (    1480 calls)
     add_vuspsi   :   1138.41s CPU   1138.54s WALL (    1480 calls)

     General routines
     calbec       :   1587.38s CPU   1587.72s WALL (    1818 calls)
     fft          :     50.28s CPU     50.31s WALL (    3342 calls)
     ffts         :    135.98s CPU    136.01s WALL (    9616 calls)
     fftw         :   4869.38s CPU   4870.70s WALL (  362100 calls)
 
     Parallel routines
 
     PWSCF        :      4h 3m CPU      4h 5m WALL

 
   This run was terminated on:  14:18:16   4Jan2023            

=------------------------------------------------------------------------------=
   JOB DONE.
=------------------------------------------------------------------------------=
