
     Program PWSCF v.6.7MaX starts on 20May2022 at 17:59:52 

     This program is part of the open-source Quantum ESPRESSO suite
     for quantum simulation of materials; please cite
         "P. Giannozzi et al., J. Phys.:Condens. Matter 21 395502 (2009);
         "P. Giannozzi et al., J. Phys.:Condens. Matter 29 465901 (2017);
          URL http://www.quantum-espresso.org", 
     in publications or presentations arising from this work. More details at
     http://www.quantum-espresso.org/quote

     Parallel version (MPI), running on     1 processors

     MPI processes distributed on     1 nodes
     Reading input from chchch3-ensemble.in
Warning: card &CELL ignored
Warning: card / ignored

     Current dimensions of program PWSCF are:
     Max number of different atomic species (ntypx) = 10
     Max number of k-points (npk) =  40000
     Max angular momentum in pseudopotentials (lmaxx) =  3
     file Pt.pbe-n-kjpaw_psl.1.0.0.UPF: wavefunction(s)  6S 5D renormalized
     file C.pbe-n-kjpaw_psl.1.0.0.UPF: wavefunction(s)  2S 2P renormalized
     file H.pbe-kjpaw_psl.1.0.0.UPF: wavefunction(s)  1S renormalized

     **************************************************************************
     Initializing libbeef V0.1.2 with the BEEF-vdW functional.
     Citation: Wellendorff et al., PRB 85, 235149 (2012).
     **************************************************************************


     IMPORTANT: XC functional enforced from input :
     Exchange-correlation= BEEF-VDW
                           (   1   4  43  14   2   0   0)
     Any further DFT definition will be discarded
     Please, verify this is what you really want


     Subspace diagonalization in iterative solution of the eigenvalue problem:
     a serial algorithm will be used

 
     G-vector sticks info
     --------------------
     sticks:   dense  smooth     PW     G-vecs:    dense   smooth      PW
     Sum        4267    4267   1159               763103   763103  107485
 


     bravais-lattice index     =            0
     lattice parameter (alat)  =      16.0349  a.u.
     unit-cell volume          =   12148.8546 (a.u.)^3
     number of atoms/cell      =           44
     number of atomic types    =            3
     number of electrons       =       377.00
     number of Kohn-Sham states=          227
     kinetic-energy cutoff     =      60.0000  Ry
     charge density cutoff     =     240.0000  Ry
     scf convergence threshold =      1.0E-06
     mixing beta               =       0.7000
     number of iterations used =            8  local-TF  mixing
     Exchange-correlation= BEEF-VDW
                           (   1   4  43  14   2   0   0)

     celldm(1)=  16.034858  celldm(2)=   0.000000  celldm(3)=   0.000000
     celldm(4)=   0.000000  celldm(5)=   0.000000  celldm(6)=   0.000000

     crystal axes: (cart. coord. in units of alat)
               a(1) = (   1.000000   0.000000   0.000000 )  
               a(2) = (   0.500000   0.866025   0.000000 )  
               a(3) = (   0.000000   0.000000   3.402588 )  

     reciprocal axes: (cart. coord. in units 2 pi/alat)
               b(1) = (  1.000000 -0.577350  0.000000 )  
               b(2) = (  0.000000  1.154701  0.000000 )  
               b(3) = (  0.000000  0.000000  0.293894 )  


     PseudoPot. # 1 for Pt read from file:
     /users/bkreitz1/quantum-espresso/potentials/Pt.pbe-n-kjpaw_psl.1.0.0.UPF
     MD5 check sum: 04dc8a03c51ece93fc7b5889c2958091
     Pseudo is Projector augmented-wave + core cor, Zval = 10.0
     Generated using 'atomic' code by A. Dal Corso  v.6.7MaX
     Shape of augmentation charge: PSQ
     Using radial grid of 1277 points,  6 beta functions with: 
                l(1) =   0
                l(2) =   0
                l(3) =   1
                l(4) =   1
                l(5) =   2
                l(6) =   2
     Q(r) pseudized with 0 coefficients 


     PseudoPot. # 2 for C  read from file:
     /users/bkreitz1/quantum-espresso/potentials/C.pbe-n-kjpaw_psl.1.0.0.UPF
     MD5 check sum: a169b0ebad56f5ec0d79c4633f80bf22
     Pseudo is Projector augmented-wave + core cor, Zval =  4.0
     Generated using 'atomic' code by A. Dal Corso  v.6.7MaX
     Shape of augmentation charge: PSQ
     Using radial grid of 1073 points,  4 beta functions with: 
                l(1) =   0
                l(2) =   0
                l(3) =   1
                l(4) =   1
     Q(r) pseudized with 0 coefficients 


     PseudoPot. # 3 for H  read from file:
     /users/bkreitz1/quantum-espresso/potentials/H.pbe-kjpaw_psl.1.0.0.UPF
     MD5 check sum: ae98473e6dc62675f0d0baffdab24f65
     Pseudo is Projector augmented-wave, Zval =  1.0
     Generated using 'atomic' code by A. Dal Corso  v.6.7MaX
     Shape of augmentation charge: PSQ
     Using radial grid of  929 points,  2 beta functions with: 
                l(1) =   0
                l(2) =   0
     Q(r) pseudized with 0 coefficients 


     atomic species   valence    mass     pseudopotential
        Pt            10.00   195.08400     Pt( 1.00)
        C              4.00    12.01100     C ( 1.00)
        H              1.00     1.00800     H ( 1.00)

     No symmetry found



   Cartesian axes

     site n.     atom                  positions (alat units)
         1           Pt  tau(   1) = (   0.0000000   0.0000000   1.0017346  )
         2           Pt  tau(   2) = (   0.3333333   0.0000000   1.0017346  )
         3           Pt  tau(   3) = (   0.6666667   0.0000000   1.0017346  )
         4           Pt  tau(   4) = (   0.1666667   0.2886751   1.0017346  )
         5           Pt  tau(   5) = (   0.5000000   0.2886751   1.0017346  )
         6           Pt  tau(   6) = (   0.8333333   0.2886751   1.0017346  )
         7           Pt  tau(   7) = (   0.3333333   0.5773503   1.0017346  )
         8           Pt  tau(   8) = (   0.6666667   0.5773503   1.0017346  )
         9           Pt  tau(   9) = (   1.0000000   0.5773503   1.0017346  )
        10           Pt  tau(  10) = (   0.1666667   0.0962250   1.2739001  )
        11           Pt  tau(  11) = (   0.5000000   0.0962250   1.2739001  )
        12           Pt  tau(  12) = (   0.8333333   0.0962250   1.2739001  )
        13           Pt  tau(  13) = (   0.3333333   0.3849002   1.2739001  )
        14           Pt  tau(  14) = (   0.6666667   0.3849002   1.2739001  )
        15           Pt  tau(  15) = (   1.0000000   0.3849002   1.2739001  )
        16           Pt  tau(  16) = (   0.5000000   0.6735753   1.2739001  )
        17           Pt  tau(  17) = (   0.8333333   0.6735753   1.2739001  )
        18           Pt  tau(  18) = (   1.1666667   0.6735753   1.2739001  )
        19           Pt  tau(  19) = (  -0.0007752   0.1917224   1.5424316  )
        20           Pt  tau(  20) = (   0.3326417   0.1916185   1.5415802  )
        21           Pt  tau(  21) = (   0.6665080   0.1919348   1.5425791  )
        22           Pt  tau(  22) = (   0.1659532   0.4805613   1.5419629  )
        23           Pt  tau(  23) = (   0.5012734   0.4815198   1.5460390  )
        24           Pt  tau(  24) = (   0.8307597   0.4815387   1.5471459  )
        25           Pt  tau(  25) = (   0.3332177   0.7691729   1.5426109  )
        26           Pt  tau(  26) = (   0.6660016   0.7668931   1.5467390  )
        27           Pt  tau(  27) = (   0.9993608   0.7689888   1.5428246  )
        28           Pt  tau(  28) = (  -0.0012469  -0.0008257   1.8170764  )
        29           Pt  tau(  29) = (   0.3320270  -0.0008752   1.8160012  )
        30           Pt  tau(  30) = (   0.6654293  -0.0016459   1.8164824  )
        31           Pt  tau(  31) = (   0.1654718   0.2871967   1.8166535  )
        32           Pt  tau(  32) = (   0.4981814   0.2860591   1.8146952  )
        33           Pt  tau(  33) = (   0.8325875   0.2868680   1.8173144  )
        34           Pt  tau(  34) = (   0.3308851   0.5758324   1.8155035  )
        35           Pt  tau(  35) = (   0.6645438   0.5752972   1.8427736  )
        36           Pt  tau(  36) = (   0.9990576   0.5755302   1.8166655  )
        37           C   tau(  37) = (   0.6584760   0.5771778   2.0793980  )
        38           C   tau(  38) = (   0.5578536   0.4996990   2.1731281  )
        39           C   tau(  39) = (   0.5635012   0.5079973   2.3502586  )
        40           H   tau(  40) = (   0.7505471   0.6514139   2.1292815  )
        41           H   tau(  41) = (   0.4658085   0.4254537   2.1236907  )
        42           H   tau(  42) = (   0.6571220   0.5858483   2.3917182  )
        43           H   tau(  43) = (   0.4512087   0.5508516   2.3972866  )
        44           H   tau(  44) = (   0.5829518   0.3907518   2.4018315  )

     number of k points=    13  Marzari-Vanderbilt smearing, width (Ry)=  0.0200
                       cart. coord. in units 2pi/alat
        k(    1) = (   0.0000000   0.0000000   0.0000000), wk =   0.0800000
        k(    2) = (   0.0000000   0.2309401   0.0000000), wk =   0.1600000
        k(    3) = (   0.0000000   0.4618802   0.0000000), wk =   0.1600000
        k(    4) = (   0.2000000  -0.1154701   0.0000000), wk =   0.1600000
        k(    5) = (   0.2000000   0.1154701   0.0000000), wk =   0.1600000
        k(    6) = (   0.2000000   0.3464102   0.0000000), wk =   0.1600000
        k(    7) = (   0.2000000  -0.5773503   0.0000000), wk =   0.1600000
        k(    8) = (   0.2000000  -0.3464102   0.0000000), wk =   0.1600000
        k(    9) = (   0.4000000  -0.2309401   0.0000000), wk =   0.1600000
        k(   10) = (   0.4000000  -0.0000000   0.0000000), wk =   0.1600000
        k(   11) = (   0.4000000   0.2309401   0.0000000), wk =   0.1600000
        k(   12) = (   0.4000000  -0.6928203   0.0000000), wk =   0.1600000
        k(   13) = (   0.4000000  -0.4618802   0.0000000), wk =   0.1600000

     Dense  grid:   763103 G-vectors     FFT dimensions: (  80,  80, 270)

     Estimated max dynamical RAM per process >       9.29 GB

     Check: negative core charge=   -0.000002

     Initial potential from superposition of free atoms

     starting charge  376.99372, renormalised to  377.00000

     negative rho (up, down):  1.109E-02 0.000E+00


     %%%%%%%%%%%%%%%%%%%%%%%%%%%%%%%%%%%%%%%%%%%%%%%%%%%%%%%%%%%%%%%%%%%%%%%%
     %                                                                      %
     % You are using vdW-DF, which was implemented by the Thonhauser group. %
     % Please cite the following two papers that made this development      %
     % possible and the two reviews that describe the various versions:     %
     %                                                                      %
     %   T. Thonhauser et al., PRL 115, 136402 (2015).                      %
     %   T. Thonhauser et al., PRB 76, 125112 (2007).                       %
     %   K. Berland et al., Rep. Prog. Phys. 78, 066501 (2015).             %
     %   D.C. Langreth et al., J. Phys.: Condens. Matter 21, 084203 (2009). %
     %                                                                      %
     %                                                                      %
     % If you are calculating the stress with vdW-DF, please also cite:     %
     %                                                                      %
     %   R. Sabatini et al., J. Phys.: Condens. Matter 24, 424209 (2012).   %
     %                                                                      %
     %%%%%%%%%%%%%%%%%%%%%%%%%%%%%%%%%%%%%%%%%%%%%%%%%%%%%%%%%%%%%%%%%%%%%%%%


     Starting wfcs are  341 randomized atomic wfcs
     Checking if some PAW data can be deallocated... 

     total cpu time spent up to now is      333.0 secs

     Self-consistent Calculation

     iteration #  1     ecut=    60.00 Ry     beta= 0.70
     Davidson diagonalization with overlap
     ethr =  1.00E-02,  avg # of iterations =  2.5

     Threshold (ethr) on eigenvalues was too large:
     Diagonalizing with lowered threshold

     Davidson diagonalization with overlap
     ethr =  8.81E-04,  avg # of iterations =  2.5

     negative rho (up, down):  1.082E-02 0.000E+00

     total cpu time spent up to now is     1581.3 secs

     total energy              =  -27817.11193944 Ry
     estimated scf accuracy    <       3.55444494 Ry

     iteration #  2     ecut=    60.00 Ry     beta= 0.70
     Davidson diagonalization with overlap
     ethr =  9.43E-04,  avg # of iterations =  2.0

     negative rho (up, down):  8.770E-03 0.000E+00

     total cpu time spent up to now is     2180.7 secs

     total energy              =  -27817.24221494 Ry
     estimated scf accuracy    <       1.30609888 Ry

     iteration #  3     ecut=    60.00 Ry     beta= 0.70
     Davidson diagonalization with overlap
     ethr =  3.46E-04,  avg # of iterations =  6.8

     negative rho (up, down):  5.257E-03 0.000E+00

     total cpu time spent up to now is     2822.7 secs

     total energy              =  -27817.26762175 Ry
     estimated scf accuracy    <       0.51214046 Ry

     iteration #  4     ecut=    60.00 Ry     beta= 0.70
     Davidson diagonalization with overlap
     ethr =  1.36E-04,  avg # of iterations =  9.8

     negative rho (up, down):  3.964E-03 0.000E+00

     total cpu time spent up to now is     3585.6 secs

     total energy              =  -27817.33620314 Ry
     estimated scf accuracy    <       0.29369082 Ry

     iteration #  5     ecut=    60.00 Ry     beta= 0.70
     Davidson diagonalization with overlap
     ethr =  7.79E-05,  avg # of iterations =  2.0

     negative rho (up, down):  2.733E-03 0.000E+00

     total cpu time spent up to now is     4174.0 secs

     total energy              =  -27817.34106744 Ry
     estimated scf accuracy    <       0.05435680 Ry

     iteration #  6     ecut=    60.00 Ry     beta= 0.70
     Davidson diagonalization with overlap
     c_bands:  1 eigenvalues not converged
     c_bands:  2 eigenvalues not converged
     ethr =  1.44E-05,  avg # of iterations = 12.4

     negative rho (up, down):  2.048E-03 0.000E+00

     total cpu time spent up to now is     5062.2 secs

     total energy              =  -27817.34882554 Ry
     estimated scf accuracy    <       0.04864004 Ry

     iteration #  7     ecut=    60.00 Ry     beta= 0.70
     Davidson diagonalization with overlap
     ethr =  1.29E-05,  avg # of iterations =  9.4

     negative rho (up, down):  2.218E-03 0.000E+00

     total cpu time spent up to now is     5721.0 secs

     total energy              =  -27817.34956398 Ry
     estimated scf accuracy    <       0.03076820 Ry

     iteration #  8     ecut=    60.00 Ry     beta= 0.70
     Davidson diagonalization with overlap
     c_bands:  2 eigenvalues not converged
     c_bands:  2 eigenvalues not converged
     ethr =  8.16E-06,  avg # of iterations = 11.2

     negative rho (up, down):  4.133E-03 0.000E+00

     total cpu time spent up to now is     6396.6 secs

     total energy              =  -27817.35015313 Ry
     estimated scf accuracy    <       0.01699797 Ry

     iteration #  9     ecut=    60.00 Ry     beta= 0.70
     Davidson diagonalization with overlap
     c_bands:  2 eigenvalues not converged
     ethr =  4.51E-06,  avg # of iterations = 14.3

     negative rho (up, down):  1.344E-02 0.000E+00

     total cpu time spent up to now is     7104.1 secs

     total energy              =  -27817.35047551 Ry
     estimated scf accuracy    <       0.00517143 Ry

     iteration # 10     ecut=    60.00 Ry     beta= 0.70
     Davidson diagonalization with overlap
     ethr =  1.37E-06,  avg # of iterations = 11.8

     negative rho (up, down):  1.484E-02 0.000E+00

     total cpu time spent up to now is     7788.4 secs

     total energy              =  -27817.35071060 Ry
     estimated scf accuracy    <       0.00215476 Ry

     iteration # 11     ecut=    60.00 Ry     beta= 0.70
     Davidson diagonalization with overlap
     ethr =  5.72E-07,  avg # of iterations =  2.0

     negative rho (up, down):  1.407E-02 0.000E+00

     total cpu time spent up to now is     8372.1 secs

     total energy              =  -27817.35082400 Ry
     estimated scf accuracy    <       0.00102667 Ry

     iteration # 12     ecut=    60.00 Ry     beta= 0.70
     Davidson diagonalization with overlap
     ethr =  2.72E-07,  avg # of iterations =  3.9

     negative rho (up, down):  1.261E-02 0.000E+00

     total cpu time spent up to now is     8979.1 secs

     total energy              =  -27817.35089001 Ry
     estimated scf accuracy    <       0.00058056 Ry

     iteration # 13     ecut=    60.00 Ry     beta= 0.70
     Davidson diagonalization with overlap
     ethr =  1.54E-07,  avg # of iterations =  2.9

     negative rho (up, down):  1.237E-02 0.000E+00

     total cpu time spent up to now is     9564.0 secs

     total energy              =  -27817.35091313 Ry
     estimated scf accuracy    <       0.00032533 Ry

     iteration # 14     ecut=    60.00 Ry     beta= 0.70
     Davidson diagonalization with overlap
     ethr =  8.63E-08,  avg # of iterations =  3.1

     negative rho (up, down):  1.132E-02 0.000E+00

     total cpu time spent up to now is    10173.0 secs

     total energy              =  -27817.35094886 Ry
     estimated scf accuracy    <       0.00013056 Ry

     iteration # 15     ecut=    60.00 Ry     beta= 0.70
     Davidson diagonalization with overlap
     ethr =  3.46E-08,  avg # of iterations =  2.8

     negative rho (up, down):  1.139E-02 0.000E+00

     total cpu time spent up to now is    10799.4 secs

     total energy              =  -27817.35096400 Ry
     estimated scf accuracy    <       0.00002761 Ry

     iteration # 16     ecut=    60.00 Ry     beta= 0.70
     Davidson diagonalization with overlap
     ethr =  7.32E-09,  avg # of iterations =  4.2

     negative rho (up, down):  1.144E-02 0.000E+00

     total cpu time spent up to now is    11738.0 secs

     total energy              =  -27817.35097707 Ry
     estimated scf accuracy    <       0.00001392 Ry

     iteration # 17     ecut=    60.00 Ry     beta= 0.70
     Davidson diagonalization with overlap
     ethr =  3.69E-09,  avg # of iterations =  1.5

     negative rho (up, down):  1.151E-02 0.000E+00

     total cpu time spent up to now is    12284.4 secs

     total energy              =  -27817.35097692 Ry
     estimated scf accuracy    <       0.00001061 Ry

     iteration # 18     ecut=    60.00 Ry     beta= 0.70
     Davidson diagonalization with overlap
     ethr =  2.81E-09,  avg # of iterations =  1.1

     negative rho (up, down):  1.189E-02 0.000E+00

     total cpu time spent up to now is    12824.0 secs

     total energy              =  -27817.35097559 Ry
     estimated scf accuracy    <       0.00000676 Ry

     iteration # 19     ecut=    60.00 Ry     beta= 0.70
     Davidson diagonalization with overlap
     ethr =  1.79E-09,  avg # of iterations =  1.5

     negative rho (up, down):  1.219E-02 0.000E+00

     total cpu time spent up to now is    13378.4 secs

     total energy              =  -27817.35097460 Ry
     estimated scf accuracy    <       0.00000322 Ry

     iteration # 20     ecut=    60.00 Ry     beta= 0.70
     Davidson diagonalization with overlap
     ethr =  8.54E-10,  avg # of iterations =  1.5

     negative rho (up, down):  1.247E-02 0.000E+00

     total cpu time spent up to now is    13945.1 secs

     total energy              =  -27817.35097392 Ry
     estimated scf accuracy    <       0.00000128 Ry

     iteration # 21     ecut=    60.00 Ry     beta= 0.70
     Davidson diagonalization with overlap
     ethr =  3.41E-10,  avg # of iterations =  2.0

     negative rho (up, down):  1.256E-02 0.000E+00

     total cpu time spent up to now is    14543.0 secs

     total energy              =  -27817.35097369 Ry
     estimated scf accuracy    <       0.00000113 Ry

     iteration # 22     ecut=    60.00 Ry     beta= 0.70
     Davidson diagonalization with overlap
     ethr =  3.00E-10,  avg # of iterations =  1.2

     negative rho (up, down):  1.280E-02 0.000E+00

     total cpu time spent up to now is    15060.7 secs

     End of self-consistent calculation

          k = 0.0000 0.0000 0.0000 ( 95355 PWs)   bands (ev):

   -13.1931 -10.4840  -7.3732  -7.2932  -6.0357  -5.0047  -4.9177  -4.9087
    -4.9058  -4.9029  -4.8929  -4.8720  -4.8690  -4.6457  -4.3487  -4.3467
    -4.3449  -4.3364  -4.3298  -4.2854  -4.1596  -3.8819  -3.8801  -3.8710
    -3.8647  -3.8618  -3.8341  -3.6689  -3.6609  -3.6548  -3.6532  -3.6482
    -3.6318  -3.5993  -3.4376  -3.4311  -3.4242  -3.4230  -3.4217  -3.4182
    -3.4112  -3.4093  -3.3844  -3.3791  -3.3719  -3.3550  -2.8245  -2.8210
    -2.8128  -2.7937  -2.7848  -2.7543  -2.7329  -2.7268  -2.7249  -2.7095
    -2.6206  -2.5825  -2.5598  -2.5043  -2.4890  -2.1612  -2.0873  -2.0016
    -1.9912  -1.9848  -1.9669  -1.9370  -1.8761  -1.8543  -1.8176  -1.8136
    -1.8116  -1.7939  -1.7869  -1.7675  -1.7646  -1.7616  -1.7441  -1.7394
    -1.7339  -1.7104  -1.7027  -1.6688  -1.6129  -1.5853  -1.5766  -1.5715
    -1.5631  -1.4128  -1.4100  -1.4048  -1.3813  -1.3719  -1.3655  -1.3417
    -1.3313  -1.2907  -1.2810  -1.2638  -1.2396  -1.2085  -1.1985  -1.1503
    -1.1500  -1.1115  -1.1103  -1.0539  -1.0306  -0.9689  -0.9527  -0.9398
    -0.9311  -0.9072  -0.5913  -0.5614  -0.5009  -0.4910  -0.4639  -0.4531
    -0.4487  -0.4460  -0.4290  -0.3871  -0.3865  -0.3785  -0.3170  -0.2935
    -0.2922  -0.2199  -0.1784  -0.1488  -0.1474  -0.0830  -0.0641  -0.0497
    -0.0068   0.0217   0.0331   0.0380   0.0431   0.2008   0.2559   0.2807
     0.2832   0.2847   0.3101   0.3479   0.3505   0.5139   0.5319   0.5352
     0.5386   0.5530   0.5888   0.6089   0.6984   0.7011   0.7126   0.7179
     0.7195   0.7388   0.7402   0.7533   0.7541   0.7613   0.8237   0.8408
     0.8668   0.8704   0.8838   0.8865   0.9082   0.9318   0.9690   0.9747
     0.9771   0.9928   1.0051   1.0127   1.0206   1.0306   1.0830   1.0996
     1.1017   1.1209   1.1210   1.1246   1.1263   1.1436   1.2199   1.2249
     1.2268   1.2305   1.2491   1.2503   1.4239   1.4351   1.5213   1.5251
     1.5590   1.5603   1.5627   1.5735   1.8780   2.3886   2.4285   2.4400
     2.4423   2.4730   2.4957   3.7766   4.6887   4.7236   4.7584   4.7699
     4.7782   5.4807   5.8375   5.8627   6.2339   6.3235   6.3567   6.3622
     6.3750   6.3825   6.4304

          k = 0.0000 0.2309 0.0000 ( 95290 PWs)   bands (ev):

   -13.1930 -10.4839  -7.3590  -7.1610  -5.8927  -5.4129  -5.0282  -5.0034
    -4.8641  -4.7665  -4.7227  -4.6835  -4.6533  -4.6109  -4.4338  -4.4229
    -4.2841  -4.2768  -4.2641  -4.2210  -4.1538  -3.9653  -3.8433  -3.8417
    -3.8269  -3.8120  -3.7527  -3.7411  -3.6934  -3.6825  -3.6651  -3.6590
    -3.6413  -3.6093  -3.5611  -3.5439  -3.4610  -3.4487  -3.4335  -3.4075
    -3.4023  -3.2308  -3.2219  -3.2157  -3.1931  -3.1718  -2.9399  -2.9372
    -2.9153  -2.8648  -2.8552  -2.8320  -2.8106  -2.6818  -2.6268  -2.6043
    -2.5636  -2.5515  -2.5226  -2.4997  -2.4808  -2.2950  -2.2219  -2.1865
    -2.1414  -2.1242  -2.0980  -2.0597  -2.0030  -1.9967  -1.9663  -1.9563
    -1.9483  -1.8930  -1.8814  -1.8214  -1.8005  -1.7911  -1.7686  -1.7155
    -1.7044  -1.6775  -1.6478  -1.6268  -1.6074  -1.5378  -1.5298  -1.5153
    -1.5066  -1.4594  -1.4393  -1.4157  -1.4067  -1.3974  -1.3783  -1.3545
    -1.3292  -1.2772  -1.2681  -1.2399  -1.2310  -1.2207  -1.1927  -1.1750
    -1.1470  -1.1313  -1.0974  -1.0795  -1.0052  -0.9756  -0.9632  -0.9501
    -0.9362  -0.9277  -0.8877  -0.8669  -0.8588  -0.8475  -0.7944  -0.7164
    -0.5845  -0.5463  -0.5087  -0.4684  -0.4490  -0.4189  -0.4107  -0.3951
    -0.3728  -0.2691  -0.2406  -0.2152  -0.1339  -0.1035  -0.0575  -0.0410
    -0.0206  -0.0138   0.0209   0.0524   0.0660   0.1320   0.1390   0.1635
     0.1783   0.1866   0.2798   0.3512   0.3887   0.4018   0.4123   0.4327
     0.4600   0.4899   0.5310   0.5530   0.5734   0.5910   0.6407   0.6507
     0.6615   0.6836   0.7017   0.7740   0.7937   0.8082   0.8794   0.9079
     0.9200   0.9372   0.9668   0.9779   1.0010   1.0250   1.0636   1.0947
     1.1017   1.1452   1.1607   1.1733   1.1991   1.2074   1.2098   1.2162
     1.2295   1.2695   1.2813   1.4072   1.4174   1.4540   1.4689   1.4704
     1.4877   1.5179   1.5461   1.5508   1.5719   1.6507   1.6702   1.6929
     1.7137   1.8533   1.8623   1.8743   1.9073   2.1741   2.3279   2.7267
     3.0385   3.0584   3.1627   3.7281   4.1930   4.4669   4.8623   5.1756
     5.1883   5.3091   5.4431   5.6303   5.8152   6.0077   6.1520   6.2020
     6.3418   6.5086   6.5582

          k = 0.0000 0.4619 0.0000 ( 95390 PWs)   bands (ev):

   -13.1930 -10.4838  -7.3553  -6.7433  -6.1106  -5.4946  -5.0647  -5.0367
    -4.9621  -4.7083  -4.6250  -4.5207  -4.3984  -4.3664  -4.3187  -4.3070
    -4.1906  -4.1562  -4.1228  -4.0957  -4.0788  -4.0564  -3.9731  -3.9249
    -3.9194  -3.8761  -3.8687  -3.8367  -3.8069  -3.7418  -3.7394  -3.7297
    -3.6408  -3.4798  -3.4769  -3.4711  -3.4669  -3.4461  -3.4427  -3.2314
    -3.2223  -3.1957  -3.1903  -3.1752  -3.1595  -3.0058  -2.9028  -2.8989
    -2.8842  -2.8741  -2.8358  -2.8205  -2.7595  -2.7440  -2.7354  -2.6951
    -2.6817  -2.5818  -2.5325  -2.5244  -2.5030  -2.4815  -2.3821  -2.3598
    -2.3273  -2.3022  -2.2956  -2.1756  -2.1395  -2.1068  -2.0782  -2.0672
    -2.0346  -1.9933  -1.9757  -1.9543  -1.8588  -1.8483  -1.8224  -1.7972
    -1.7200  -1.7015  -1.6961  -1.6890  -1.6662  -1.6385  -1.6099  -1.5937
    -1.5796  -1.5756  -1.5660  -1.5549  -1.5333  -1.4956  -1.4616  -1.4253
    -1.4033  -1.3946  -1.3883  -1.3646  -1.2689  -1.2475  -1.2287  -1.2145
    -1.1583  -1.1517  -1.1293  -1.1162  -1.0896  -1.0035  -0.9671  -0.9458
    -0.9380  -0.8913  -0.8464  -0.8187  -0.7839  -0.7015  -0.6875  -0.6242
    -0.5976  -0.5685  -0.5437  -0.5164  -0.4851  -0.4763  -0.4675  -0.4031
    -0.3997  -0.3878  -0.3662  -0.3518  -0.3459  -0.3246  -0.2926  -0.2676
    -0.1820  -0.1613  -0.1491  -0.1114  -0.0623  -0.0029   0.0471   0.0534
     0.1464   0.1654   0.2227   0.3002   0.3154   0.3557   0.3652   0.3875
     0.4216   0.4407   0.4759   0.4981   0.5392   0.5680   0.5793   0.6224
     0.6687   0.6891   0.7029   0.7231   0.7395   0.7882   0.8391   0.9225
     0.9479   0.9642   0.9923   1.0057   1.0269   1.0925   1.1201   1.1267
     1.1988   1.2116   1.2237   1.2769   1.2955   1.3057   1.3224   1.4039
     1.4196   1.4472   1.4594   1.4805   1.4889   1.4965   1.5022   1.6725
     1.6763   1.7006   1.7205   1.7284   1.8857   1.9327   2.1195   2.3334
     2.3771   2.5168   2.7520   2.7625   3.0628   3.1497   3.1787   3.4934
     3.6069   3.9651   3.9761   4.0114   4.1589   4.2467   4.2940   4.3616
     4.6125   4.6297   4.9105   5.2569   5.4346   5.7527   5.8306   5.9910
     6.1258   6.2836   6.4184

          k = 0.2000-0.1155 0.0000 ( 95290 PWs)   bands (ev):

   -13.1930 -10.4839  -7.3586  -7.1612  -5.8929  -5.4123  -5.0279  -5.0039
    -4.8654  -4.7666  -4.7227  -4.6830  -4.6540  -4.6118  -4.4346  -4.4170
    -4.2836  -4.2769  -4.2649  -4.2257  -4.1506  -3.9672  -3.8440  -3.8412
    -3.8257  -3.8117  -3.7524  -3.7418  -3.6934  -3.6830  -3.6658  -3.6532
    -3.6445  -3.6086  -3.5622  -3.5454  -3.4599  -3.4482  -3.4341  -3.4078
    -3.4023  -3.2317  -3.2222  -3.2155  -3.1919  -3.1743  -2.9416  -2.9383
    -2.9190  -2.8616  -2.8542  -2.8325  -2.8069  -2.6788  -2.6242  -2.6039
    -2.5714  -2.5524  -2.5233  -2.4970  -2.4816  -2.2940  -2.2242  -2.1800
    -2.1472  -2.1230  -2.1028  -2.0631  -2.0043  -1.9884  -1.9672  -1.9568
    -1.9466  -1.9014  -1.8828  -1.8244  -1.8016  -1.7878  -1.7675  -1.7106
    -1.7005  -1.6756  -1.6417  -1.6268  -1.6132  -1.5390  -1.5271  -1.5176
    -1.5040  -1.4616  -1.4295  -1.4156  -1.4072  -1.3989  -1.3797  -1.3555
    -1.3387  -1.2767  -1.2635  -1.2422  -1.2304  -1.2173  -1.1922  -1.1814
    -1.1385  -1.1300  -1.1038  -1.0812  -1.0029  -0.9757  -0.9621  -0.9472
    -0.9389  -0.9282  -0.8885  -0.8661  -0.8575  -0.8491  -0.7820  -0.7241
    -0.5926  -0.5432  -0.5074  -0.4801  -0.4490  -0.4184  -0.4103  -0.3930
    -0.3739  -0.2611  -0.2399  -0.1979  -0.1412  -0.0982  -0.0652  -0.0381
    -0.0213  -0.0123   0.0184   0.0575   0.0726   0.1308   0.1343   0.1664
     0.1766   0.1880   0.2605   0.3541   0.3892   0.4000   0.4136   0.4272
     0.4596   0.5028   0.5221   0.5496   0.5749   0.5928   0.6409   0.6537
     0.6622   0.6800   0.7013   0.7739   0.7861   0.8042   0.8796   0.9105
     0.9211   0.9495   0.9665   0.9752   1.0034   1.0194   1.0631   1.0952
     1.1006   1.1448   1.1616   1.1748   1.1978   1.2080   1.2097   1.2152
     1.2348   1.2698   1.2829   1.4084   1.4155   1.4542   1.4689   1.4701
     1.4856   1.5167   1.5452   1.5496   1.5705   1.6533   1.6697   1.6930
     1.7156   1.8547   1.8612   1.8740   1.9149   2.1689   2.3204   2.7323
     3.0393   3.0559   3.1654   3.7362   4.1874   4.4612   4.8686   5.1677
     5.1892   5.2862   5.4629   5.6432   5.8050   6.0288   6.1533   6.2311
     6.3423   6.4893   6.5582

          k = 0.2000 0.1155 0.0000 ( 95290 PWs)   bands (ev):

   -13.1930 -10.4839  -7.3599  -7.1603  -5.8922  -5.4091  -5.0326  -5.0059
    -4.8604  -4.7659  -4.7186  -4.6863  -4.6556  -4.6098  -4.4407  -4.4245
    -4.2807  -4.2765  -4.2600  -4.2222  -4.1504  -3.9690  -3.8448  -3.8404
    -3.8283  -3.8089  -3.7559  -3.7412  -3.6946  -3.6803  -3.6634  -3.6594
    -3.6379  -3.6083  -3.5637  -3.5432  -3.4549  -3.4503  -3.4280  -3.4082
    -3.4062  -3.2282  -3.2226  -3.2199  -3.1940  -3.1748  -2.9423  -2.9378
    -2.9069  -2.8670  -2.8459  -2.8308  -2.8241  -2.6714  -2.6382  -2.6158
    -2.5583  -2.5539  -2.5161  -2.4989  -2.4860  -2.2951  -2.2223  -2.2030
    -2.1395  -2.1312  -2.0918  -2.0502  -2.0207  -1.9956  -1.9617  -1.9538
    -1.9378  -1.8921  -1.8801  -1.8199  -1.8115  -1.7955  -1.7568  -1.7188
    -1.7055  -1.6710  -1.6512  -1.6264  -1.5978  -1.5517  -1.5347  -1.5201
    -1.5009  -1.4678  -1.4576  -1.4098  -1.4061  -1.3836  -1.3806  -1.3472
    -1.3162  -1.2730  -1.2650  -1.2414  -1.2340  -1.2251  -1.1904  -1.1594
    -1.1539  -1.1274  -1.0883  -1.0798  -1.0046  -0.9714  -0.9664  -0.9424
    -0.9334  -0.9284  -0.8903  -0.8779  -0.8545  -0.8451  -0.8231  -0.7354
    -0.5790  -0.5301  -0.5140  -0.4579  -0.4313  -0.4205  -0.4141  -0.3951
    -0.3590  -0.3044  -0.2385  -0.2337  -0.1178  -0.1090  -0.0622  -0.0314
    -0.0238  -0.0103   0.0316   0.0403   0.0704   0.1327   0.1526   0.1583
     0.1796   0.1832   0.3181   0.3416   0.3802   0.4046   0.4115   0.4454
     0.4550   0.4698   0.5377   0.5571   0.5694   0.6014   0.6355   0.6460
     0.6568   0.6904   0.7067   0.7716   0.7972   0.8281   0.8566   0.8954
     0.9208   0.9336   0.9670   0.9898   1.0008   1.0485   1.0608   1.0901
     1.0962   1.1451   1.1577   1.1732   1.1989   1.2064   1.2141   1.2157
     1.2215   1.2728   1.2880   1.4133   1.4160   1.4544   1.4676   1.4706
     1.4838   1.5119   1.5379   1.5463   1.5692   1.6467   1.6699   1.6938
     1.7133   1.8470   1.8632   1.8719   1.9043   2.1838   2.3311   2.7151
     3.0423   3.0464   3.1694   3.7259   4.2208   4.4569   4.8538   5.1725
     5.1872   5.2586   5.4833   5.6368   5.8470   5.9169   6.1849   6.2553
     6.3400   6.4751   6.5582

          k = 0.2000 0.3464 0.0000 ( 95308 PWs)   bands (ev):

   -13.1930 -10.4838  -7.3566  -6.8790  -5.6619  -5.6558  -5.6170  -4.8130
    -4.5840  -4.5783  -4.5681  -4.5432  -4.5164  -4.5052  -4.4923  -4.4027
    -4.3932  -4.3655  -4.1649  -4.0129  -4.0012  -3.9873  -3.9769  -3.9172
    -3.8931  -3.7645  -3.7481  -3.7462  -3.7324  -3.7229  -3.6474  -3.6377
    -3.6004  -3.5827  -3.5733  -3.5719  -3.5069  -3.4788  -3.4690  -3.4302
    -3.4052  -3.3345  -3.0920  -3.0055  -2.9942  -2.9733  -2.9631  -2.9434
    -2.9386  -2.9190  -2.8703  -2.8589  -2.7398  -2.7092  -2.6974  -2.6196
    -2.5971  -2.5705  -2.5299  -2.5173  -2.5058  -2.4510  -2.4213  -2.3134
    -2.2723  -2.2375  -2.1806  -2.1676  -2.1400  -2.1214  -2.1005  -2.0543
    -2.0337  -1.9921  -1.9012  -1.8839  -1.8614  -1.8354  -1.8064  -1.7978
    -1.7639  -1.7442  -1.7081  -1.6958  -1.6341  -1.5742  -1.5665  -1.5551
    -1.5393  -1.5300  -1.5103  -1.4781  -1.4675  -1.4371  -1.4109  -1.3841
    -1.3552  -1.3151  -1.2981  -1.2928  -1.2368  -1.2156  -1.2096  -1.1843
    -1.1654  -1.1523  -1.1338  -1.1139  -1.1009  -1.0971  -1.0792  -1.0254
    -1.0063  -0.9562  -0.9317  -0.9158  -0.8784  -0.8163  -0.7998  -0.7833
    -0.6825  -0.6148  -0.5750  -0.5510  -0.4690  -0.4493  -0.4281  -0.4111
    -0.3835  -0.3622  -0.3455  -0.3175  -0.3058  -0.2700  -0.2171  -0.1935
    -0.1042  -0.0688  -0.0140   0.0034   0.0249   0.0579   0.0863   0.1071
     0.1847   0.2037   0.2280   0.2758   0.2933   0.3307   0.3559   0.4314
     0.4363   0.4575   0.4972   0.5076   0.5325   0.5373   0.5518   0.5610
     0.5761   0.5949   0.6386   0.6919   0.7657   0.8102   0.8538   0.9135
     0.9466   0.9995   1.0822   1.0995   1.1291   1.1392   1.2057   1.2230
     1.2370   1.2496   1.2721   1.2959   1.3038   1.3130   1.3211   1.3549
     1.3736   1.3849   1.4484   1.4802   1.4925   1.5214   1.5324   1.5733
     1.6556   1.7242   1.7643   1.7868   1.8326   1.8462   1.8518   1.9893
     1.9957   2.2713   2.5103   2.5261   2.8492   3.0497   3.0666   3.1021
     3.3571   3.7587   3.7707   3.9850   3.9960   4.0300   4.5601   4.7332
     5.1655   5.1997   5.3700   5.4208   5.6860   5.8440   5.9226   5.9528
     6.0023   6.0323   6.2497

          k = 0.2000-0.5774 0.0000 ( 95386 PWs)   bands (ev):

   -13.1930 -10.4837  -7.3551  -6.3543  -6.3395  -5.7400  -5.1731  -5.1113
    -4.7307  -4.5820  -4.4978  -4.4406  -4.3961  -4.3040  -4.2865  -4.2139
    -4.1847  -4.1425  -4.0811  -4.0683  -4.0532  -4.0295  -4.0162  -3.9972
    -3.9844  -3.8700  -3.8543  -3.8401  -3.8072  -3.7924  -3.7292  -3.6584
    -3.6291  -3.5987  -3.5480  -3.4614  -3.4471  -3.4428  -3.4248  -3.3974
    -3.3196  -3.3136  -3.2145  -3.1970  -3.0340  -3.0138  -2.9892  -2.9012
    -2.8768  -2.8274  -2.8154  -2.7228  -2.6855  -2.6374  -2.6282  -2.6040
    -2.5756  -2.5390  -2.5308  -2.4995  -2.4232  -2.4140  -2.3956  -2.3766
    -2.3730  -2.3564  -2.3446  -2.3090  -2.2682  -2.2093  -2.1546  -2.1065
    -2.0996  -2.0514  -1.9888  -1.9519  -1.9429  -1.9171  -1.8902  -1.8690
    -1.8429  -1.7583  -1.7504  -1.7444  -1.7221  -1.7125  -1.6783  -1.6250
    -1.5999  -1.5719  -1.5429  -1.5101  -1.4970  -1.4322  -1.3873  -1.3513
    -1.3229  -1.3087  -1.2991  -1.2777  -1.2612  -1.2440  -1.2150  -1.2108
    -1.1883  -1.1696  -1.1624  -1.1173  -1.1093  -1.0919  -1.0811  -1.0768
    -1.0516  -1.0244  -1.0131  -0.9858  -0.8898  -0.7987  -0.7354  -0.6883
    -0.6730  -0.6440  -0.5752  -0.5600  -0.5263  -0.4956  -0.4769  -0.4477
    -0.4431  -0.4093  -0.3820  -0.3404  -0.3135  -0.2865  -0.2587  -0.2041
    -0.1832  -0.1428  -0.0835  -0.0090   0.0375   0.0555   0.0973   0.1186
     0.1534   0.1894   0.2138   0.2312   0.2354   0.2666   0.2869   0.3065
     0.3648   0.4005   0.4341   0.4590   0.4792   0.4871   0.5078   0.5216
     0.5960   0.6535   0.6990   0.7520   0.8184   0.8571   0.8897   0.9282
     0.9416   1.0374   1.0590   1.0683   1.1107   1.1811   1.2117   1.2386
     1.2573   1.2816   1.2890   1.3078   1.3431   1.3616   1.4374   1.4415
     1.4549   1.4713   1.4967   1.5049   1.5156   1.5694   1.6781   1.6857
     1.7140   1.7199   1.7313   1.7823   1.8276   1.9044   2.0341   2.6317
     2.8657   2.8692   3.0540   3.1298   3.2438   3.2591   3.2719   3.5095
     3.8674   3.8803   4.0301   4.3208   4.3536   4.4626   4.4740   4.5217
     4.7022   4.7753   4.8377   5.0378   5.2563   5.3051   5.4745   5.8399
     5.9410   5.9686   6.1367

          k = 0.2000-0.3464 0.0000 ( 95308 PWs)   bands (ev):

   -13.1930 -10.4838  -7.3550  -6.8801  -5.6685  -5.6503  -5.6188  -4.8144
    -4.5844  -4.5776  -4.5694  -4.5397  -4.5192  -4.5042  -4.4890  -4.3986
    -4.3912  -4.3653  -4.1738  -4.0162  -4.0004  -3.9914  -3.9727  -3.9169
    -3.8899  -3.7648  -3.7488  -3.7453  -3.7305  -3.7238  -3.6512  -3.6340
    -3.6027  -3.5784  -3.5734  -3.5703  -3.5077  -3.4802  -3.4702  -3.4329
    -3.4084  -3.3435  -3.0863  -2.9993  -2.9905  -2.9760  -2.9683  -2.9447
    -2.9393  -2.9324  -2.8718  -2.8580  -2.7220  -2.7035  -2.6953  -2.6143
    -2.5955  -2.5773  -2.5265  -2.5143  -2.5032  -2.4482  -2.4234  -2.2851
    -2.2589  -2.2400  -2.2088  -2.1813  -2.1296  -2.1272  -2.1005  -2.0583
    -2.0338  -1.9974  -1.9071  -1.8927  -1.8642  -1.8374  -1.7993  -1.7857
    -1.7502  -1.7312  -1.7233  -1.6982  -1.6097  -1.5877  -1.5644  -1.5514
    -1.5437  -1.5355  -1.5178  -1.4790  -1.4647  -1.4347  -1.4197  -1.4014
    -1.3227  -1.3108  -1.2999  -1.2831  -1.2472  -1.2228  -1.2051  -1.1854
    -1.1732  -1.1468  -1.1336  -1.1224  -1.1116  -1.0965  -1.0527  -1.0424
    -1.0227  -0.9471  -0.9263  -0.8896  -0.8760  -0.8486  -0.8046  -0.7690
    -0.6974  -0.6172  -0.5894  -0.5398  -0.4692  -0.4506  -0.4150  -0.4078
    -0.3789  -0.3552  -0.3502  -0.3172  -0.3132  -0.2476  -0.2123  -0.1909
    -0.1367  -0.0596  -0.0289   0.0109   0.0368   0.0538   0.0676   0.1068
     0.1605   0.2076   0.2343   0.2732   0.2927   0.3171   0.3712   0.4255
     0.4300   0.4612   0.4699   0.5084   0.5339   0.5357   0.5522   0.5681
     0.5708   0.5986   0.6428   0.7040   0.7701   0.8049   0.8963   0.9148
     0.9357   1.0025   1.0806   1.0991   1.1016   1.1403   1.2071   1.2225
     1.2344   1.2517   1.2705   1.3009   1.3027   1.3161   1.3197   1.3583
     1.3747   1.3911   1.4468   1.4812   1.4865   1.5224   1.5320   1.5712
     1.6678   1.7307   1.7699   1.7931   1.8287   1.8447   1.8496   1.9824
     1.9885   2.2797   2.5095   2.5242   2.8324   3.0546   3.0667   3.0960
     3.3926   3.7505   3.7852   3.9834   3.9868   4.0349   4.5531   4.7141
     5.1723   5.2016   5.4126   5.4344   5.7051   5.8691   5.8925   5.9777
     6.0030   6.0041   6.2482

          k = 0.4000-0.2309 0.0000 ( 95390 PWs)   bands (ev):

   -13.1930 -10.4838  -7.3544  -6.7434  -6.1106  -5.4953  -5.0639  -5.0372
    -4.9650  -4.7071  -4.6223  -4.5194  -4.3976  -4.3654  -4.3190  -4.3067
    -4.1947  -4.1547  -4.1217  -4.0979  -4.0777  -4.0563  -3.9732  -3.9243
    -3.9203  -3.8765  -3.8667  -3.8363  -3.8065  -3.7421  -3.7397  -3.7304
    -3.6402  -3.4810  -3.4769  -3.4707  -3.4678  -3.4477  -3.4438  -3.2320
    -3.2229  -3.1963  -3.1907  -3.1779  -3.1587  -3.0123  -2.9017  -2.8980
    -2.8851  -2.8721  -2.8342  -2.8188  -2.7620  -2.7443  -2.7338  -2.6914
    -2.6813  -2.5823  -2.5360  -2.5227  -2.5057  -2.4792  -2.3829  -2.3588
    -2.3339  -2.3036  -2.2920  -2.1808  -2.1430  -2.1067  -2.0781  -2.0652
    -2.0327  -1.9968  -1.9812  -1.9556  -1.8564  -1.8427  -1.8186  -1.8008
    -1.7216  -1.6990  -1.6928  -1.6873  -1.6677  -1.6263  -1.6091  -1.5965
    -1.5766  -1.5735  -1.5641  -1.5484  -1.5335  -1.5031  -1.4527  -1.4238
    -1.4035  -1.3963  -1.3917  -1.3732  -1.2649  -1.2460  -1.2191  -1.1996
    -1.1594  -1.1499  -1.1330  -1.1164  -1.0876  -1.0053  -0.9671  -0.9572
    -0.9416  -0.8981  -0.8439  -0.8295  -0.7942  -0.7027  -0.6930  -0.6212
    -0.5963  -0.5643  -0.5445  -0.5191  -0.4859  -0.4787  -0.4672  -0.4028
    -0.3999  -0.3835  -0.3625  -0.3526  -0.3365  -0.3238  -0.2908  -0.2701
    -0.1842  -0.1566  -0.1497  -0.1027  -0.0579  -0.0139   0.0499   0.0538
     0.1458   0.1637   0.2161   0.3028   0.3241   0.3553   0.3643   0.3896
     0.4201   0.4408   0.4869   0.4983   0.5389   0.5660   0.5854   0.6127
     0.6652   0.6909   0.7055   0.7206   0.7353   0.7853   0.8511   0.9206
     0.9279   0.9644   0.9956   1.0066   1.0199   1.0932   1.1204   1.1264
     1.1973   1.2133   1.2223   1.2783   1.3006   1.3088   1.3236   1.4063
     1.4188   1.4469   1.4599   1.4789   1.4930   1.4951   1.5022   1.6725
     1.6744   1.6985   1.7179   1.7272   1.8862   1.9329   2.1122   2.3274
     2.3829   2.5264   2.7525   2.7626   3.0682   3.1493   3.1831   3.4916
     3.6060   3.9647   3.9767   4.0055   4.1652   4.2432   4.2881   4.3586
     4.6047   4.6317   4.9290   5.2533   5.4361   5.7310   5.8344   5.9787
     6.1547   6.3339   6.4274

          k = 0.4000-0.0000 0.0000 ( 95308 PWs)   bands (ev):

   -13.1930 -10.4838  -7.3560  -6.8792  -5.6626  -5.6550  -5.6174  -4.8136
    -4.5828  -4.5780  -4.5694  -4.5423  -4.5197  -4.5047  -4.4915  -4.4027
    -4.3929  -4.3615  -4.1689  -4.0117  -3.9995  -3.9882  -3.9765  -3.9135
    -3.8942  -3.7650  -3.7473  -3.7463  -3.7327  -3.7236  -3.6510  -3.6372
    -3.6032  -3.5814  -3.5734  -3.5713  -3.5081  -3.4776  -3.4681  -3.4318
    -3.4061  -3.3336  -3.0905  -3.0045  -2.9952  -2.9746  -2.9643  -2.9440
    -2.9400  -2.9249  -2.8702  -2.8580  -2.7294  -2.7068  -2.6965  -2.6251
    -2.5971  -2.5720  -2.5294  -2.5175  -2.5049  -2.4500  -2.4203  -2.3098
    -2.2673  -2.2432  -2.1859  -2.1805  -2.1368  -2.1248  -2.1032  -2.0562
    -2.0341  -1.9924  -1.9042  -1.8894  -1.8590  -1.8320  -1.8006  -1.7938
    -1.7582  -1.7439  -1.7092  -1.6913  -1.6289  -1.5777  -1.5659  -1.5557
    -1.5413  -1.5311  -1.5101  -1.4780  -1.4664  -1.4329  -1.4113  -1.3900
    -1.3411  -1.3146  -1.3002  -1.2907  -1.2354  -1.2138  -1.2086  -1.1844
    -1.1702  -1.1526  -1.1335  -1.1185  -1.1024  -1.0973  -1.0726  -1.0276
    -1.0110  -0.9495  -0.9291  -0.9125  -0.8799  -0.8226  -0.8008  -0.7843
    -0.6859  -0.6154  -0.5817  -0.5484  -0.4637  -0.4496  -0.4233  -0.4100
    -0.3833  -0.3590  -0.3458  -0.3188  -0.3060  -0.2674  -0.2171  -0.1937
    -0.1098  -0.0640  -0.0164   0.0043   0.0262   0.0575   0.0836   0.1079
     0.1776   0.2054   0.2304   0.2743   0.2917   0.3218   0.3645   0.4303
     0.4350   0.4580   0.4893   0.5060   0.5308   0.5364   0.5523   0.5623
     0.5753   0.5948   0.6414   0.6974   0.7636   0.8074   0.8674   0.9132
     0.9414   1.0027   1.0819   1.0983   1.1243   1.1382   1.2083   1.2215
     1.2357   1.2493   1.2727   1.2978   1.3043   1.3159   1.3228   1.3564
     1.3750   1.3835   1.4493   1.4821   1.4911   1.5215   1.5321   1.5735
     1.6579   1.7221   1.7627   1.7850   1.8318   1.8471   1.8500   1.9876
     1.9940   2.2771   2.5115   2.5271   2.8419   3.0481   3.0661   3.0973
     3.3680   3.7608   3.7773   3.9829   3.9928   4.0341   4.5492   4.7223
     5.1675   5.2001   5.3657   5.4346   5.7071   5.8603   5.9064   5.9646
     5.9970   6.0338   6.2365

          k = 0.4000 0.2309 0.0000 ( 95390 PWs)   bands (ev):

   -13.1930 -10.4838  -7.3568  -6.7422  -6.1085  -5.4926  -5.0687  -5.0387
    -4.9553  -4.7036  -4.6368  -4.5221  -4.3989  -4.3654  -4.3162  -4.3061
    -4.1849  -4.1569  -4.1216  -4.0872  -4.0807  -4.0596  -3.9688  -3.9299
    -3.9224  -3.8756  -3.8647  -3.8395  -3.8029  -3.7433  -3.7390  -3.7234
    -3.6442  -3.4810  -3.4786  -3.4721  -3.4673  -3.4464  -3.4455  -3.2321
    -3.2223  -3.1968  -3.1914  -3.1702  -3.1689  -2.9916  -2.9035  -2.9016
    -2.8809  -2.8743  -2.8364  -2.8234  -2.7646  -2.7485  -2.7361  -2.6916
    -2.6796  -2.5806  -2.5377  -2.5324  -2.5101  -2.4883  -2.3807  -2.3677
    -2.3311  -2.3141  -2.2978  -2.1740  -2.1479  -2.0907  -2.0803  -2.0691
    -2.0328  -1.9995  -1.9712  -1.9376  -1.8643  -1.8359  -1.8280  -1.7690
    -1.7466  -1.7105  -1.7019  -1.6898  -1.6645  -1.6549  -1.6166  -1.5961
    -1.5868  -1.5720  -1.5695  -1.5453  -1.5290  -1.4788  -1.4608  -1.4246
    -1.4101  -1.3976  -1.3932  -1.3510  -1.2684  -1.2640  -1.2385  -1.2111
    -1.1482  -1.1457  -1.1169  -1.1122  -1.0965  -0.9930  -0.9648  -0.9439
    -0.9225  -0.8678  -0.8512  -0.7950  -0.7642  -0.7027  -0.6693  -0.6519
    -0.6036  -0.5705  -0.5403  -0.5116  -0.4845  -0.4768  -0.4606  -0.4437
    -0.4005  -0.3937  -0.3844  -0.3528  -0.3502  -0.3221  -0.2916  -0.2684
    -0.1711  -0.1670  -0.1430  -0.1170  -0.0646   0.0316   0.0423   0.0597
     0.1407   0.1728   0.2456   0.2762   0.3056   0.3587   0.3748   0.3910
     0.4269   0.4329   0.4420   0.5007   0.5326   0.5684   0.5693   0.6388
     0.6698   0.6772   0.7014   0.7223   0.7560   0.7698   0.8423   0.9231
     0.9681   0.9823   0.9871   1.0059   1.0709   1.0927   1.1188   1.1272
     1.1973   1.2088   1.2217   1.2718   1.2866   1.3116   1.3277   1.3998
     1.4212   1.4444   1.4597   1.4740   1.4794   1.4911   1.4943   1.6727
     1.6750   1.6948   1.7154   1.7190   1.8862   1.9330   2.1304   2.3389
     2.3942   2.5024   2.7521   2.7619   3.0527   3.1464   3.1762   3.4859
     3.6110   3.9677   3.9742   4.0120   4.1587   4.2230   4.3096   4.3575
     4.6076   4.6263   4.9009   5.2666   5.4520   5.6043   5.8673   6.0251
     6.0597   6.4005   6.4349

          k = 0.4000-0.6928 0.0000 ( 95386 PWs)   bands (ev):

   -13.1930 -10.4837  -7.3560  -6.3575  -6.3338  -5.7421  -5.1692  -5.1092
    -4.7402  -4.5789  -4.4997  -4.4428  -4.3950  -4.2974  -4.2810  -4.2153
    -4.1829  -4.1485  -4.0797  -4.0664  -4.0548  -4.0334  -4.0090  -3.9975
    -3.9875  -3.8689  -3.8569  -3.8363  -3.8061  -3.7878  -3.7314  -3.6477
    -3.6402  -3.6012  -3.5519  -3.4576  -3.4489  -3.4429  -3.4262  -3.3995
    -3.3199  -3.3123  -3.2204  -3.1976  -3.0294  -3.0158  -2.9755  -2.9059
    -2.8825  -2.8276  -2.8113  -2.7200  -2.6834  -2.6335  -2.6279  -2.6156
    -2.5807  -2.5493  -2.5385  -2.4936  -2.4318  -2.4061  -2.3912  -2.3799
    -2.3739  -2.3563  -2.3487  -2.3125  -2.2692  -2.2075  -2.1538  -2.1227
    -2.1022  -2.0291  -1.9883  -1.9531  -1.9427  -1.9175  -1.9022  -1.8577
    -1.8359  -1.7840  -1.7489  -1.7458  -1.7293  -1.7025  -1.6731  -1.6191
    -1.6011  -1.5747  -1.5426  -1.5171  -1.5006  -1.4265  -1.3730  -1.3346
    -1.3226  -1.3073  -1.3046  -1.2901  -1.2571  -1.2388  -1.2117  -1.2013
    -1.1866  -1.1658  -1.1629  -1.1295  -1.1150  -1.0941  -1.0816  -1.0703
    -1.0595  -1.0295  -1.0182  -0.9849  -0.8878  -0.8104  -0.7033  -0.6787
    -0.6727  -0.6086  -0.5765  -0.5565  -0.5271  -0.5178  -0.4699  -0.4538
    -0.4380  -0.4099  -0.3846  -0.3328  -0.3185  -0.2758  -0.2630  -0.2065
    -0.1871  -0.1322  -0.1171   0.0071   0.0147   0.0545   0.0949   0.1157
     0.1588   0.1925   0.2081   0.2278   0.2368   0.2555   0.2805   0.3053
     0.3669   0.3942   0.4384   0.4591   0.4768   0.4919   0.5143   0.5236
     0.6192   0.6467   0.7048   0.7442   0.8394   0.8727   0.8896   0.9255
     0.9394   1.0144   1.0583   1.0751   1.1279   1.1654   1.2198   1.2393
     1.2650   1.2813   1.2860   1.3078   1.3331   1.3578   1.4370   1.4421
     1.4530   1.4809   1.4972   1.4997   1.5087   1.5687   1.6767   1.6852
     1.7106   1.7153   1.7239   1.7813   1.8334   1.9036   2.0417   2.6295
     2.8658   2.8689   3.0506   3.1298   3.2412   3.2601   3.2853   3.5191
     3.8651   3.8752   4.0176   4.3328   4.3471   4.4426   4.4776   4.5187
     4.6835   4.7812   4.8300   5.0404   5.2169   5.3196   5.4723   5.8402
     5.9418   5.9740   6.1573

          k = 0.4000-0.4619 0.0000 ( 95386 PWs)   bands (ev):

   -13.1930 -10.4837  -7.3546  -6.3528  -6.3411  -5.7400  -5.1758  -5.1106
    -4.7265  -4.5815  -4.5001  -4.4393  -4.3969  -4.3044  -4.2871  -4.2176
    -4.1848  -4.1330  -4.0803  -4.0680  -4.0572  -4.0291  -4.0162  -3.9964
    -3.9880  -3.8680  -3.8543  -3.8413  -3.8078  -3.7917  -3.7291  -3.6593
    -3.6271  -3.5995  -3.5491  -3.4626  -3.4470  -3.4424  -3.4245  -3.3988
    -3.3193  -3.3150  -3.2138  -3.1995  -3.0325  -3.0156  -2.9949  -2.8985
    -2.8738  -2.8259  -2.8156  -2.7199  -2.6852  -2.6368  -2.6265  -2.6031
    -2.5802  -2.5418  -2.5296  -2.5003  -2.4228  -2.4150  -2.3968  -2.3752
    -2.3729  -2.3605  -2.3433  -2.3069  -2.2674  -2.2197  -2.1562  -2.1040
    -2.0973  -2.0587  -1.9889  -1.9536  -1.9410  -1.9144  -1.8850  -1.8673
    -1.8426  -1.7599  -1.7522  -1.7427  -1.7141  -1.7011  -1.6768  -1.6333
    -1.5984  -1.5723  -1.5408  -1.5109  -1.4984  -1.4338  -1.3861  -1.3579
    -1.3270  -1.3086  -1.2988  -1.2745  -1.2624  -1.2412  -1.2166  -1.2087
    -1.1868  -1.1656  -1.1589  -1.1118  -1.1074  -1.0921  -1.0851  -1.0780
    -1.0522  -1.0185  -1.0058  -0.9827  -0.8975  -0.7964  -0.7516  -0.6932
    -0.6740  -0.6541  -0.5756  -0.5595  -0.5259  -0.4946  -0.4769  -0.4503
    -0.4433  -0.4081  -0.3787  -0.3426  -0.3146  -0.2888  -0.2602  -0.2038
    -0.1825  -0.1409  -0.0642  -0.0122   0.0421   0.0585   0.0997   0.1173
     0.1445   0.1894   0.2134   0.2329   0.2350   0.2673   0.2936   0.3118
     0.3650   0.4006   0.4330   0.4575   0.4789   0.4891   0.5044   0.5227
     0.5942   0.6529   0.6846   0.7620   0.8069   0.8516   0.8930   0.9271
     0.9394   1.0457   1.0589   1.0693   1.1035   1.1854   1.2111   1.2371
     1.2595   1.2820   1.2890   1.3096   1.3456   1.3633   1.4358   1.4423
     1.4555   1.4735   1.4973   1.5075   1.5168   1.5702   1.6770   1.6853
     1.7135   1.7178   1.7305   1.7825   1.8209   1.9044   2.0324   2.6341
     2.8658   2.8690   3.0602   3.1338   3.2428   3.2582   3.2752   3.5003
     3.8668   3.8813   4.0351   4.3131   4.3530   4.4613   4.4770   4.5203
     4.6921   4.7735   4.8475   5.0448   5.2549   5.2962   5.4810   5.8638
     5.9280   5.9761   6.0995

     the Fermi energy is     1.4852 ev

!    total energy              =  -27817.35097255 Ry

     total all-electron energy =  -1326877.408663 Ry
     estimated scf accuracy    <       0.00000074 Ry
     smearing contrib. (-TS)   =       0.00331729 Ry
     internal energy E=F+TS    =  -27817.35428984 Ry

     The total energy is F=E-TS. E is the sum of the following terms:
     one-electron contribution =  -30622.26705942 Ry
     hartree contribution      =   15610.65166678 Ry
     xc contribution           =    -908.13807726 Ry
     ewald contribution        =   13595.99594044 Ry
     one-center paw contrib.   =  -25493.59676039 Ry

     convergence has been achieved in  22 iterations

     negative rho (up, down):  1.280E-02 0.000E+00

     Forces acting on atoms (cartesian axes, Ry/au):

     atom    1 type  1   force =     0.00064439    0.00070996   -0.00354031
     atom    2 type  1   force =    -0.00011996    0.00071334   -0.00365544
     atom    3 type  1   force =    -0.00003016    0.00010265   -0.00314650
     atom    4 type  1   force =     0.00013409    0.00003691   -0.00675774
     atom    5 type  1   force =    -0.00056055    0.00002127   -0.00341936
     atom    6 type  1   force =     0.00088996    0.00025089   -0.00364144
     atom    7 type  1   force =    -0.00026030   -0.00039673   -0.00337379
     atom    8 type  1   force =     0.00018355    0.00018557   -0.00341862
     atom    9 type  1   force =     0.00040257   -0.00035652   -0.00360536
     atom   10 type  1   force =    -0.00031127   -0.00021586    0.00082603
     atom   11 type  1   force =    -0.00016675   -0.00047800    0.00255737
     atom   12 type  1   force =    -0.00004921   -0.00006682    0.00305819
     atom   13 type  1   force =    -0.00045447   -0.00015699   -0.00077643
     atom   14 type  1   force =     0.00026162    0.00166141    0.00972658
     atom   15 type  1   force =    -0.00033890   -0.00017737    0.00136183
     atom   16 type  1   force =     0.00148195   -0.00094952    0.00941973
     atom   17 type  1   force =    -0.00177740   -0.00129247    0.01029142
     atom   18 type  1   force =    -0.00040858   -0.00019185    0.00280862
     atom   19 type  1   force =     0.00006714    0.00013126   -0.00061384
     atom   20 type  1   force =    -0.00013496    0.00009587   -0.00058899
     atom   21 type  1   force =    -0.00017335   -0.00006251   -0.00052821
     atom   22 type  1   force =    -0.00002943   -0.00009128   -0.00061628
     atom   23 type  1   force =    -0.00026774   -0.00021544   -0.00020161
     atom   24 type  1   force =     0.00023065   -0.00012301    0.00020456
     atom   25 type  1   force =    -0.00023593    0.00005628   -0.00035403
     atom   26 type  1   force =     0.00005075    0.00042425    0.00012307
     atom   27 type  1   force =    -0.00007287    0.00006199   -0.00055238
     atom   28 type  1   force =    -0.00009113    0.00026934   -0.00017482
     atom   29 type  1   force =     0.00020363    0.00011639   -0.00028029
     atom   30 type  1   force =    -0.00010302    0.00015488   -0.00013991
     atom   31 type  1   force =    -0.00006296    0.00011870   -0.00022058
     atom   32 type  1   force =    -0.00022237   -0.00027343   -0.00013840
     atom   33 type  1   force =     0.00017992   -0.00004925   -0.00024153
     atom   34 type  1   force =    -0.00018086    0.00003499   -0.00010842
     atom   35 type  1   force =     0.00009307    0.00030676   -0.00100425
     atom   36 type  1   force =     0.00009736    0.00008690   -0.00025708
     atom   37 type  2   force =    -0.00017477   -0.00136174    0.00249734
     atom   38 type  2   force =     0.00107157   -0.00020585    0.00183992
     atom   39 type  2   force =     0.00087878   -0.00361369    0.00318186
     atom   40 type  3   force =    -0.00007318    0.00014966   -0.00053612
     atom   41 type  3   force =     0.00026710    0.00035536   -0.00015794
     atom   42 type  3   force =    -0.00029388    0.00007027   -0.00096072
     atom   43 type  3   force =     0.00034514    0.00015108   -0.00080182
     atom   44 type  3   force =    -0.00088920    0.00401233   -0.00408429

     Total force =     0.008766     Total SCF correction =     0.002548
     SCF correction compared to forces is large: reduce conv_thr to get better values

     negative rho (up, down):  1.280E-02 0.000E+00

     negative rho (up, down):  1.280E-02 0.000E+00

     negative rho (up, down):  1.280E-02 0.000E+00

     negative rho (up, down):  1.280E-02 0.000E+00

     negative rho (up, down):  1.280E-02 0.000E+00

     negative rho (up, down):  1.280E-02 0.000E+00

     negative rho (up, down):  1.280E-02 0.000E+00

     negative rho (up, down):  1.280E-02 0.000E+00

     negative rho (up, down):  1.280E-02 0.000E+00

     negative rho (up, down):  1.280E-02 0.000E+00

     negative rho (up, down):  1.280E-02 0.000E+00

     negative rho (up, down):  1.280E-02 0.000E+00

     negative rho (up, down):  1.280E-02 0.000E+00

     negative rho (up, down):  1.280E-02 0.000E+00

     negative rho (up, down):  1.280E-02 0.000E+00

     negative rho (up, down):  1.280E-02 0.000E+00

     negative rho (up, down):  1.280E-02 0.000E+00

     negative rho (up, down):  1.280E-02 0.000E+00

     negative rho (up, down):  1.280E-02 0.000E+00

     negative rho (up, down):  1.280E-02 0.000E+00

     negative rho (up, down):  1.280E-02 0.000E+00

     negative rho (up, down):  1.280E-02 0.000E+00

     negative rho (up, down):  1.280E-02 0.000E+00

     negative rho (up, down):  1.280E-02 0.000E+00

     negative rho (up, down):  1.280E-02 0.000E+00

     negative rho (up, down):  1.280E-02 0.000E+00

     negative rho (up, down):  1.280E-02 0.000E+00

     negative rho (up, down):  1.280E-02 0.000E+00

     negative rho (up, down):  1.280E-02 0.000E+00

     negative rho (up, down):  1.280E-02 0.000E+00

     negative rho (up, down):  1.280E-02 0.000E+00

     negative rho (up, down):  1.280E-02 0.000E+00

     negative rho (up, down):  1.280E-02 0.000E+00

     negative rho (up, down):  1.280E-02 0.000E+00
 BEEFens 2000 ensemble energies
             -0.608209403820525E+02
             -0.361255782312168E+01
             -0.158481628563576E+02
              0.430383104871967E+02
             -0.221673185146969E+02
             -0.205485878555173E+02
             -0.353441965886319E+02
             -0.867042538642106E+02
             -0.465370206130563E+02
             -0.473142011825383E+02
             -0.370083105183333E+02
              0.231003451895177E+01
              0.407495092075973E+01
              0.759073592282371E+01
              0.266107453391484E+01
              0.475926387486129E+02
             -0.209027005848997E+02
             -0.229913184298210E+02
              0.193618516526227E+02
             -0.112609203357773E+03
              0.537483061511845E+02
             -0.290116371449445E+02
             -0.335808531073008E+01
             -0.114255639079569E+02
             -0.879722558258914E+01
             -0.461040016846067E+01
              0.884495440206284E+02
             -0.188073741226065E+02
             -0.899446366799248E+01
             -0.519592902937311E+02
              0.816391628104177E+02
             -0.186889929037903E+02
             -0.375745653526720E+02
              0.249273749553035E+02
             -0.285318739760339E+01
              0.165018182990555E+02
             -0.483870435659713E+01
              0.107853927406819E+02
              0.289646077467341E+02
             -0.103435840257362E+03
              0.559649681610729E+02
              0.142672366840620E+02
             -0.178256492312516E+01
             -0.361812162043049E+02
              0.123511105468138E+02
             -0.147483915786963E+02
              0.399565453303279E+02
              0.365428777389047E+02
             -0.308197920925525E+02
             -0.275704003550147E+02
             -0.329174855636421E+02
             -0.353067560258674E+02
              0.137315773391119E+02
             -0.491770432958750E+02
              0.116037280982862E+02
              0.624361263022975E+02
              0.637186449747958E+02
              0.356544490992981E+02
              0.154208793877472E+02
              0.271471766293412E+02
              0.893548530822751E+02
              0.212543983323233E+02
             -0.549610956667652E+02
             -0.157116049808278E+02
             -0.236664946277262E+02
              0.630904477801452E+02
             -0.774495913119126E+02
             -0.673062649118747E+02
             -0.260635785576102E+02
             -0.657375716047898E+01
             -0.471067082189944E+02
              0.271314755915620E+02
              0.804390755089639E+01
              0.871118466109192E+01
             -0.398249144976725E+02
             -0.347566307776174E+02
             -0.543259469532272E+02
              0.390688040227803E+02
             -0.296886987058441E+02
              0.266325041416253E+02
             -0.720103370421949E+01
             -0.318427118441343E+02
             -0.576794007604338E+02
             -0.176798959918330E+02
             -0.908211893786051E+01
             -0.124682881283034E+02
              0.413134699440485E+02
              0.684866768850124E+02
             -0.386585208155351E+02
             -0.796029203897587E+02
             -0.219925395058816E+02
              0.111702681957140E+03
             -0.593867885262026E+02
              0.356720915998865E+02
             -0.959651460380871E+01
             -0.664089676849418E+02
              0.254849272609380E+02
              0.398290510719020E+02
             -0.199252980893449E+02
              0.400750908904438E+02
             -0.296299400708137E+02
             -0.479780336409093E+02
              0.868270156751607E+02
              0.454698195905546E+02
              0.336654201312616E+02
              0.146551865901895E+02
              0.206371723015456E+02
              0.858011831994795E+02
             -0.257309500863745E+02
              0.789079505384403E+01
             -0.142651102639846E+03
              0.181231979130902E+02
             -0.717418584063267E+02
              0.151308401820324E+02
              0.205101196823490E+02
             -0.333746156077063E+02
             -0.558117213169195E+02
              0.652015885706749E+01
             -0.304969085211020E+02
              0.308941665762526E+02
             -0.530780624280463E+02
              0.167595081863851E+01
             -0.357682075752901E+02
             -0.423320712494643E+01
             -0.100462221079462E+01
              0.182135999579961E+02
              0.143088297012400E+01
             -0.651619467857631E+01
              0.592084631791905E+02
              0.910207553034616E+02
              0.485269913156720E+02
              0.831136740606948E+02
             -0.115335635791544E+02
              0.143001170016732E+02
              0.542033146530410E+02
             -0.110322248021998E+02
             -0.737504443514499E+02
             -0.385434068897801E+02
             -0.522927957538902E+02
             -0.277310956791227E+02
              0.327867819901272E+02
             -0.117024242054477E+03
             -0.187516540501754E+02
              0.415037274160628E+02
             -0.387016017519320E+02
             -0.365912023437444E+02
              0.545693919867450E+02
              0.401612301593997E+02
             -0.354684525943104E+02
              0.138947161197128E+02
             -0.273949703593741E+02
              0.343913929196982E+02
              0.444170811062918E+01
              0.210997542968493E+02
             -0.886367701303490E+02
             -0.480994028832204E+02
             -0.998573594918105E+01
              0.317645065748214E+01
             -0.367650999806739E+02
              0.106264029666883E+03
             -0.230945231860931E+02
             -0.399278866364187E+02
              0.389309413884446E+02
             -0.494865476495946E+02
             -0.364275303148689E+02
              0.325557480641584E+02
              0.124841251426517E+02
              0.164971953272044E+02
              0.117164391387122E+02
             -0.133050993000425E+02
              0.225166492537219E+02
              0.591058621919685E+02
             -0.311891430702333E+02
              0.162836172474485E+02
              0.936283968728659E+02
              0.341502986330348E+02
             -0.728348504639553E+01
             -0.189215967445081E+02
              0.153661021218469E+03
             -0.164849939498868E+02
              0.364276405379758E+02
              0.195279136106707E+02
              0.361719821232333E+02
              0.893654430755596E+02
              0.543712436345535E+02
             -0.238858437228837E+01
              0.228405690530623E+02
              0.486077693963273E+02
              0.364136051004152E+02
             -0.526878494406777E+02
              0.937985826926158E+02
             -0.827513518613010E+02
             -0.197994698712745E+02
              0.583712569917139E+02
              0.684719552392831E+01
              0.790007922896348E+01
              0.341032482784283E+02
              0.299456281388534E+02
              0.354174913359715E+02
             -0.638690027930088E+02
              0.286387979867436E+01
             -0.298061980012023E+02
             -0.868133403351737E+01
             -0.147554201287062E+01
             -0.728457143905062E+01
             -0.417009499950530E+01
              0.861039844054117E+02
             -0.101082478790830E+02
             -0.276851987634807E+02
             -0.496209415088282E+01
              0.140275498976561E+02
             -0.565276856610545E+02
             -0.408918633018110E+02
             -0.382604329506612E+02
             -0.631611203957782E+02
             -0.170027866492317E+02
             -0.448231769980084E+02
              0.163564997689001E+02
             -0.237514837880117E+01
             -0.104754388504382E+02
             -0.935168667484385E+01
              0.808136375401449E+01
             -0.242539138935696E+02
              0.690825036057911E+02
             -0.809230983492890E+02
             -0.141355952236440E+02
             -0.174101421097400E+02
              0.182193942975412E+02
              0.215351030999092E+02
             -0.464782500441070E+02
             -0.201893198431515E+02
              0.441854162605203E+02
             -0.276440081260692E+02
              0.187452519589519E+02
              0.383342287543438E+02
             -0.322809328975393E+01
              0.114350892760147E+03
             -0.229739028990545E+02
             -0.341532596111605E+02
              0.576287254653550E+01
             -0.229004709120812E+02
              0.528625831066019E+02
             -0.338618106577191E+02
              0.106951959059675E+02
              0.641024205920946E+02
             -0.126461713228117E+02
              0.120480363241983E+03
              0.126126341074108E+03
             -0.651371829580703E+02
              0.591840370010106E+02
              0.167238546458630E+02
             -0.519007616998751E+02
              0.216230370374093E+02
              0.355269145076566E+02
              0.363887206523849E+02
              0.134353250923837E+01
              0.160479536223645E+02
              0.697642192567062E+02
             -0.247446384998418E+02
              0.181549284432453E+02
              0.739960744853098E+02
             -0.373094764335029E+02
             -0.130602711837300E+02
              0.510103320146665E+02
              0.298101796634934E+02
              0.781494579425926E+02
              0.223720936361850E+02
              0.631109398283940E+01
              0.280748554621795E+02
              0.384292307522365E+02
             -0.473476971924399E+02
              0.335906877852182E+01
              0.131014058275287E+02
              0.114051280408501E+02
              0.221220898715476E+02
             -0.576417878293075E+02
              0.366514947295767E+02
             -0.444627447674803E+02
             -0.348238089913462E+02
              0.178826647299798E+02
             -0.181355039635982E+02
              0.556553126164382E+02
             -0.255814737126250E+02
              0.267423194835683E+02
              0.368693991724189E+02
              0.830642877584154E+02
              0.575711944035903E+02
              0.462943776674302E+02
             -0.104965422288897E+02
             -0.395526233635940E+01
             -0.332805517091786E+02
              0.752571598473527E+02
              0.798766665141998E+02
              0.362779563251831E+02
             -0.192755009791234E+02
              0.512744018595418E+02
             -0.162427507304867E+02
              0.214783460299752E+02
              0.616076004015790E+02
              0.212751420993277E+01
             -0.104570918740307E+02
             -0.283046768104857E+02
             -0.513495334903930E+02
              0.947432011850649E+02
              0.441312701596014E+02
             -0.560651504686157E+02
             -0.968882777825172E+01
              0.250120541175373E+02
             -0.997248462472291E+01
              0.593494157416653E+02
              0.152318708026042E+02
              0.800767793969553E+02
              0.280549538468947E+02
             -0.263940512511840E+02
              0.248905603144038E+02
             -0.502944110038845E+01
             -0.323748684036287E+02
              0.133379359699006E+02
              0.205673440946550E+02
              0.935110764214592E+02
              0.798864139476287E+02
              0.552382988948335E+02
              0.731784551872779E+02
              0.804003507337978E+01
             -0.274292521444463E+02
              0.163430289330527E+02
             -0.368450134089638E+02
             -0.477786340300878E+02
             -0.564503178054832E+02
             -0.267281652544538E+02
             -0.109918278861855E+03
             -0.292477687120437E+02
             -0.839268683359862E+02
              0.210723353240406E+02
             -0.477942168167250E+02
              0.398160016255215E+02
             -0.943788641532382E+02
             -0.330730028611279E+02
              0.548713646694928E+02
              0.208030971349305E+02
             -0.832770777724575E+02
              0.631703523543931E+02
             -0.257507617364076E+02
              0.513563906318788E+02
             -0.242663818255493E+02
             -0.752951154675884E+02
              0.112122214350465E+02
             -0.612622976327688E+02
             -0.167787908378875E+02
             -0.151668280870913E+01
              0.418815788667689E+02
              0.127275678903196E+03
             -0.462426880704803E+02
             -0.363216711998438E+02
             -0.100444458877695E+01
             -0.130334286274285E+02
             -0.824191915186864E+02
             -0.597816720631005E+02
              0.518046696897959E+02
             -0.289065332871070E+02
              0.170045993731872E+02
             -0.490280610189490E+02
             -0.132328535901505E+02
             -0.437994535709638E+02
              0.566515245059036E+02
              0.150805179824823E+02
             -0.232254239798875E+02
             -0.127609009312530E+02
              0.671913862726328E+01
             -0.619830675745391E+01
              0.442210838328059E+02
             -0.252472344567576E+02
              0.284833320627001E+01
              0.340350438296710E+02
              0.171190112309667E+02
             -0.160675617713000E+02
              0.156577770608134E+03
              0.539692712373054E+02
              0.119546296193079E+01
              0.161499465811723E+02
             -0.616212327895580E+02
              0.315763779951581E+02
             -0.723477260732799E+02
             -0.252894728848742E+02
             -0.524054451904257E+02
             -0.220573625175838E+02
              0.570671063483231E+02
             -0.538305151750218E+02
              0.161783460426926E+02
             -0.412172893564218E+01
              0.385874655967606E+01
             -0.434347308113176E+02
             -0.479107040410814E+02
             -0.406894182639292E+01
             -0.425053222515416E+02
             -0.217340456771774E+02
             -0.439382757418844E+02
             -0.119262781374268E+02
             -0.359610566835178E+02
             -0.517441371127972E+02
              0.212978073679237E+02
             -0.209126241159457E+02
              0.188517992146163E+02
              0.975923998958697E+01
             -0.739752396814337E+02
             -0.548949744107206E+02
             -0.399724578474051E+02
              0.354545851555883E+02
              0.267342608284409E+01
             -0.627643954291922E+02
              0.587165101918304E+02
             -0.402065510608551E+02
              0.546406337126984E+02
             -0.290452787820636E+02
             -0.446879364697184E+02
              0.298573996294892E+02
             -0.659140330314995E+02
             -0.380516933588330E+02
              0.673768290859757E+02
              0.204617187894586E+02
             -0.361568193253778E+02
              0.490884604961785E+02
             -0.174444392344203E+02
             -0.323845718658790E+02
             -0.302340113016923E+02
             -0.501825569659264E+02
              0.250284467791670E+02
             -0.935013967131792E+02
             -0.841633637817885E+02
             -0.736852994478068E+01
             -0.307430517180642E+02
             -0.577110901029054E+02
              0.723443847342403E+02
              0.131833281942549E+03
             -0.361065046529983E+02
             -0.257516754346989E+01
             -0.638262027280315E+02
              0.652000369743498E+02
              0.171260683380589E+02
             -0.182485938781984E+02
             -0.410711324231858E+02
              0.148828668416606E+02
             -0.587171304232787E+02
             -0.198102535275032E+02
             -0.906193415248337E+02
              0.337766573832826E+02
              0.168966807738481E+02
              0.183027207797500E+01
             -0.712395821915970E+01
             -0.330972898858038E+02
             -0.764057068886535E+01
              0.125853999628650E+03
             -0.199240797873000E+02
             -0.438871426851262E+02
             -0.685545697933209E+02
              0.109720313928938E+02
             -0.343241511600159E+02
              0.595284213392668E+01
              0.262272820819838E+02
              0.102382946962330E+02
              0.278864933880083E+02
              0.120526347427304E+02
              0.630869193351609E+02
              0.316987170249187E+02
             -0.327557372936740E+02
              0.357309272031845E+02
              0.380148058488859E+02
              0.121074022985109E+02
              0.487836581071424E+02
             -0.225827823027925E+02
              0.767165598734755E+02
              0.173124611609362E+02
             -0.272964068047826E+02
             -0.725406517738801E+01
             -0.186850511632296E+02
              0.261985398223813E+02
             -0.234626607039348E+02
             -0.187556482628111E+00
             -0.852527727127597E+01
              0.811356019531534E+02
              0.501382998272476E+02
             -0.687924205710068E+02
             -0.480445718927257E+01
             -0.556209561435675E+02
             -0.159491328262378E+02
             -0.268810831213028E+02
              0.379132232063159E+01
              0.606302160244164E+00
             -0.258410164937885E+02
              0.820073408817669E+01
             -0.605000887064449E+01
             -0.128496488974476E+02
              0.860767910847835E+02
              0.181942576519264E+02
             -0.809164644945659E+02
             -0.459135036714544E+02
              0.947339372871115E+02
              0.278398451955493E+02
             -0.107016793160165E+02
              0.104804798322339E+03
             -0.194739659993388E+02
             -0.123131362946622E+02
             -0.544104641688114E+01
              0.107846888580684E+02
              0.273516471561605E+02
              0.780955566677204E+01
              0.305937256394736E+02
             -0.187980560026462E+02
             -0.305090782917455E+02
             -0.418944467460053E+02
             -0.477852191177166E+02
              0.464825817502867E+02
              0.127063422856514E+02
              0.388495063426287E+02
              0.133910794180480E+02
              0.857706564465930E+02
              0.156905905765315E+02
             -0.847825041985502E+02
             -0.335185812058889E+02
              0.133501072879805E+02
             -0.303348692304219E+02
              0.628049039216753E+02
             -0.889344013110917E+01
              0.148959653823168E+02
              0.498508718903504E+02
             -0.709157973166011E+02
              0.150047415809002E+03
              0.209197811846489E+02
              0.271828024020670E+02
              0.348579021253776E+02
              0.103683656580341E+02
             -0.155324220207831E+01
              0.358916404334445E+02
             -0.358154268551958E+02
              0.775457771604521E+02
              0.686777965854509E+02
             -0.406981925076231E+02
              0.149923513270413E+02
              0.671749812494209E+02
             -0.224217496418015E+02
              0.155009509242599E+02
              0.435482236064581E+02
              0.422902588301874E+02
             -0.786413990535622E+02
             -0.152705307710191E+02
             -0.356355380717170E+02
             -0.150033868696619E+01
             -0.769537683382500E+01
             -0.537889838211663E+01
             -0.180627953623821E+02
             -0.294806977348817E+02
              0.641446115632017E+01
              0.111707133928145E+02
              0.536836877990809E+02
             -0.391535436017995E+02
              0.375909357757423E+02
              0.439816774105590E+02
             -0.186293628876555E+02
              0.873588052574106E+02
             -0.699373213331959E+02
             -0.103412950893622E+03
             -0.663453703932202E+01
             -0.270872405393243E+01
              0.384344064973118E+01
              0.791488913186747E+02
             -0.106902958638961E+02
              0.417751682601099E+02
              0.445297659439058E+02
              0.386118857675133E+02
             -0.998270778030439E+01
              0.628468034535477E+02
             -0.134023750712371E+02
             -0.308449890595397E+02
             -0.479843770893850E+02
              0.591799862215485E+01
              0.369912407168866E+02
             -0.602077012965759E+01
              0.393424214940597E+02
             -0.175137685961397E+01
              0.656189134110474E+02
              0.187367340751132E+02
              0.100074007129266E+02
             -0.121625531985781E+02
              0.332698186652247E+02
              0.363427298794877E+02
              0.232795591604388E+02
             -0.514865457452089E+00
             -0.551849327252912E+02
              0.261467680807740E+02
              0.175676737466176E+02
              0.403086596452460E+02
              0.272782147080503E+02
              0.373292155086944E+02
             -0.605274028084659E+01
              0.252204942769715E+02
             -0.299414722806007E+02
             -0.198184641586056E+01
             -0.570297577750584E+02
             -0.308528007960250E+02
              0.379686590359837E+02
             -0.937569490387723E+02
              0.294767827796825E+02
              0.184369558681833E+02
              0.842397658471012E+02
             -0.300173948103580E+02
              0.330430275056044E+02
             -0.137921008512606E+02
             -0.465119366411838E+02
             -0.762653111082824E+02
             -0.533005503648269E+01
             -0.862156192253021E+02
              0.199630411212846E+02
             -0.247939093345795E+02
              0.306638121650316E+02
              0.237877673497142E+02
             -0.242058808738288E+02
             -0.266426465110459E+02
              0.391831994101169E+02
             -0.589884303081095E+02
             -0.117234247609354E+02
             -0.196439468270236E+02
              0.213548314480606E+02
             -0.884977166949386E+01
              0.362772558452525E+01
             -0.200811090497893E+02
              0.559977975292669E+02
             -0.441582374746641E+02
              0.788560418867633E+01
              0.587009028993891E+02
             -0.324374741954989E+02
              0.362792582588349E+01
             -0.878636233280508E+01
             -0.670623462716988E+02
             -0.482894536854312E+02
             -0.859152781580579E+01
              0.241663561858746E+02
              0.303319027302410E+02
              0.861669010657613E+01
             -0.418677514574983E+01
              0.152070737874059E+02
             -0.440520523102165E+02
              0.329594807047067E+01
             -0.532369566436385E+02
             -0.325517029979639E+02
              0.475962137288016E+02
             -0.295841907073118E+02
              0.624332887221162E+02
             -0.215558822513623E+02
              0.354134672237983E+02
              0.242389972300362E+02
             -0.645455854654962E+02
             -0.280710436060683E+02
              0.935596776005389E+01
             -0.373094641182745E+02
             -0.340494541020875E+02
             -0.832183309089264E+02
             -0.540466659165133E+02
             -0.511544883482963E+02
             -0.416593203374164E+02
             -0.991350904318864E+00
              0.100347793807581E+02
              0.111128425174343E+01
              0.154180004106305E+02
             -0.550693030241917E+02
              0.142352337716413E+02
              0.257999033401987E+02
             -0.668281723411488E+02
             -0.703127503828858E+02
             -0.432435358218838E+02
             -0.173166262614754E+02
              0.178616664924795E+02
              0.454148594616436E+01
             -0.426467075439756E+02
              0.366543522491237E+02
             -0.216855020192054E+02
              0.518592507149538E+02
             -0.889297292707480E+02
              0.599551482958092E+02
             -0.219672389961123E+01
             -0.369643689230325E+02
             -0.216763824728874E+02
              0.470624343657187E+01
              0.375795984496549E+02
             -0.757891027278461E+02
             -0.120942883502017E+02
             -0.217144510548799E+02
              0.511842024733632E+02
              0.866736027104934E+02
             -0.967853927437525E+02
              0.945979962423626E+02
              0.468159228032624E+02
             -0.727144764733099E+02
             -0.367107652130180E+02
              0.753894048426574E+02
              0.633202646117670E+02
             -0.181922637609637E+02
             -0.464745014577551E+01
              0.738471101556239E+01
              0.651124295642296E+02
             -0.509955951004865E+02
              0.158514398785849E+02
[...]
              0.283883087986160E+02
              0.142061791682396E+03
              0.243274220653652E+02
              0.122936994372956E+02
             -0.465091018838637E+02
             -0.638635619905583E+02
             -0.189322519488934E+02
              0.330499018395450E+02
             -0.428973775820396E+01
              0.191029655012061E+02
              0.337059114934277E+02
             -0.587264886836458E+02
              0.223079003223430E+02
              0.582025508121251E+02
              0.553684249455602E+02
             -0.421436213381401E+01
             -0.133503019786235E+01
             -0.994875526699673E+01
             -0.483089708346635E+02
             -0.676473405114043E+02
              0.786753373378721E+02
             -0.525089993511446E+01
             -0.588750154582693E+02
              0.175612319025697E+01
             -0.206042408678506E+02
              0.940148694159628E+02
             -0.217184066173821E+02
             -0.354460009742439E+02
              0.336330908019131E+02
             -0.146238556044566E+02
              0.390567225331474E+02
             -0.230882708672669E+01
              0.101237152787955E+03
              0.490956302654366E+02
             -0.503207618552099E+01
             -0.322872230136607E+02
              0.232986793014267E+02
             -0.529589186121272E+02
             -0.127851529299772E+02
              0.587051604666062E+02
             -0.288265750758163E+02
             -0.439061150259109E+02
             -0.223793608689449E+02
              0.519551798045815E+02
              0.124769812721515E+02
             -0.850254520801408E+02
              0.304630513535967E+02
              0.151966433165364E+02
              0.581438331622894E+01
             -0.514502545973863E+02
             -0.374613810455679E+01
              0.323693254775125E+02
              0.513355188440983E+02
              0.634292753445991E+02
              0.229916122250011E+02
              0.760076457915176E+00
             -0.499409697979341E+02
             -0.510905990795883E+02
             -0.748673429749923E+02
             -0.622605113536144E+01
              0.309810536423493E+02
             -0.377752467302184E+01
              0.547847885519261E+02
             -0.318706555866404E+02
              0.166651103281604E+02
             -0.103559097146655E+02
             -0.290231039531716E+02
              0.586957018374958E+02
              0.792798989778146E+01
              0.605795678583580E+02
              0.510435929400910E+01
              0.265206139318816E+02
             -0.192998635119706E+02
              0.587200999946261E+02
             -0.112224779097016E+02
             -0.996888642410099E-01
             -0.791702777893788E+02
             -0.128360631950355E+02
              0.720291811427284E+02
              0.674101172343831E+02
              0.252613334755195E+02
             -0.130691296817515E+02
              0.348567680576446E+01
             -0.174270708376045E+02
             -0.215020324062007E+01
              0.909809757093469E+02
              0.128467532536195E+01
             -0.191202920336826E+02
             -0.110935535056918E+03
             -0.552885504618447E+02
             -0.375889764836807E+02
             -0.659459896611928E+02
             -0.556897326017623E+02
             -0.683812223347743E+02
             -0.448103541102923E+02
             -0.411171844464046E+02
             -0.452916178021281E+02
              0.484399410937384E+02
             -0.294121018409353E+02
             -0.996038901749588E+02
              0.419711181645023E+02
             -0.260901931258550E+02
             -0.792303880047347E+02
              0.945737732821980E+02
             -0.220337933553116E+02
              0.228131416035867E+02
              0.455602668289124E+02
             -0.126059754400302E+01
              0.255132459975362E+02
              0.470322830586193E+01
              0.416705806593356E+00
             -0.151139447838271E+02
             -0.717488103192308E+02
              0.133395132945645E+02
             -0.129585287662992E+03
              0.626105919405848E+02
             -0.441470652897542E+02
             -0.163482893523598E+02
             -0.158617405768828E+02
              0.722518742081791E+01
             -0.227871206171832E+02
              0.297358245482884E+02
             -0.521752379578420E+02
              0.367726990101204E+02
              0.372126897009548E+02
              0.168102821791334E+02
              0.100963674210423E+02
              0.198287908970777E+02
              0.625972973112704E+01
              0.310648144775859E+02
             -0.798724138444530E+01
             -0.594434104374830E+02
              0.758994248951524E+01
             -0.153486691373080E+02
             -0.195082901823645E+01
              0.507829002741051E+02
             -0.828303295328528E+02
             -0.145766667266406E+01
              0.595686390743253E+00
              0.998078564210493E+01
              0.318933431198641E+02
             -0.123811978087784E+02
              0.837230294836652E+02
              0.487810585032011E+02
             -0.183261374284272E+02
             -0.953738261761600E+01
              0.108489252087531E+01
              0.770883471462828E+02
             -0.586925464407193E+02
             -0.105947084176114E+03
              0.309883340988101E+02
             -0.163537876823836E+02
             -0.140085196663285E+02
              0.130955424586668E+02
              0.769768356988708E+02
              0.464850306319996E+02
             -0.153710906769694E+02
             -0.504243021748442E+02
             -0.553709461406272E+01
              0.306879847458384E+02
             -0.112065889430359E+02
             -0.757334443945826E+02
             -0.276493873026368E+01
             -0.892092203717581E+02
             -0.476702114971763E+02
              0.770627364039156E+02
             -0.484731892568735E+02
             -0.638102613949369E+02
             -0.515359751324661E+02
             -0.350716028938351E+02
              0.341878636442189E+02
              0.823347142751949E+02
             -0.363117966583246E+01
              0.277053160989173E+02
             -0.184394272099281E+02
             -0.695373515900141E+02
              0.466145885810760E+02
             -0.446154324387167E+02
              0.321888406094472E+02
              0.376472196074322E+02
             -0.660314839055894E+01
              0.390706127507902E+02
              0.438818193475416E+02
              0.100958644513328E+03
             -0.155881577703458E+02
             -0.457787624806328E+02
             -0.614047153317696E+02
             -0.124431101421635E+02
             -0.234264766700093E+02
              0.103163618010183E+03
             -0.450057043163754E+02
              0.105350717954139E+02
              0.969291954704755E+01
             -0.264835764795161E+02
             -0.800941282293054E+02
             -0.700857783396594E+01
              0.981918678819731E+02
              0.945642412944645E+01
              0.808656563751646E+01
             -0.528579491679721E+02
             -0.606448151567636E+02
             -0.569401429675253E+01
              0.501246669389450E+02
             -0.222518096444125E+02
              0.108149323928924E+03
             -0.437046749926294E+02
              0.146746371923705E+02
             -0.223931220283719E+02
             -0.719685075448297E+02
              0.169969890051095E+01
             -0.502848991208466E+02
             -0.762036721478114E+02
              0.620881182665806E+01
              0.236171491194659E+01
              0.515125735752592E+02
              0.187902788631543E+02
             -0.324441769624054E+02
              0.230260260785481E+02
             -0.813202115489950E+02
             -0.522385322949739E+02
              0.903512924027505E+02
              0.141969474494328E+02
             -0.187764464610329E+02
             -0.352625564069341E+02
             -0.270964129366064E+01
             -0.591042474023720E+01
              0.832579434479100E+02
              0.418710991106320E+02
             -0.165859220641095E+02
             -0.121424592061139E+02
             -0.428138368657155E+02
             -0.200505887371530E+02
             -0.670914774963269E+02
              0.460886031363644E+02
              0.548726519553159E+01
              0.144868822216481E+02
              0.156750825038870E+02
             -0.614596787846388E+00
             -0.169020403425260E+02
             -0.300196115129310E+01
             -0.100671775641908E+03
             -0.230030988773127E+02
             -0.769955777256945E+01
             -0.948890848074848E+01
              0.546813399996619E+02
              0.625356001503838E+02
              0.165230193482379E+02
             -0.972327511119667E+02
              0.648615182389727E+02
             -0.215377277525342E+02
             -0.377709472156732E+02
             -0.865876968682891E+02
             -0.387088420552027E+02
              0.566217632825037E+02
              0.245278538356056E+02
              0.518250916136873E+01
              0.293069833676682E+02
             -0.565981156222340E+02
             -0.423421903865350E+02
              0.516707122000576E+02
              0.387939189137663E+02
              0.519567016246016E+02
             -0.113158258498783E+01
              0.689703474468314E+01
              0.570436194149399E+02
              0.964532949049906E+02
             -0.300232211124062E+02
              0.323900187054487E+02
             -0.120003962421569E+02
             -0.412990862263283E+02
             -0.315210752246491E+02
             -0.301194304577778E+02
             -0.131667944883609E+02
             -0.524130829865188E+02
             -0.217274133242137E+02
             -0.141402019573081E+03
              0.369584881899584E+02
              0.207364298307406E+02
             -0.395919563161023E+01
             -0.380647622309241E+02
             -0.204289072542755E+02
             -0.528120753721352E+02
              0.151231326457587E+02
              0.821483440767115E+02
             -0.252494871330096E+02
             -0.163477680618719E+02
              0.238568747885899E+02
             -0.490639554818595E+02
              0.881914252694681E+02
              0.154524508616644E+02
              0.226039275371456E+02
              0.491033962885374E+02
              0.314931619953234E+01
              0.543138251009640E+02
              0.143587007949378E+02
             -0.106275303261863E+02
              0.733655642246549E+01
              0.718270860116604E+00
              0.728059217631850E+02
              0.101372877187596E+02
              0.121238858900172E+02
             -0.130388022155527E+02
              0.132584510054767E+02
             -0.912890382741568E+02
             -0.326347485705686E+02
             -0.458441654705402E+02
              0.485839885924557E+02
             -0.291869848961609E+02
             -0.659174003975064E+02
              0.539686682220068E+02
             -0.122092164486746E+02
              0.440739372313093E+02
             -0.900201621757913E+02
              0.232062028366955E+02
              0.855706701939448E+01
              0.586492014137332E+01
             -0.836450779815249E+01
             -0.905826573118236E+01
              0.480388558370328E+02
              0.199311446560210E+01
             -0.476388011149431E+02
             -0.176740356271147E+02
              0.276613155605079E+02
             -0.118146132576751E+03
             -0.931151208512444E+02
              0.395109951157281E+01
              0.118149684693591E+02
             -0.414613402203174E+02
             -0.387312121536036E+01
              0.112273119604880E+03
              0.306600347441203E+02
             -0.572554697244401E+02
              0.926080083943765E+01
             -0.965997143880823E+01
              0.106124739227693E+02
             -0.338654532098068E+02
              0.196139678587832E+02
              0.285027588580651E+02
             -0.300168957355345E+01
              0.108396829723911E+03
             -0.140154750168905E+02
             -0.316409166304783E+02
              0.143766150642534E+02
              0.467323413186809E+02
             -0.356276133713695E+02
             -0.317432278562708E+01
              0.966818781375261E+02
             -0.462907599019354E+01
              0.622670250938649E+02
              0.135787774657831E+02
             -0.900307597786895E+01
             -0.305477792120271E+02
              0.567135949298149E+02
             -0.515322464952592E+02
             -0.219749599505417E+01
             -0.170482811797594E+02
             -0.405851221807335E+02
              0.185269253006092E+02
              0.240107715944522E+02
              0.115865954936418E+02
              0.719711547875022E+00
             -0.385484338183761E+02
              0.215325531217722E+02
             -0.674129459195547E+01
             -0.246659949438594E+02
             -0.210833716824218E+02
              0.203154401474860E+02
             -0.597695091335504E+01
             -0.349979858373979E+02
             -0.106857076171145E+03
              0.103237002205829E+02
              0.248670450062294E+02
             -0.388443581569844E+02
             -0.211584459302928E+02
              0.808752032052245E+02
              0.657011738523246E+01
              0.311928705392496E+02
              0.395177967333683E+01
              0.322746324612782E+02
              0.647031471549076E+01
             -0.373662624577881E+02
             -0.240383932944786E+01
              0.876635486667260E+01
              0.274616651521412E+02
              0.782863360520297E+02
              0.508295645674903E+02
              0.197697621380769E+00
              0.169680916556066E+02
              0.614440347072396E+02
              0.236528892237818E+02
             -0.753854698345890E+02
             -0.274231399234827E+02
              0.151057446745461E+02
              0.564153791446199E+01
              0.255436267947438E+02
             -0.548573492794088E+02
              0.897391412080324E+01
              0.387079009778074E+02
              0.498804401720208E+02
             -0.435609570066597E+02
             -0.686709711292400E+01
             -0.208791150860998E+01
             -0.134171024422095E+02
             -0.365656873505184E+02
             -0.215304521700337E+02
             -0.210355432614234E+01
              0.796420650008753E+01
              0.422209608428294E+02
             -0.308860851882108E+02
              0.827746607278402E+02
              0.328034246676023E+02
              0.220527870921566E+02
              0.334028900860081E+02
              0.323280400116912E+02
              0.347274526085095E+02
              0.538169793791898E+02
             -0.434789805328558E+02
              0.620841280767643E+02
             -0.112508826306453E+03
              0.307853287691425E+02
             -0.106715382575216E+03
              0.856099186586948E+02
              0.692244127209517E+02
             -0.109976429693003E+02
             -0.493925441892584E+02
             -0.430493641144874E+02
             -0.624312666830668E+02
             -0.630115287768450E+02
              0.553023160642123E+02
              0.406249048749394E+02
              0.237213926249619E+02
              0.373922587538061E+02
              0.404364816191000E+02
             -0.382939934242094E+02
             -0.198048485896437E+02
              0.587620475566395E+02
             -0.116457039145707E+02
              0.552899664586362E+02
              0.701084374441078E+02
             -0.557462719543165E+01
             -0.707857693705577E+02
             -0.837155565726334E+00
             -0.247772636424578E+01
             -0.884424600748105E+01
             -0.181223241261426E+01
             -0.654070226478719E+02
             -0.210381940530252E+02
              0.544098453460073E+01
              0.905896147905145E+01
              0.469999280781801E+02
             -0.398677746274382E+02
              0.657824314963746E+02
             -0.426005088629979E+02
              0.211206878278704E+02
              0.351226768547856E+02
 
 BEEF-vdW xc energy contributions
           1 :   -783.996413290462     
           2 :    719.914174149100     
           3 :   -609.118683287390     
           4 :    478.884755308034     
           5 :   -356.787484577214     
           6 :    262.624417864491     
           7 :   -203.976713897532     
           8 :    176.229105779799     
           9 :   -166.626920209672     
          10 :    160.457179084329     
          11 :   -146.853740853374     
          12 :    122.034942781113     
          13 :   -89.1295600313614     
          14 :    55.2341170375485     
          15 :   -27.4018363239264     
          16 :    9.36976569831404     
          17 :  -0.290536900786833     
          18 :   -4.28364801989164     
          19 :    9.88313277941324     
          20 :   -20.3987475884070     
          21 :    36.4062866891207     
          22 :   -55.1961820018075     
          23 :    72.3184352567424     
          24 :   -83.8034374543619     
          25 :    87.9671086295419     
          26 :   -86.0101498507127     
          27 :    81.2357180833658     
          28 :   -77.3545543327784     
          29 :    76.7248796177370     
          30 :   -79.3619176395096     
          31 :   -86.0769616900388     
          32 :   -65.9052769673182     

     Writing output data file ./pwscf.save/
 
     init_run     :    328.21s CPU    332.85s WALL (       1 calls)
     electrons    :  14573.20s CPU  14727.76s WALL (       1 calls)
     forces       :    105.56s CPU    106.86s WALL (       1 calls)

     Called by init_run:
     wfcinit      :    280.53s CPU    284.19s WALL (       1 calls)
     potinit      :     44.64s CPU     44.97s WALL (       1 calls)
     hinit0       :      1.18s CPU      1.21s WALL (       1 calls)

     Called by electrons:
     c_bands      :  12196.76s CPU  12317.45s WALL (      23 calls)
     sum_band     :   1657.24s CPU   1672.08s WALL (      23 calls)
     v_of_rho     :    119.30s CPU    124.36s WALL (      23 calls)
     newd         :     35.56s CPU     49.57s WALL (      23 calls)
     PAW_pot      :    158.90s CPU    158.91s WALL (      23 calls)
     mix_rho      :    450.73s CPU    451.57s WALL (      23 calls)
     vdW_kernel   :     33.62s CPU     33.62s WALL (       1 calls)

     Called by c_bands:
     init_us_2    :     93.55s CPU     93.80s WALL (     624 calls)
     cegterg      :  11215.60s CPU  11335.98s WALL (     299 calls)

     Called by *egterg:
     cdiaghg      :    107.87s CPU    107.92s WALL (    1747 calls)
     h_psi        :   6929.57s CPU   6971.15s WALL (    1773 calls)
     s_psi        :   1273.88s CPU   1273.99s WALL (    1773 calls)
     g_psi        :     18.56s CPU     18.57s WALL (    1461 calls)

     Called by h_psi:
     h_psi:calbec :   1197.02s CPU   1197.22s WALL (    1773 calls)
     vloc_psi     :   4429.84s CPU   4431.14s WALL (    1773 calls)
     add_vuspsi   :   1272.84s CPU   1272.97s WALL (    1773 calls)

     General routines
     calbec       :   1760.08s CPU   1760.35s WALL (    2124 calls)
     fft          :     52.13s CPU     52.16s WALL (    3403 calls)
     ffts         :    143.25s CPU    143.28s WALL (   10530 calls)
     fftw         :   4656.26s CPU   4657.19s WALL (  378807 calls)
 
     Parallel routines
 
     PWSCF        :      4h11m CPU      4h14m WALL

 
   This run was terminated on:  22:14:40  20May2022            

=------------------------------------------------------------------------------=
   JOB DONE.
=------------------------------------------------------------------------------=
