
     Program PWSCF v.6.7MaX starts on  4Jan2023 at 10:10:55 

     This program is part of the open-source Quantum ESPRESSO suite
     for quantum simulation of materials; please cite
         "P. Giannozzi et al., J. Phys.:Condens. Matter 21 395502 (2009);
         "P. Giannozzi et al., J. Phys.:Condens. Matter 29 465901 (2017);
          URL http://www.quantum-espresso.org", 
     in publications or presentations arising from this work. More details at
     http://www.quantum-espresso.org/quote

     Parallel version (MPI), running on     1 processors

     MPI processes distributed on     1 nodes
     Reading input from chco-mono-ensemble.in
Warning: card &CELL ignored
Warning: card / ignored

     Current dimensions of program PWSCF are:
     Max number of different atomic species (ntypx) = 10
     Max number of k-points (npk) =  40000
     Max angular momentum in pseudopotentials (lmaxx) =  3
     file Pt.pbe-n-kjpaw_psl.1.0.0.UPF: wavefunction(s)  6S 5D renormalized
     file C.pbe-n-kjpaw_psl.1.0.0.UPF: wavefunction(s)  2S 2P renormalized
     file O.pbe-nl-kjpaw_psl.1.0.0.UPF: wavefunction(s)  2S 2P renormalized
     file H.pbe-kjpaw_psl.1.0.0.UPF: wavefunction(s)  1S renormalized

     **************************************************************************
     Initializing libbeef V0.1.2 with the BEEF-vdW functional.
     Citation: Wellendorff et al., PRB 85, 235149 (2012).
     **************************************************************************


     IMPORTANT: XC functional enforced from input :
     Exchange-correlation= BEEF-VDW
                           (   1   4  43  14   2   0   0)
     Any further DFT definition will be discarded
     Please, verify this is what you really want


     Subspace diagonalization in iterative solution of the eigenvalue problem:
     a serial algorithm will be used

 
     G-vector sticks info
     --------------------
     sticks:   dense  smooth     PW     G-vecs:    dense   smooth      PW
     Sum        4267    4267   1159               763907   763907  107595
 


     bravais-lattice index     =            0
     lattice parameter (alat)  =      16.0349  a.u.
     unit-cell volume          =   12161.3974 (a.u.)^3
     number of atoms/cell      =           40
     number of atomic types    =            4
     number of electrons       =       375.00
     number of Kohn-Sham states=          226
     kinetic-energy cutoff     =      60.0000  Ry
     charge density cutoff     =     240.0000  Ry
     scf convergence threshold =      1.0E-06
     mixing beta               =       0.7000
     number of iterations used =            8  local-TF  mixing
     Exchange-correlation= BEEF-VDW
                           (   1   4  43  14   2   0   0)

     celldm(1)=  16.034858  celldm(2)=   0.000000  celldm(3)=   0.000000
     celldm(4)=   0.000000  celldm(5)=   0.000000  celldm(6)=   0.000000

     crystal axes: (cart. coord. in units of alat)
               a(1) = (   1.000000   0.000000   0.000000 )  
               a(2) = (   0.500000   0.866025   0.000000 )  
               a(3) = (   0.000000   0.000000   3.406101 )  

     reciprocal axes: (cart. coord. in units 2 pi/alat)
               b(1) = (  1.000000 -0.577350  0.000000 )  
               b(2) = (  0.000000  1.154701  0.000000 )  
               b(3) = (  0.000000  0.000000  0.293591 )  


     PseudoPot. # 1 for Pt read from file:
     /users/bkreitz1/quantum-espresso/potentials/Pt.pbe-n-kjpaw_psl.1.0.0.UPF
     MD5 check sum: 04dc8a03c51ece93fc7b5889c2958091
     Pseudo is Projector augmented-wave + core cor, Zval = 10.0
     Generated using 'atomic' code by A. Dal Corso  v.6.7MaX
     Shape of augmentation charge: PSQ
     Using radial grid of 1277 points,  6 beta functions with: 
                l(1) =   0
                l(2) =   0
                l(3) =   1
                l(4) =   1
                l(5) =   2
                l(6) =   2
     Q(r) pseudized with 0 coefficients 


     PseudoPot. # 2 for C  read from file:
     /users/bkreitz1/quantum-espresso/potentials/C.pbe-n-kjpaw_psl.1.0.0.UPF
     MD5 check sum: a169b0ebad56f5ec0d79c4633f80bf22
     Pseudo is Projector augmented-wave + core cor, Zval =  4.0
     Generated using 'atomic' code by A. Dal Corso  v.6.7MaX
     Shape of augmentation charge: PSQ
     Using radial grid of 1073 points,  4 beta functions with: 
                l(1) =   0
                l(2) =   0
                l(3) =   1
                l(4) =   1
     Q(r) pseudized with 0 coefficients 


     PseudoPot. # 3 for O  read from file:
     /users/bkreitz1/quantum-espresso/potentials/O.pbe-nl-kjpaw_psl.1.0.0.UPF
     MD5 check sum: eef08af8b58d9ec80f8fdb78829eb7cf
     Pseudo is Projector augmented-wave + core cor, Zval =  6.0
     Generated using 'atomic' code by A. Dal Corso  v.6.7MaX
     Shape of augmentation charge: PSQ
     Using radial grid of 1095 points,  4 beta functions with: 
                l(1) =   0
                l(2) =   0
                l(3) =   1
                l(4) =   1
     Q(r) pseudized with 0 coefficients 


     PseudoPot. # 4 for H  read from file:
     /users/bkreitz1/quantum-espresso/potentials/H.pbe-kjpaw_psl.1.0.0.UPF
     MD5 check sum: ae98473e6dc62675f0d0baffdab24f65
     Pseudo is Projector augmented-wave, Zval =  1.0
     Generated using 'atomic' code by A. Dal Corso  v.6.7MaX
     Shape of augmentation charge: PSQ
     Using radial grid of  929 points,  2 beta functions with: 
                l(1) =   0
                l(2) =   0
     Q(r) pseudized with 0 coefficients 


     atomic species   valence    mass     pseudopotential
        Pt            10.00   195.08400     Pt( 1.00)
        C              4.00    12.01100     C ( 1.00)
        O              6.00    15.99900     O ( 1.00)
        H              1.00     1.00800     H ( 1.00)

     No symmetry found



   Cartesian axes

     site n.     atom                  positions (alat units)
         1           Pt  tau(   1) = (   0.0000000   0.0000000   1.0017346  )
         2           Pt  tau(   2) = (   0.3333333   0.0000000   1.0017346  )
         3           Pt  tau(   3) = (   0.6666667   0.0000000   1.0017346  )
         4           Pt  tau(   4) = (   0.1666667   0.2886751   1.0017346  )
         5           Pt  tau(   5) = (   0.5000000   0.2886751   1.0017346  )
         6           Pt  tau(   6) = (   0.8333333   0.2886751   1.0017346  )
         7           Pt  tau(   7) = (   0.3333333   0.5773503   1.0017346  )
         8           Pt  tau(   8) = (   0.6666667   0.5773503   1.0017346  )
         9           Pt  tau(   9) = (   1.0000000   0.5773503   1.0017346  )
        10           Pt  tau(  10) = (   0.1666667   0.0962250   1.2739001  )
        11           Pt  tau(  11) = (   0.5000000   0.0962250   1.2739001  )
        12           Pt  tau(  12) = (   0.8333333   0.0962250   1.2739001  )
        13           Pt  tau(  13) = (   0.3333333   0.3849002   1.2739001  )
        14           Pt  tau(  14) = (   0.6666667   0.3849002   1.2739001  )
        15           Pt  tau(  15) = (   1.0000000   0.3849002   1.2739001  )
        16           Pt  tau(  16) = (   0.5000000   0.6735753   1.2739001  )
        17           Pt  tau(  17) = (   0.8333333   0.6735753   1.2739001  )
        18           Pt  tau(  18) = (   1.1666667   0.6735753   1.2739001  )
        19           Pt  tau(  19) = (   0.0001512   0.1913762   1.5418382  )
        20           Pt  tau(  20) = (   0.3353911   0.1926532   1.5477864  )
        21           Pt  tau(  21) = (   0.6649549   0.1925454   1.5471183  )
        22           Pt  tau(  22) = (   0.1667098   0.4796270   1.5422702  )
        23           Pt  tau(  23) = (   0.5000459   0.4782401   1.5455312  )
        24           Pt  tau(  24) = (   0.8333379   0.4796240   1.5422632  )
        25           Pt  tau(  25) = (   0.3334859   0.7686508   1.5410345  )
        26           Pt  tau(  26) = (   0.6667534   0.7688475   1.5412104  )
        27           Pt  tau(  27) = (   0.9999682   0.7687141   1.5422146  )
        28           Pt  tau(  28) = (  -0.0000818  -0.0035154   1.8166536  )
        29           Pt  tau(  29) = (   0.3317802  -0.0057792   1.8156881  )
        30           Pt  tau(  30) = (   0.6681924  -0.0058927   1.8148472  )
        31           Pt  tau(  31) = (   0.1644356   0.2851112   1.8169333  )
        32           Pt  tau(  32) = (   0.4996384   0.2832259   1.8361835  )
        33           Pt  tau(  33) = (   0.8353584   0.2849664   1.8167706  )
        34           Pt  tau(  34) = (   0.3324764   0.5756393   1.8146548  )
        35           Pt  tau(  35) = (   0.6672046   0.5757592   1.8147384  )
        36           Pt  tau(  36) = (   0.9999183   0.5736950   1.8165129  )
        37           C   tau(  37) = (   0.5072586   0.2764076   2.0723486  )
        38           C   tau(  38) = (   0.4979240   0.4057923   2.1587222  )
        39           O   tau(  39) = (   0.4885995   0.5207423   2.2351403  )
        40           H   tau(  40) = (   0.5206591   0.1641432   2.1328001  )

     number of k points=    13  Marzari-Vanderbilt smearing, width (Ry)=  0.0200
                       cart. coord. in units 2pi/alat
        k(    1) = (   0.0000000   0.0000000   0.0000000), wk =   0.0800000
        k(    2) = (   0.0000000   0.2309401   0.0000000), wk =   0.1600000
        k(    3) = (   0.0000000   0.4618802   0.0000000), wk =   0.1600000
        k(    4) = (   0.2000000  -0.1154701   0.0000000), wk =   0.1600000
        k(    5) = (   0.2000000   0.1154701   0.0000000), wk =   0.1600000
        k(    6) = (   0.2000000   0.3464102   0.0000000), wk =   0.1600000
        k(    7) = (   0.2000000  -0.5773503   0.0000000), wk =   0.1600000
        k(    8) = (   0.2000000  -0.3464102   0.0000000), wk =   0.1600000
        k(    9) = (   0.4000000  -0.2309401   0.0000000), wk =   0.1600000
        k(   10) = (   0.4000000  -0.0000000   0.0000000), wk =   0.1600000
        k(   11) = (   0.4000000   0.2309401   0.0000000), wk =   0.1600000
        k(   12) = (   0.4000000  -0.6928203   0.0000000), wk =   0.1600000
        k(   13) = (   0.4000000  -0.4618802   0.0000000), wk =   0.1600000

     Dense  grid:   763907 G-vectors     FFT dimensions: (  80,  80, 270)

     Estimated max dynamical RAM per process >       9.29 GB

     Check: negative core charge=   -0.000002

     Initial potential from superposition of free atoms

     starting charge  374.99380, renormalised to  375.00000

     negative rho (up, down):  1.344E-02 0.000E+00


     %%%%%%%%%%%%%%%%%%%%%%%%%%%%%%%%%%%%%%%%%%%%%%%%%%%%%%%%%%%%%%%%%%%%%%%%
     %                                                                      %
     % You are using vdW-DF, which was implemented by the Thonhauser group. %
     % Please cite the following two papers that made this development      %
     % possible and the two reviews that describe the various versions:     %
     %                                                                      %
     %   T. Thonhauser et al., PRL 115, 136402 (2015).                      %
     %   T. Thonhauser et al., PRB 76, 125112 (2007).                       %
     %   K. Berland et al., Rep. Prog. Phys. 78, 066501 (2015).             %
     %   D.C. Langreth et al., J. Phys.: Condens. Matter 21, 084203 (2009). %
     %                                                                      %
     %                                                                      %
     % If you are calculating the stress with vdW-DF, please also cite:     %
     %                                                                      %
     %   R. Sabatini et al., J. Phys.: Condens. Matter 24, 424209 (2012).   %
     %                                                                      %
     %%%%%%%%%%%%%%%%%%%%%%%%%%%%%%%%%%%%%%%%%%%%%%%%%%%%%%%%%%%%%%%%%%%%%%%%


     Starting wfcs are  337 randomized atomic wfcs
     Checking if some PAW data can be deallocated... 

     total cpu time spent up to now is      357.9 secs

     Self-consistent Calculation

     iteration #  1     ecut=    60.00 Ry     beta= 0.70
     Davidson diagonalization with overlap
     ethr =  1.00E-02,  avg # of iterations =  2.0

     Threshold (ethr) on eigenvalues was too large:
     Diagonalizing with lowered threshold

     Davidson diagonalization with overlap
     ethr =  7.77E-04,  avg # of iterations =  2.8

     negative rho (up, down):  1.544E-02 0.000E+00

     total cpu time spent up to now is     1749.9 secs

     total energy              =  -27835.57717729 Ry
     estimated scf accuracy    <       3.14077521 Ry

     iteration #  2     ecut=    60.00 Ry     beta= 0.70
     Davidson diagonalization with overlap
     ethr =  8.38E-04,  avg # of iterations =  2.0

     negative rho (up, down):  1.413E-02 0.000E+00

     total cpu time spent up to now is     2390.9 secs

     total energy              =  -27835.74502747 Ry
     estimated scf accuracy    <       1.03851193 Ry

     iteration #  3     ecut=    60.00 Ry     beta= 0.70
     Davidson diagonalization with overlap
     ethr =  2.77E-04,  avg # of iterations =  2.0

     negative rho (up, down):  1.170E-02 0.000E+00

     total cpu time spent up to now is     3056.4 secs

     total energy              =  -27835.81455307 Ry
     estimated scf accuracy    <       0.35068440 Ry

     iteration #  4     ecut=    60.00 Ry     beta= 0.70
     Davidson diagonalization with overlap
     c_bands:  1 eigenvalues not converged
     c_bands:  1 eigenvalues not converged
     c_bands:  1 eigenvalues not converged
     c_bands:  1 eigenvalues not converged
     ethr =  9.35E-05,  avg # of iterations = 17.0

     negative rho (up, down):  1.072E-02 0.000E+00

     total cpu time spent up to now is     3988.9 secs

     total energy              =  -27835.87003056 Ry
     estimated scf accuracy    <       0.19502952 Ry

     iteration #  5     ecut=    60.00 Ry     beta= 0.70
     Davidson diagonalization with overlap
     ethr =  5.20E-05,  avg # of iterations =  3.9

     negative rho (up, down):  9.393E-03 0.000E+00

     total cpu time spent up to now is     4637.8 secs

     total energy              =  -27835.88235088 Ry
     estimated scf accuracy    <       0.03074812 Ry

     iteration #  6     ecut=    60.00 Ry     beta= 0.70
     Davidson diagonalization with overlap
     c_bands:  1 eigenvalues not converged
     c_bands:  1 eigenvalues not converged
     ethr =  8.20E-06,  avg # of iterations = 11.9

     negative rho (up, down):  8.915E-03 0.000E+00

     total cpu time spent up to now is     5619.7 secs

     total energy              =  -27835.89061396 Ry
     estimated scf accuracy    <       0.00645235 Ry

     iteration #  7     ecut=    60.00 Ry     beta= 0.70
     Davidson diagonalization with overlap
     c_bands:  1 eigenvalues not converged
     c_bands:  1 eigenvalues not converged
     c_bands:  1 eigenvalues not converged
     ethr =  1.72E-06,  avg # of iterations = 10.8

     negative rho (up, down):  8.990E-03 0.000E+00

     total cpu time spent up to now is     6492.6 secs

     total energy              =  -27835.89165763 Ry
     estimated scf accuracy    <       0.00444574 Ry

     iteration #  8     ecut=    60.00 Ry     beta= 0.70
     Davidson diagonalization with overlap
     ethr =  1.19E-06,  avg # of iterations =  3.6

     negative rho (up, down):  9.308E-03 0.000E+00

     total cpu time spent up to now is     7133.8 secs

     total energy              =  -27835.89183769 Ry
     estimated scf accuracy    <       0.00080162 Ry

     iteration #  9     ecut=    60.00 Ry     beta= 0.70
     Davidson diagonalization with overlap
     ethr =  2.14E-07,  avg # of iterations =  4.1

     negative rho (up, down):  9.534E-03 0.000E+00

     total cpu time spent up to now is     7917.2 secs

     total energy              =  -27835.89205664 Ry
     estimated scf accuracy    <       0.00055878 Ry

     iteration # 10     ecut=    60.00 Ry     beta= 0.70
     Davidson diagonalization with overlap
     ethr =  1.49E-07,  avg # of iterations =  1.4

     negative rho (up, down):  1.018E-02 0.000E+00

     total cpu time spent up to now is     8514.8 secs

     total energy              =  -27835.89207115 Ry
     estimated scf accuracy    <       0.00017961 Ry

     iteration # 11     ecut=    60.00 Ry     beta= 0.70
     Davidson diagonalization with overlap
     ethr =  4.79E-08,  avg # of iterations =  3.2

     negative rho (up, down):  1.070E-02 0.000E+00

     total cpu time spent up to now is     9206.7 secs

     total energy              =  -27835.89208435 Ry
     estimated scf accuracy    <       0.00015956 Ry

     iteration # 12     ecut=    60.00 Ry     beta= 0.70
     Davidson diagonalization with overlap
     ethr =  4.25E-08,  avg # of iterations =  1.2

     negative rho (up, down):  1.163E-02 0.000E+00

     total cpu time spent up to now is     9793.9 secs

     total energy              =  -27835.89208198 Ry
     estimated scf accuracy    <       0.00008886 Ry

     iteration # 13     ecut=    60.00 Ry     beta= 0.70
     Davidson diagonalization with overlap
     ethr =  2.37E-08,  avg # of iterations =  1.8

     negative rho (up, down):  1.241E-02 0.000E+00

     total cpu time spent up to now is    10419.8 secs

     total energy              =  -27835.89207902 Ry
     estimated scf accuracy    <       0.00004955 Ry

     iteration # 14     ecut=    60.00 Ry     beta= 0.70
     Davidson diagonalization with overlap
     ethr =  1.32E-08,  avg # of iterations =  1.9

     negative rho (up, down):  1.319E-02 0.000E+00

     total cpu time spent up to now is    11049.0 secs

     total energy              =  -27835.89207551 Ry
     estimated scf accuracy    <       0.00003840 Ry

     iteration # 15     ecut=    60.00 Ry     beta= 0.70
     Davidson diagonalization with overlap
     c_bands:  1 eigenvalues not converged
     ethr =  1.02E-08,  avg # of iterations =  2.6

     negative rho (up, down):  1.376E-02 0.000E+00

     total cpu time spent up to now is    11649.0 secs

     total energy              =  -27835.89207382 Ry
     estimated scf accuracy    <       0.00001990 Ry

     iteration # 16     ecut=    60.00 Ry     beta= 0.70
     Davidson diagonalization with overlap
     ethr =  5.31E-09,  avg # of iterations =  2.4

     negative rho (up, down):  1.437E-02 0.000E+00

     total cpu time spent up to now is    12284.2 secs

     total energy              =  -27835.89207226 Ry
     estimated scf accuracy    <       0.00001134 Ry

     iteration # 17     ecut=    60.00 Ry     beta= 0.70
     Davidson diagonalization with overlap
     c_bands:  1 eigenvalues not converged
     ethr =  3.02E-09,  avg # of iterations =  3.5

     negative rho (up, down):  1.435E-02 0.000E+00

     total cpu time spent up to now is    12964.5 secs

     total energy              =  -27835.89207324 Ry
     estimated scf accuracy    <       0.00000499 Ry

     iteration # 18     ecut=    60.00 Ry     beta= 0.70
     Davidson diagonalization with overlap
     ethr =  1.33E-09,  avg # of iterations =  2.0

     negative rho (up, down):  1.464E-02 0.000E+00

     total cpu time spent up to now is    13613.3 secs

     total energy              =  -27835.89207285 Ry
     estimated scf accuracy    <       0.00000156 Ry

     iteration # 19     ecut=    60.00 Ry     beta= 0.70
     Davidson diagonalization with overlap
     ethr =  4.17E-10,  avg # of iterations =  4.5

     negative rho (up, down):  1.467E-02 0.000E+00

     total cpu time spent up to now is    14413.6 secs

     End of self-consistent calculation

          k = 0.0000 0.0000 0.0000 ( 95403 PWs)   bands (ev):

   -21.8293 -13.1150  -7.5305  -6.9312  -6.2454  -5.8004  -5.3187  -5.1457
    -5.1205  -5.1123  -5.1086  -5.1021  -5.0810  -5.0770  -4.9691  -4.6850
    -4.5549  -4.5530  -4.5517  -4.5414  -4.5400  -4.5160  -4.0951  -4.0900
    -4.0815  -4.0746  -4.0721  -4.0589  -3.8926  -3.8629  -3.8606  -3.8587
    -3.8578  -3.8556  -3.6845  -3.6372  -3.6364  -3.6331  -3.6303  -3.6294
    -3.6230  -3.6152  -3.6063  -3.6042  -3.5874  -3.5632  -3.3494  -3.0354
    -3.0176  -3.0011  -2.9971  -2.9708  -2.9460  -2.9361  -2.9349  -2.9336
    -2.8928  -2.7859  -2.7609  -2.7027  -2.5526  -2.3099  -2.2224  -2.1994
    -2.1964  -2.1844  -2.1742  -2.1140  -2.0605  -2.0254  -2.0180  -2.0172
    -1.9958  -1.9893  -1.9789  -1.9745  -1.9706  -1.9492  -1.9465  -1.9404
    -1.9160  -1.9130  -1.8784  -1.8194  -1.7849  -1.7793  -1.7786  -1.7611
    -1.6298  -1.6201  -1.6077  -1.6056  -1.5960  -1.5746  -1.5731  -1.5527
    -1.5482  -1.4860  -1.4737  -1.4716  -1.4115  -1.4088  -1.3479  -1.3472
    -1.3109  -1.3071  -1.2924  -1.2299  -1.1768  -1.1544  -1.1524  -1.1424
    -1.1288  -0.8550  -0.7844  -0.7131  -0.6891  -0.6824  -0.6656  -0.6528
    -0.6509  -0.6474  -0.5890  -0.5865  -0.5818  -0.5475  -0.5135  -0.4895
    -0.4160  -0.3863  -0.3526  -0.3475  -0.3007  -0.2738  -0.2533  -0.2476
    -0.1855  -0.1652  -0.1610  -0.1557   0.0105   0.0342   0.0805   0.0813
     0.0853   0.1062   0.1444   0.1609   0.3252   0.3275   0.3356   0.3503
     0.3540   0.3999   0.4448   0.4834   0.4928   0.5120   0.5164   0.5181
     0.5437   0.5449   0.5512   0.5532   0.5649   0.6290   0.6458   0.6480
     0.6559   0.6664   0.6810   0.7142   0.7342   0.7602   0.7624   0.7860
     0.7886   0.8132   0.8229   0.8306   0.8380   0.8489   0.9026   0.9049
     0.9210   0.9300   0.9310   0.9448   0.9842   1.0092   1.0250   1.0260
     1.0463   1.0524   1.1054   1.2195   1.2530   1.3233   1.3341   1.3574
     1.3614   1.3688   1.3792   1.5452   2.1734   2.2354   2.2407   2.2496
     2.2652   2.3290   3.2493   4.4827   4.5415   4.5461   4.5741   4.6081
     4.7338   5.5040   5.9858   6.1102   6.1360   6.1657   6.1772   6.1785
     6.2215   6.2486

          k = 0.0000 0.2309 0.0000 ( 95394 PWs)   bands (ev):

   -21.8293 -13.1150  -7.3853  -6.9289  -6.1064  -5.8018  -5.6288  -5.3050
    -5.2114  -5.1443  -4.9844  -4.9637  -4.9065  -4.8624  -4.8411  -4.6843
    -4.6549  -4.6356  -4.4874  -4.4834  -4.4703  -4.4411  -4.1787  -4.0560
    -4.0524  -4.0448  -4.0315  -3.9600  -3.9545  -3.9083  -3.9016  -3.8866
    -3.8700  -3.8268  -3.7720  -3.7680  -3.6824  -3.6682  -3.6562  -3.6181
    -3.6119  -3.4893  -3.4352  -3.4255  -3.4080  -3.3906  -3.3162  -3.1466
    -3.1223  -3.0964  -3.0803  -3.0506  -3.0402  -2.9747  -2.8473  -2.8308
    -2.7649  -2.7616  -2.7228  -2.7056  -2.6104  -2.4579  -2.4106  -2.3545
    -2.3415  -2.3098  -2.2617  -2.2346  -2.2118  -2.1765  -2.1656  -2.1635
    -2.1347  -2.0909  -2.0288  -2.0146  -2.0026  -1.9805  -1.9409  -1.9105
    -1.9070  -1.8607  -1.8348  -1.8036  -1.7540  -1.7422  -1.7164  -1.7125
    -1.6741  -1.6637  -1.6282  -1.6172  -1.6112  -1.5916  -1.5736  -1.5386
    -1.4898  -1.4863  -1.4396  -1.4326  -1.4293  -1.3971  -1.3835  -1.3558
    -1.3491  -1.3305  -1.2774  -1.2198  -1.1878  -1.1787  -1.1547  -1.1444
    -1.1282  -1.1210  -1.0746  -1.0639  -1.0450  -1.0410  -0.9827  -0.7705
    -0.7665  -0.7156  -0.6735  -0.6584  -0.6254  -0.6151  -0.5995  -0.5870
    -0.4959  -0.4518  -0.4411  -0.3183  -0.3085  -0.2534  -0.2515  -0.2276
    -0.2199  -0.1806  -0.1642  -0.1550  -0.0711  -0.0591  -0.0460  -0.0177
    -0.0145   0.1264   0.1366   0.1825   0.2003   0.2100   0.2357   0.2624
     0.2714   0.3426   0.3530   0.3690   0.3925   0.4353   0.4486   0.4625
     0.4908   0.5349   0.5763   0.6052   0.6337   0.6674   0.6913   0.7247
     0.7319   0.7658   0.7688   0.8038   0.8591   0.8835   0.8936   0.9282
     0.9501   0.9549   0.9919   1.0029   1.0055   1.0150   1.0185   1.0671
     1.0718   1.0980   1.2021   1.2339   1.2487   1.2569   1.2759   1.2933
     1.3219   1.3227   1.3518   1.3797   1.3919   1.4755   1.4784   1.5010
     1.6478   1.6702   1.6718   1.6972   1.9470   2.1569   2.4132   2.8329
     2.8612   2.9599   3.3540   3.9265   4.2869   4.5004   4.8743   4.9852
     5.0024   5.1205   5.2838   5.6744   5.9169   5.9597   6.1004   6.3268
     6.3329   6.3425

          k = 0.0000 0.4619 0.0000 ( 95456 PWs)   bands (ev):

   -21.8293 -13.1149  -6.9980  -6.8953  -6.3218  -5.8147  -5.7083  -5.3351
    -5.2452  -5.1943  -5.0099  -4.8777  -4.7270  -4.6925  -4.6117  -4.5781
    -4.5172  -4.5131  -4.3647  -4.3340  -4.3063  -4.2957  -4.2934  -4.1877
    -4.1390  -4.1354  -4.0926  -4.0869  -4.0562  -4.0203  -3.9591  -3.9481
    -3.9473  -3.7188  -3.6883  -3.6799  -3.6771  -3.6570  -3.6484  -3.5247
    -3.4351  -3.4174  -3.3977  -3.3967  -3.3765  -3.2924  -3.1970  -3.1145
    -3.0875  -3.0824  -3.0577  -3.0456  -2.9897  -2.9500  -2.9433  -2.9158
    -2.8998  -2.8229  -2.7435  -2.7345  -2.6965  -2.6794  -2.5767  -2.5315
    -2.5243  -2.5108  -2.4712  -2.3591  -2.3039  -2.2987  -2.2772  -2.2665
    -2.2051  -2.1715  -2.1432  -2.0789  -2.0704  -2.0582  -2.0234  -1.9639
    -1.9288  -1.9014  -1.8968  -1.8739  -1.8678  -1.8262  -1.7980  -1.7968
    -1.7889  -1.7808  -1.7663  -1.7382  -1.7009  -1.6765  -1.6347  -1.6125
    -1.6040  -1.6018  -1.5739  -1.5042  -1.4721  -1.4493  -1.4216  -1.3742
    -1.3576  -1.3257  -1.3244  -1.3134  -1.2444  -1.1729  -1.1476  -1.1294
    -1.1151  -1.0596  -1.0523  -0.9617  -0.9232  -0.8795  -0.8493  -0.8028
    -0.7820  -0.7361  -0.7162  -0.7010  -0.6750  -0.6687  -0.6463  -0.6059
    -0.5991  -0.5842  -0.5622  -0.5552  -0.5291  -0.5016  -0.4776  -0.3962
    -0.3693  -0.3492  -0.3406  -0.2700  -0.1949  -0.1617  -0.1461  -0.0522
    -0.0413   0.0516   0.0842   0.1007   0.1592   0.1625   0.1842   0.2250
     0.2380   0.2641   0.3016   0.3438   0.3688   0.3742   0.4539   0.4792
     0.4899   0.4971   0.5271   0.5401   0.6111   0.6198   0.7254   0.7593
     0.7759   0.7943   0.8089   0.8937   0.9155   0.9177   0.9743   1.0056
     1.0094   1.0599   1.0718   1.0826   1.1155   1.1579   1.1907   1.2316
     1.2525   1.2579   1.2742   1.2859   1.2961   1.3103   1.4727   1.4746
     1.5066   1.5247   1.5300   1.6793   1.7345   1.7854   2.1591   2.1655
     2.2557   2.5475   2.5657   2.7130   2.9559   2.9627   3.2788   3.3074
     3.7630   3.7766   3.8081   3.9500   4.0503   4.0836   4.1841   4.3941
     4.4299   4.5026   4.9388   5.1178   5.2763   5.5774   5.7493   6.0569
     6.2107   6.4284

          k = 0.2000-0.1155 0.0000 ( 95394 PWs)   bands (ev):

   -21.8293 -13.1150  -7.3851  -6.9287  -6.1062  -5.8011  -5.6264  -5.3018
    -5.2141  -5.1505  -4.9854  -4.9635  -4.8990  -4.8648  -4.8460  -4.6874
    -4.6459  -4.6339  -4.4883  -4.4817  -4.4705  -4.4442  -4.1846  -4.0570
    -4.0516  -4.0358  -4.0249  -3.9645  -3.9549  -3.9168  -3.8988  -3.8838
    -3.8628  -3.8230  -3.7788  -3.7725  -3.6842  -3.6615  -3.6554  -3.6243
    -3.6131  -3.4890  -3.4386  -3.4240  -3.4063  -3.3996  -3.3155  -3.1465
    -3.1272  -3.1045  -3.0669  -3.0534  -3.0257  -2.9779  -2.8411  -2.8358
    -2.7763  -2.7608  -2.7252  -2.7006  -2.6139  -2.4676  -2.4005  -2.3673
    -2.3528  -2.3103  -2.2806  -2.2134  -2.2052  -2.1795  -2.1600  -2.1570
    -2.1390  -2.0906  -2.0505  -2.0243  -2.0043  -1.9847  -1.9161  -1.9052
    -1.8876  -1.8461  -1.8310  -1.8275  -1.7503  -1.7389  -1.7258  -1.7079
    -1.6791  -1.6670  -1.6247  -1.6100  -1.6060  -1.5956  -1.5712  -1.5583
    -1.4928  -1.4748  -1.4466  -1.4402  -1.4328  -1.3993  -1.3894  -1.3623
    -1.3341  -1.3246  -1.2822  -1.2128  -1.1837  -1.1684  -1.1548  -1.1427
    -1.1262  -1.1008  -1.0709  -1.0634  -1.0489  -1.0202  -0.9856  -0.8054
    -0.7604  -0.7145  -0.6959  -0.6547  -0.6244  -0.6139  -0.5942  -0.5851
    -0.4837  -0.4390  -0.4274  -0.3300  -0.2936  -0.2747  -0.2378  -0.2294
    -0.2128  -0.1864  -0.1541  -0.1453  -0.0738  -0.0651  -0.0397  -0.0252
    -0.0155   0.0897   0.1555   0.1841   0.1954   0.2112   0.2245   0.2610
     0.2996   0.3310   0.3443   0.3734   0.3848   0.4354   0.4557   0.4634
     0.4883   0.5340   0.5742   0.5949   0.6065   0.6739   0.7056   0.7211
     0.7432   0.7642   0.7708   0.8058   0.8538   0.8710   0.8952   0.9243
     0.9466   0.9604   0.9928   0.9997   1.0038   1.0125   1.0176   1.0708
     1.0847   1.1254   1.2067   1.2244   1.2550   1.2627   1.2706   1.2859
     1.3143   1.3232   1.3453   1.3709   1.3889   1.4678   1.4808   1.4988
     1.6525   1.6612   1.6739   1.7248   1.9440   2.1284   2.4204   2.8337
     2.8529   2.9661   3.3706   3.9565   4.2668   4.4550   4.8705   4.9828
     4.9971   5.1494   5.3342   5.6463   5.9374   5.9584   6.1316   6.2784
     6.3317   6.3512

          k = 0.2000 0.1155 0.0000 ( 95394 PWs)   bands (ev):

   -21.8293 -13.1150  -7.3851  -6.9288  -6.1061  -5.8008  -5.6264  -5.3024
    -5.2143  -5.1503  -4.9855  -4.9635  -4.9008  -4.8646  -4.8449  -4.6880
    -4.6457  -4.6305  -4.4888  -4.4815  -4.4705  -4.4472  -4.1844  -4.0568
    -4.0521  -4.0332  -4.0242  -3.9644  -3.9557  -3.9179  -3.9003  -3.8830
    -3.8620  -3.8227  -3.7797  -3.7733  -3.6843  -3.6604  -3.6560  -3.6248
    -3.6134  -3.4900  -3.4390  -3.4245  -3.4050  -3.4017  -3.3131  -3.1459
    -3.1293  -3.0982  -3.0666  -3.0544  -3.0234  -2.9799  -2.8417  -2.8349
    -2.7805  -2.7611  -2.7252  -2.6993  -2.6152  -2.4660  -2.3970  -2.3735
    -2.3517  -2.3114  -2.2837  -2.2143  -2.1977  -2.1789  -2.1600  -2.1571
    -2.1406  -2.0904  -2.0579  -2.0235  -2.0037  -1.9853  -1.9160  -1.9024
    -1.8867  -1.8450  -1.8341  -1.8300  -1.7508  -1.7383  -1.7253  -1.7080
    -1.6813  -1.6547  -1.6237  -1.6100  -1.6076  -1.5941  -1.5714  -1.5635
    -1.4944  -1.4731  -1.4480  -1.4407  -1.4297  -1.3988  -1.3902  -1.3607
    -1.3345  -1.3254  -1.2852  -1.2122  -1.1820  -1.1681  -1.1518  -1.1434
    -1.1260  -1.0995  -1.0702  -1.0619  -1.0502  -1.0132  -0.9871  -0.8169
    -0.7579  -0.7144  -0.6997  -0.6543  -0.6242  -0.6138  -0.5938  -0.5861
    -0.4833  -0.4396  -0.4179  -0.3335  -0.2919  -0.2756  -0.2397  -0.2298
    -0.2109  -0.1886  -0.1512  -0.1417  -0.0751  -0.0657  -0.0386  -0.0266
    -0.0157   0.0833   0.1563   0.1842   0.1934   0.2121   0.2226   0.2610
     0.3043   0.3271   0.3443   0.3744   0.3859   0.4354   0.4569   0.4650
     0.4878   0.5360   0.5737   0.5882   0.6056   0.6740   0.7078   0.7209
     0.7467   0.7628   0.7700   0.8067   0.8544   0.8701   0.8952   0.9188
     0.9468   0.9607   0.9929   0.9992   1.0030   1.0123   1.0172   1.0710
     1.0861   1.1229   1.2062   1.2191   1.2556   1.2654   1.2740   1.2858
     1.3150   1.3276   1.3445   1.3698   1.3881   1.4676   1.4815   1.4980
     1.6547   1.6599   1.6750   1.7302   1.9453   2.1220   2.4213   2.8343
     2.8514   2.9666   3.3742   3.9604   4.2652   4.4425   4.8882   4.9826
     4.9947   5.1360   5.3526   5.6427   5.9388   5.9551   6.1378   6.2767
     6.3481   6.3896

          k = 0.2000 0.3464 0.0000 ( 95440 PWs)   bands (ev):

   -21.8293 -13.1150  -7.1091  -6.9196  -5.8869  -5.8719  -5.8410  -5.7854
    -5.2094  -4.7947  -4.7882  -4.7761  -4.7627  -4.7257  -4.7082  -4.7046
    -4.6718  -4.6389  -4.5980  -4.5853  -4.2252  -4.2151  -4.2025  -4.1960
    -4.1383  -4.1121  -3.9784  -3.9576  -3.9507  -3.9492  -3.9397  -3.8588
    -3.8129  -3.7950  -3.7904  -3.7804  -3.7211  -3.6964  -3.6812  -3.6624
    -3.6336  -3.5621  -3.4101  -3.3006  -3.2043  -3.1946  -3.1784  -3.1526
    -3.1474  -3.1403  -3.1013  -3.0760  -2.9998  -2.9112  -2.9061  -2.8792
    -2.8108  -2.7873  -2.7299  -2.7206  -2.7021  -2.6350  -2.5950  -2.4910
    -2.4665  -2.4107  -2.3905  -2.3514  -2.3291  -2.3114  -2.2763  -2.2595
    -2.2403  -2.1130  -2.0978  -2.0672  -2.0532  -2.0264  -2.0079  -1.9749
    -1.9482  -1.9319  -1.9204  -1.8368  -1.7905  -1.7838  -1.7594  -1.7460
    -1.7430  -1.7301  -1.6863  -1.6747  -1.6699  -1.6189  -1.6064  -1.5624
    -1.5397  -1.5159  -1.4958  -1.4464  -1.4246  -1.4218  -1.3859  -1.3800
    -1.3565  -1.3384  -1.3279  -1.3086  -1.3014  -1.2928  -1.2406  -1.2282
    -1.1996  -1.1334  -1.1238  -1.0846  -1.0351  -1.0092  -1.0001  -0.9320
    -0.8114  -0.7866  -0.7582  -0.6774  -0.6570  -0.6419  -0.6101  -0.5807
    -0.5703  -0.5502  -0.5236  -0.5150  -0.4692  -0.4371  -0.4037  -0.3151
    -0.2546  -0.2290  -0.2047  -0.1801  -0.1461  -0.1294  -0.0939  -0.0244
     0.0057   0.0253   0.0725   0.0925   0.1287   0.1689   0.2214   0.2350
     0.2586   0.2854   0.3076   0.3322   0.3378   0.3522   0.3637   0.3700
     0.3973   0.4428   0.5104   0.5611   0.6074   0.6918   0.7151   0.7919
     0.8278   0.8866   0.8969   0.9304   0.9812   1.0196   1.0252   1.0428
     1.0552   1.0748   1.0948   1.1053   1.1182   1.1345   1.1654   1.1794
     1.1936   1.2455   1.2807   1.2948   1.3170   1.3315   1.3715   1.4309
     1.5239   1.5636   1.5743   1.6349   1.6455   1.6578   1.7852   1.7981
     1.9574   2.3057   2.3257   2.5212   2.8476   2.8717   2.9118   3.0570
     3.5620   3.5855   3.7801   3.7886   3.8372   4.1348   4.4768   4.8865
     4.9702   5.0431   5.2072   5.2994   5.6964   5.7464   5.7859   5.8215
     5.8691   6.0628

          k = 0.2000-0.5774 0.0000 ( 95470 PWs)   bands (ev):

   -21.8293 -13.1149  -6.9441  -6.5688  -6.5414  -5.9548  -5.8067  -5.4480
    -5.3122  -5.0773  -4.7916  -4.7497  -4.6847  -4.6459  -4.6082  -4.4992
    -4.4929  -4.3988  -4.3911  -4.2946  -4.2786  -4.2688  -4.2386  -4.2238
    -4.2137  -4.2015  -4.0905  -4.0664  -4.0567  -4.0273  -4.0177  -3.9456
    -3.8640  -3.8061  -3.7554  -3.6734  -3.6674  -3.6546  -3.6403  -3.6296
    -3.5437  -3.5299  -3.4848  -3.4189  -3.3156  -3.2230  -3.2125  -3.1722
    -3.1163  -3.0591  -3.0274  -2.9950  -2.9069  -2.8527  -2.8408  -2.8081
    -2.7769  -2.7312  -2.7164  -2.6886  -2.6392  -2.6120  -2.5962  -2.5897
    -2.5678  -2.5585  -2.5366  -2.5107  -2.4670  -2.3660  -2.3461  -2.3093
    -2.2771  -2.2032  -2.1628  -2.1383  -2.1275  -2.1206  -2.0773  -2.0570
    -2.0013  -1.9963  -1.9669  -1.9501  -1.9178  -1.8808  -1.8314  -1.8119
    -1.8043  -1.7541  -1.7149  -1.7084  -1.6529  -1.6130  -1.5518  -1.5404
    -1.5147  -1.5067  -1.4998  -1.4592  -1.4542  -1.4293  -1.4144  -1.4060
    -1.3832  -1.3681  -1.3464  -1.3151  -1.2956  -1.2857  -1.2847  -1.2574
    -1.2480  -1.2359  -1.1932  -1.1522  -1.0291  -0.9457  -0.8917  -0.8773
    -0.8044  -0.7818  -0.7661  -0.7328  -0.7212  -0.6873  -0.6611  -0.6403
    -0.6173  -0.5861  -0.5478  -0.5279  -0.4738  -0.4654  -0.4017  -0.3873
    -0.3525  -0.3210  -0.2012  -0.1905  -0.1471  -0.1070  -0.0806  -0.0410
    -0.0208   0.0070   0.0265   0.0371   0.0526   0.0742   0.1071   0.1671
     0.1965   0.2391   0.2592   0.2734   0.2867   0.3079   0.3180   0.4009
     0.4585   0.5191   0.5454   0.6398   0.6832   0.7266   0.7380   0.7859
     0.8204   0.8626   0.8747   0.9668   0.9987   1.0118   1.0562   1.0760
     1.0841   1.0930   1.1172   1.1403   1.1622   1.2378   1.2424   1.2516
     1.2683   1.2951   1.3021   1.3122   1.3701   1.4794   1.4846   1.5145
     1.5240   1.5322   1.5801   1.6252   1.7032   1.8448   2.1414   2.6632
     2.6667   2.8543   2.9391   3.0412   3.0516   3.0657   3.2376   3.6584
     3.6822   3.7241   4.0945   4.1457   4.2037   4.2680   4.2870   4.5142
     4.5916   4.6612   4.8242   4.9258   5.0718   5.1326   5.3777   5.7263
     5.7498   5.7701

          k = 0.2000-0.3464 0.0000 ( 95440 PWs)   bands (ev):

   -21.8293 -13.1150  -7.1091  -6.9196  -5.8881  -5.8705  -5.8436  -5.7833
    -5.2090  -4.7931  -4.7878  -4.7770  -4.7597  -4.7281  -4.7100  -4.7053
    -4.6693  -4.6402  -4.5988  -4.5865  -4.2234  -4.2150  -4.2024  -4.1961
    -4.1383  -4.1115  -3.9785  -3.9577  -3.9509  -3.9496  -3.9410  -3.8582
    -3.8122  -3.7941  -3.7913  -3.7815  -3.7217  -3.6950  -3.6807  -3.6618
    -3.6333  -3.5614  -3.4102  -3.3007  -3.2039  -3.1947  -3.1779  -3.1506
    -3.1457  -3.1387  -3.1096  -3.0763  -3.0082  -2.9111  -2.9066  -2.8714
    -2.8114  -2.7866  -2.7305  -2.7203  -2.7004  -2.6355  -2.5977  -2.4894
    -2.4667  -2.4086  -2.3815  -2.3532  -2.3281  -2.3118  -2.2782  -2.2584
    -2.2404  -2.1071  -2.0983  -2.0666  -2.0526  -2.0279  -2.0100  -1.9760
    -1.9490  -1.9354  -1.9167  -1.8433  -1.7890  -1.7829  -1.7579  -1.7450
    -1.7433  -1.7300  -1.6863  -1.6829  -1.6695  -1.6177  -1.6049  -1.5699
    -1.5384  -1.5147  -1.4974  -1.4489  -1.4252  -1.4197  -1.3855  -1.3763
    -1.3571  -1.3395  -1.3304  -1.3101  -1.3014  -1.2937  -1.2389  -1.2264
    -1.2029  -1.1350  -1.1253  -1.0844  -1.0294  -1.0096  -0.9995  -0.9302
    -0.8103  -0.7861  -0.7572  -0.6822  -0.6568  -0.6431  -0.6106  -0.5805
    -0.5692  -0.5496  -0.5231  -0.5143  -0.4687  -0.4383  -0.4041  -0.3122
    -0.2563  -0.2276  -0.2049  -0.1807  -0.1469  -0.1263  -0.0936  -0.0210
     0.0050   0.0240   0.0726   0.0921   0.1337   0.1651   0.2215   0.2353
     0.2572   0.2913   0.3084   0.3314   0.3373   0.3517   0.3620   0.3700
     0.3969   0.4420   0.5060   0.5623   0.6099   0.6889   0.7158   0.7931
     0.8240   0.8871   0.8975   0.9332   0.9891   1.0195   1.0237   1.0455
     1.0567   1.0745   1.0922   1.1059   1.1187   1.1323   1.1640   1.1787
     1.1884   1.2463   1.2798   1.2965   1.3171   1.3317   1.3715   1.4254
     1.5243   1.5640   1.5736   1.6354   1.6461   1.6592   1.7871   1.8017
     1.9565   2.3049   2.3266   2.5180   2.8456   2.8721   2.9154   3.0589
     3.5637   3.5828   3.7791   3.7841   3.8390   4.1272   4.4693   4.9133
     4.9700   5.0420   5.2118   5.2727   5.7013   5.7445   5.7778   5.8249
     5.8679   6.0642

          k = 0.4000-0.2309 0.0000 ( 95456 PWs)   bands (ev):

   -21.8293 -13.1149  -6.9966  -6.8953  -6.3206  -5.8086  -5.7141  -5.3337
    -5.2469  -5.2028  -5.0048  -4.8663  -4.7308  -4.6885  -4.6061  -4.5753
    -4.5256  -4.5156  -4.3628  -4.3378  -4.3085  -4.3007  -4.2897  -4.1820
    -4.1424  -4.1366  -4.0964  -4.0814  -4.0492  -4.0135  -3.9551  -3.9497
    -3.9420  -3.7280  -3.6868  -3.6832  -3.6783  -3.6652  -3.6527  -3.5339
    -3.4378  -3.4206  -3.4040  -3.3984  -3.3746  -3.2861  -3.2054  -3.1112
    -3.0930  -3.0787  -3.0576  -3.0323  -2.9967  -2.9563  -2.9399  -2.9160
    -2.8913  -2.8220  -2.7521  -2.7346  -2.6966  -2.6850  -2.5831  -2.5492
    -2.5367  -2.5117  -2.4790  -2.3602  -2.3339  -2.2814  -2.2778  -2.2670
    -2.1980  -2.1855  -2.1641  -2.0683  -2.0460  -2.0372  -2.0200  -1.9349
    -1.9148  -1.9070  -1.9017  -1.8806  -1.8577  -1.8239  -1.8076  -1.7902
    -1.7826  -1.7767  -1.7698  -1.7441  -1.7079  -1.6736  -1.6306  -1.6255
    -1.6072  -1.5999  -1.5949  -1.4964  -1.4538  -1.4290  -1.4176  -1.3660
    -1.3530  -1.3333  -1.3127  -1.2986  -1.2315  -1.1751  -1.1620  -1.1486
    -1.1029  -1.0545  -1.0478  -0.9967  -0.9116  -0.8983  -0.8266  -0.8026
    -0.7734  -0.7400  -0.7285  -0.6918  -0.6877  -0.6781  -0.6134  -0.6024
    -0.5958  -0.5766  -0.5748  -0.5494  -0.5198  -0.5066  -0.4899  -0.4021
    -0.3600  -0.3481  -0.3253  -0.2668  -0.2093  -0.1550  -0.1464  -0.0536
    -0.0429   0.0248   0.0969   0.1098   0.1537   0.1688   0.1945   0.2196
     0.2428   0.2835   0.2983   0.3407   0.3645   0.3802   0.4491   0.4648
     0.4889   0.5024   0.5239   0.5333   0.5919   0.6788   0.7219   0.7562
     0.7764   0.7975   0.8121   0.8789   0.8979   0.9197   0.9280   1.0060
     1.0148   1.0417   1.0848   1.0944   1.1253   1.1391   1.2121   1.2281
     1.2450   1.2609   1.2768   1.2898   1.2931   1.3031   1.4676   1.4717
     1.4986   1.5135   1.5239   1.6816   1.7349   1.7783   2.1322   2.2069
     2.2671   2.5489   2.5621   2.7173   2.9470   2.9718   3.2866   3.3125
     3.7623   3.7730   3.7994   3.9609   4.0322   4.0952   4.1700   4.3817
     4.4196   4.4908   5.0083   5.1248   5.2390   5.6138   5.7274   6.0957
     6.1999   6.4359

          k = 0.4000-0.0000 0.0000 ( 95440 PWs)   bands (ev):

   -21.8293 -13.1150  -7.1084  -6.9196  -5.8906  -5.8673  -5.8303  -5.7954
    -5.2090  -4.7981  -4.7838  -4.7745  -4.7628  -4.7336  -4.7065  -4.7006
    -4.6716  -4.6378  -4.5982  -4.5866  -4.2238  -4.2101  -4.2047  -4.1969
    -4.1270  -4.1194  -3.9811  -3.9540  -3.9501  -3.9459  -3.9379  -3.8721
    -3.8176  -3.7967  -3.7866  -3.7788  -3.7211  -3.7001  -3.6807  -3.6634
    -3.6356  -3.5570  -3.4053  -3.2974  -3.2068  -3.1991  -3.1861  -3.1691
    -3.1520  -3.1408  -3.0894  -3.0755  -2.9850  -2.9147  -2.9067  -2.8745
    -2.8112  -2.7921  -2.7317  -2.7194  -2.7082  -2.6346  -2.5961  -2.4868
    -2.4589  -2.4394  -2.4144  -2.3572  -2.3322  -2.3164  -2.2708  -2.2620
    -2.2406  -2.1196  -2.0922  -2.0653  -2.0452  -2.0172  -2.0016  -1.9694
    -1.9503  -1.9340  -1.9241  -1.8221  -1.8023  -1.7879  -1.7711  -1.7508
    -1.7401  -1.7328  -1.6870  -1.6720  -1.6443  -1.6260  -1.5941  -1.5483
    -1.5258  -1.5185  -1.4917  -1.4456  -1.4263  -1.4182  -1.3860  -1.3821
    -1.3578  -1.3347  -1.3262  -1.3098  -1.3002  -1.2769  -1.2502  -1.2316
    -1.1973  -1.1280  -1.0930  -1.0882  -1.0642  -1.0018  -0.9975  -0.9344
    -0.8133  -0.7932  -0.7542  -0.6591  -0.6559  -0.6254  -0.6087  -0.5812
    -0.5714  -0.5509  -0.5261  -0.5232  -0.4682  -0.4352  -0.4152  -0.3249
    -0.2494  -0.2250  -0.2119  -0.1734  -0.1447  -0.1416  -0.0918  -0.0376
     0.0052   0.0330   0.0730   0.0941   0.1195   0.1789   0.2183   0.2299
     0.2617   0.2661   0.3086   0.3278   0.3375   0.3530   0.3637   0.3675
     0.3972   0.4469   0.5133   0.5685   0.6048   0.6988   0.7129   0.7909
     0.8466   0.8917   0.8981   0.9209   0.9604   1.0182   1.0290   1.0319
     1.0542   1.0740   1.0984   1.1069   1.1247   1.1411   1.1634   1.1810
     1.2033   1.2495   1.2862   1.2926   1.3162   1.3306   1.3733   1.4338
     1.5106   1.5574   1.5680   1.6266   1.6398   1.6496   1.7767   1.7978
     1.9704   2.3170   2.3355   2.5272   2.8512   2.8636   2.8901   3.0435
     3.5703   3.5889   3.7790   3.8089   3.8325   4.1566   4.4966   4.7749
     4.9740   5.0233   5.2170   5.4200   5.6744   5.7616   5.7954   5.8248
     5.8399   6.0407

          k = 0.4000 0.2309 0.0000 ( 95456 PWs)   bands (ev):

   -21.8293 -13.1149  -6.9969  -6.8951  -6.3203  -5.8060  -5.7162  -5.3338
    -5.2472  -5.2041  -5.0026  -4.8689  -4.7319  -4.6853  -4.6060  -4.5757
    -4.5255  -4.5149  -4.3623  -4.3409  -4.3089  -4.3012  -4.2899  -4.1814
    -4.1426  -4.1360  -4.0975  -4.0815  -4.0473  -4.0130  -3.9545  -3.9498
    -3.9403  -3.7299  -3.6864  -3.6829  -3.6786  -3.6654  -3.6537  -3.5345
    -3.4387  -3.4204  -3.4053  -3.3990  -3.3737  -3.2858  -3.2026  -3.1108
    -3.0949  -3.0762  -3.0559  -3.0304  -3.0012  -2.9556  -2.9401  -2.9143
    -2.8889  -2.8251  -2.7527  -2.7348  -2.6970  -2.6871  -2.5839  -2.5507
    -2.5329  -2.5125  -2.4762  -2.3626  -2.3415  -2.2831  -2.2784  -2.2662
    -2.1985  -2.1897  -2.1643  -2.0685  -2.0470  -2.0335  -2.0239  -1.9346
    -1.9088  -1.9047  -1.9008  -1.8825  -1.8517  -1.8223  -1.8081  -1.7864
    -1.7813  -1.7757  -1.7696  -1.7435  -1.7128  -1.6687  -1.6311  -1.6272
    -1.6073  -1.5999  -1.5965  -1.4956  -1.4530  -1.4227  -1.4121  -1.3680
    -1.3530  -1.3347  -1.3140  -1.2954  -1.2308  -1.1742  -1.1676  -1.1486
    -1.1029  -1.0569  -1.0462  -1.0085  -0.9104  -0.9013  -0.8250  -0.8035
    -0.7710  -0.7414  -0.7301  -0.6912  -0.6887  -0.6770  -0.6115  -0.6014
    -0.5957  -0.5772  -0.5686  -0.5462  -0.5200  -0.5124  -0.4901  -0.4045
    -0.3579  -0.3501  -0.3211  -0.2664  -0.2152  -0.1552  -0.1468  -0.0537
    -0.0440   0.0216   0.0982   0.1125   0.1541   0.1697   0.1945   0.2205
     0.2433   0.2900   0.2990   0.3413   0.3639   0.3822   0.4484   0.4614
     0.4902   0.5061   0.5236   0.5323   0.5912   0.6903   0.7209   0.7551
     0.7730   0.7996   0.8122   0.8553   0.8961   0.9192   0.9239   1.0064
     1.0154   1.0401   1.0844   1.0988   1.1259   1.1413   1.2160   1.2256
     1.2447   1.2611   1.2766   1.2900   1.2942   1.3056   1.4689   1.4706
     1.4982   1.5134   1.5239   1.6818   1.7350   1.7777   2.1278   2.2037
     2.2714   2.5510   2.5612   2.7172   2.9457   2.9742   3.2890   3.3147
     3.7645   3.7730   3.8023   3.9602   4.0358   4.0969   4.1664   4.3766
     4.4196   4.4884   5.0308   5.1344   5.2306   5.6107   5.7186   6.0796
     6.1999   6.4224

          k = 0.4000-0.6928 0.0000 ( 95470 PWs)   bands (ev):

   -21.8293 -13.1149  -6.9437  -6.5610  -6.5478  -5.9563  -5.8028  -5.4539
    -5.3160  -5.0653  -4.7926  -4.7448  -4.6881  -4.6421  -4.6091  -4.5074
    -4.4959  -4.3984  -4.3873  -4.2861  -4.2808  -4.2720  -4.2416  -4.2224
    -4.2132  -4.2050  -4.0881  -4.0629  -4.0575  -4.0280  -4.0122  -3.9399
    -3.8516  -3.8109  -3.7618  -3.6894  -3.6681  -3.6531  -3.6399  -3.6343
    -3.5609  -3.5294  -3.4802  -3.4183  -3.3170  -3.2275  -3.2189  -3.1669
    -3.0895  -3.0664  -3.0262  -2.9992  -2.8981  -2.8470  -2.8350  -2.8114
    -2.7882  -2.7446  -2.7178  -2.6954  -2.6402  -2.6186  -2.5969  -2.5861
    -2.5722  -2.5604  -2.5364  -2.5016  -2.4755  -2.4017  -2.3494  -2.3079
    -2.2900  -2.2010  -2.1642  -2.1434  -2.1302  -2.0922  -2.0691  -2.0500
    -2.0073  -1.9764  -1.9502  -1.9301  -1.9164  -1.8803  -1.8498  -1.8210
    -1.7999  -1.7468  -1.7270  -1.7090  -1.6553  -1.6067  -1.5693  -1.5444
    -1.5275  -1.5058  -1.4739  -1.4633  -1.4467  -1.4255  -1.4152  -1.3952
    -1.3658  -1.3605  -1.3263  -1.3170  -1.2988  -1.2930  -1.2853  -1.2583
    -1.2456  -1.2201  -1.1893  -1.1500  -1.0055  -0.9674  -0.9003  -0.8824
    -0.8496  -0.7749  -0.7685  -0.7398  -0.7150  -0.6887  -0.6610  -0.6477
    -0.6203  -0.5767  -0.5574  -0.5173  -0.4924  -0.4715  -0.4040  -0.3846
    -0.3449  -0.2773  -0.2080  -0.1593  -0.1454  -0.1108  -0.0870  -0.0666
    -0.0179   0.0132   0.0279   0.0363   0.0653   0.0839   0.1100   0.1692
     0.1925   0.2362   0.2565   0.2760   0.2822   0.3119   0.3200   0.3990
     0.4556   0.4982   0.5718   0.6342   0.6706   0.7169   0.7288   0.7443
     0.8518   0.8607   0.8834   0.9316   1.0104   1.0268   1.0419   1.0763
     1.0816   1.1010   1.1139   1.1557   1.1717   1.2311   1.2427   1.2529
     1.2787   1.2965   1.3040   1.3262   1.3724   1.4757   1.4844   1.5116
     1.5139   1.5277   1.5792   1.6110   1.7025   1.8308   2.1395   2.6629
     2.6662   2.8715   2.9282   3.0416   3.0544   3.0947   3.2359   3.6603
     3.6702   3.7021   4.1348   4.1478   4.2058   4.2753   4.2847   4.4655
     4.5735   4.6773   4.8108   4.9275   5.0841   5.1290   5.4006   5.7152
     5.7541   5.8054

          k = 0.4000-0.4619 0.0000 ( 95470 PWs)   bands (ev):

   -21.8293 -13.1149  -6.9435  -6.5619  -6.5473  -5.9559  -5.8040  -5.4526
    -5.3153  -5.0676  -4.7917  -4.7423  -4.6885  -4.6438  -4.6092  -4.5074
    -4.4954  -4.3980  -4.3872  -4.2877  -4.2789  -4.2729  -4.2414  -4.2226
    -4.2128  -4.2059  -4.0867  -4.0640  -4.0567  -4.0282  -4.0120  -3.9413
    -3.8536  -3.8106  -3.7616  -3.6854  -3.6699  -3.6538  -3.6396  -3.6335
    -3.5584  -3.5290  -3.4816  -3.4195  -3.3169  -3.2263  -3.2159  -3.1739
    -3.0933  -3.0638  -3.0261  -2.9974  -2.8983  -2.8483  -2.8359  -2.8103
    -2.7850  -2.7442  -2.7175  -2.6957  -2.6418  -2.6168  -2.5992  -2.5871
    -2.5700  -2.5614  -2.5365  -2.5042  -2.4761  -2.3904  -2.3482  -2.3074
    -2.2876  -2.2002  -2.1654  -2.1448  -2.1295  -2.0964  -2.0685  -2.0493
    -2.0050  -1.9774  -1.9520  -1.9440  -1.9183  -1.8806  -1.8417  -1.8227
    -1.7987  -1.7474  -1.7269  -1.7089  -1.6529  -1.6075  -1.5680  -1.5444
    -1.5251  -1.5058  -1.4772  -1.4615  -1.4482  -1.4260  -1.4129  -1.3970
    -1.3674  -1.3608  -1.3292  -1.3204  -1.2976  -1.2937  -1.2849  -1.2589
    -1.2461  -1.2243  -1.1886  -1.1519  -1.0075  -0.9568  -0.8983  -0.8823
    -0.8447  -0.7756  -0.7682  -0.7387  -0.7129  -0.6900  -0.6616  -0.6470
    -0.6206  -0.5792  -0.5558  -0.5168  -0.4889  -0.4709  -0.4039  -0.3846
    -0.3445  -0.2855  -0.2051  -0.1646  -0.1461  -0.1103  -0.0868  -0.0620
    -0.0187   0.0127   0.0282   0.0359   0.0659   0.0777   0.1091   0.1675
     0.1924   0.2371   0.2573   0.2749   0.2825   0.3110   0.3210   0.3980
     0.4552   0.5007   0.5699   0.6349   0.6782   0.7176   0.7288   0.7487
     0.8470   0.8614   0.8802   0.9418   1.0101   1.0238   1.0479   1.0751
     1.0813   1.1012   1.1136   1.1550   1.1646   1.2323   1.2430   1.2528
     1.2791   1.2965   1.3051   1.3213   1.3711   1.4756   1.4830   1.5117
     1.5137   1.5277   1.5790   1.6127   1.7023   1.8343   2.1415   2.6636
     2.6656   2.8687   2.9304   3.0418   3.0543   3.0952   3.2351   3.6580
     3.6693   3.7085   4.1268   4.1448   4.2051   4.2733   4.2851   4.4593
     4.5711   4.6736   4.8254   4.9248   5.0826   5.1327   5.3992   5.7167
     5.7527   5.8035

     the Fermi energy is     1.2881 ev

!    total energy              =  -27835.89207285 Ry

     total all-electron energy =  -1326947.032579 Ry
     estimated scf accuracy    <       0.00000045 Ry
     smearing contrib. (-TS)   =      -0.00021004 Ry
     internal energy E=F+TS    =  -27835.89186282 Ry

     The total energy is F=E-TS. E is the sum of the following terms:
     one-electron contribution =  -31033.78663569 Ry
     hartree contribution      =   15813.20424421 Ry
     xc contribution           =    -907.90287057 Ry
     ewald contribution        =   13789.80485298 Ry
     one-center paw contrib.   =  -25497.21145375 Ry

     convergence has been achieved in  19 iterations

     negative rho (up, down):  1.467E-02 0.000E+00

     Forces acting on atoms (cartesian axes, Ry/au):

     atom    1 type  1   force =    -0.00023317    0.00017679   -0.00822844
     atom    2 type  1   force =    -0.00085690    0.00003842   -0.00361746
     atom    3 type  1   force =     0.00088023   -0.00005753   -0.00369141
     atom    4 type  1   force =    -0.00032395   -0.00040207   -0.00332031
     atom    5 type  1   force =    -0.00005349    0.00015657   -0.00364578
     atom    6 type  1   force =     0.00036429   -0.00041889   -0.00339943
     atom    7 type  1   force =     0.00024552    0.00102639   -0.00351885
     atom    8 type  1   force =    -0.00029780    0.00096301   -0.00343433
     atom    9 type  1   force =     0.00000932    0.00016546   -0.00324406
     atom   10 type  1   force =     0.00123118    0.00041046    0.00289030
     atom   11 type  1   force =    -0.00027220    0.00241862    0.00935995
     atom   12 type  1   force =    -0.00076912    0.00027287    0.00222018
     atom   13 type  1   force =     0.00189942   -0.00192514    0.00876937
     atom   14 type  1   force =    -0.00186921   -0.00159416    0.00847843
     atom   15 type  1   force =     0.00009429   -0.00018134    0.00210248
     atom   16 type  1   force =     0.00014593   -0.00003383   -0.00097870
     atom   17 type  1   force =     0.00020968   -0.00035653    0.00181511
     atom   18 type  1   force =    -0.00018632   -0.00043130    0.00164270
     atom   19 type  1   force =    -0.00016520   -0.00008724   -0.00019278
     atom   20 type  1   force =     0.00009439    0.00002621    0.00001246
     atom   21 type  1   force =    -0.00004174    0.00004242   -0.00001838
     atom   22 type  1   force =    -0.00003876   -0.00010238   -0.00031922
     atom   23 type  1   force =     0.00007255   -0.00004346   -0.00012584
     atom   24 type  1   force =    -0.00006028   -0.00005596   -0.00017809
     atom   25 type  1   force =    -0.00000512    0.00008086   -0.00026726
     atom   26 type  1   force =     0.00001054   -0.00019302   -0.00029544
     atom   27 type  1   force =    -0.00004740    0.00000425   -0.00055139
     atom   28 type  1   force =     0.00006032   -0.00006825    0.00022370
     atom   29 type  1   force =    -0.00004933    0.00005634    0.00005656
     atom   30 type  1   force =    -0.00008739   -0.00001850    0.00024966
     atom   31 type  1   force =     0.00015600   -0.00006950   -0.00007727
     atom   32 type  1   force =    -0.00019242   -0.00036741   -0.00001906
     atom   33 type  1   force =     0.00003887    0.00006022   -0.00006980
     atom   34 type  1   force =     0.00016794   -0.00005937    0.00001651
     atom   35 type  1   force =     0.00001769   -0.00008804   -0.00008999
     atom   36 type  1   force =    -0.00013975    0.00004673    0.00032682
     atom   37 type  2   force =     0.00135536   -0.00578510    0.00496623
     atom   38 type  2   force =    -0.00085486    0.00211078   -0.00033357
     atom   39 type  3   force =     0.00024193    0.00000775   -0.00004927
     atom   40 type  4   force =    -0.00075102    0.00427489   -0.00346432

     Total force =     0.009873     Total SCF correction =     0.001805
     SCF correction compared to forces is large: reduce conv_thr to get better values

     negative rho (up, down):  1.467E-02 0.000E+00

     negative rho (up, down):  1.467E-02 0.000E+00

     negative rho (up, down):  1.467E-02 0.000E+00

     negative rho (up, down):  1.467E-02 0.000E+00

     negative rho (up, down):  1.467E-02 0.000E+00

     negative rho (up, down):  1.467E-02 0.000E+00

     negative rho (up, down):  1.467E-02 0.000E+00

     negative rho (up, down):  1.467E-02 0.000E+00

     negative rho (up, down):  1.467E-02 0.000E+00

     negative rho (up, down):  1.467E-02 0.000E+00

     negative rho (up, down):  1.467E-02 0.000E+00

     negative rho (up, down):  1.467E-02 0.000E+00

     negative rho (up, down):  1.467E-02 0.000E+00

     negative rho (up, down):  1.467E-02 0.000E+00

     negative rho (up, down):  1.467E-02 0.000E+00

     negative rho (up, down):  1.467E-02 0.000E+00

     negative rho (up, down):  1.467E-02 0.000E+00

     negative rho (up, down):  1.467E-02 0.000E+00

     negative rho (up, down):  1.467E-02 0.000E+00

     negative rho (up, down):  1.467E-02 0.000E+00

     negative rho (up, down):  1.467E-02 0.000E+00

     negative rho (up, down):  1.467E-02 0.000E+00

     negative rho (up, down):  1.467E-02 0.000E+00

     negative rho (up, down):  1.467E-02 0.000E+00

     negative rho (up, down):  1.467E-02 0.000E+00

     negative rho (up, down):  1.467E-02 0.000E+00

     negative rho (up, down):  1.467E-02 0.000E+00

     negative rho (up, down):  1.467E-02 0.000E+00

     negative rho (up, down):  1.467E-02 0.000E+00

     negative rho (up, down):  1.467E-02 0.000E+00

     negative rho (up, down):  1.467E-02 0.000E+00

     negative rho (up, down):  1.467E-02 0.000E+00

     negative rho (up, down):  1.467E-02 0.000E+00

     negative rho (up, down):  1.467E-02 0.000E+00
 BEEFens 2000 ensemble energies
             -0.607704099608133E+02
             -0.361931758575540E+01
             -0.158601101536668E+02
              0.430126350770854E+02
             -0.221575337557540E+02
             -0.205683872497501E+02
             -0.352881717608420E+02
             -0.866391379352802E+02
             -0.466076870608555E+02
             -0.473677421613427E+02
             -0.369881747306995E+02
              0.228365394921153E+01
              0.406973929898248E+01
              0.764429423119282E+01
              0.265969814697499E+01
              0.475683089372654E+02
             -0.209228541895294E+02
             -0.230706010238116E+02
              0.193113893957743E+02
             -0.112582274845048E+03
              0.537288419640545E+02
             -0.290301537535547E+02
             -0.334546685846714E+01
             -0.114372683258600E+02
             -0.885689975372327E+01
             -0.465459787161268E+01
              0.884296232236351E+02
             -0.187235705561357E+02
             -0.902381291806830E+01
             -0.519202190317898E+02
              0.817023570411004E+02
             -0.187738531966763E+02
             -0.375546960333073E+02
              0.249795075576944E+02
             -0.285018722055071E+01
              0.164183565566225E+02
             -0.486852857817047E+01
              0.108391891653658E+02
              0.288569465670842E+02
             -0.103454935333133E+03
              0.559323037650593E+02
              0.142591670755148E+02
             -0.171477102009806E+01
             -0.362191027696457E+02
              0.123344007609460E+02
             -0.147012943652134E+02
              0.398972440184103E+02
              0.365527274342907E+02
             -0.308711862589079E+02
             -0.275527147984362E+02
             -0.328786037183181E+02
             -0.352691515598082E+02
              0.136383933747542E+02
             -0.491696877356050E+02
              0.115768252192453E+02
              0.624199462143340E+02
              0.636322710589068E+02
              0.356550711884623E+02
              0.154445979873513E+02
              0.270900015022180E+02
              0.892945582313500E+02
              0.213104798560527E+02
             -0.549502669216210E+02
             -0.157431862470081E+02
             -0.236266068432996E+02
              0.630836603071020E+02
             -0.774911220603241E+02
             -0.672888862860893E+02
             -0.259782517785396E+02
             -0.647966954190281E+01
             -0.471711706359558E+02
              0.271160502082078E+02
              0.802350104722859E+01
              0.869016115290196E+01
             -0.397909471257756E+02
             -0.347401802982038E+02
             -0.542717671277516E+02
              0.391037679366819E+02
             -0.296444786846188E+02
              0.265601744368518E+02
             -0.716431145146557E+01
             -0.318572841025442E+02
             -0.577366378584299E+02
             -0.176911674050847E+02
             -0.906092402759111E+01
             -0.125013687957666E+02
              0.412944832803282E+02
              0.683838638892254E+02
             -0.386277073116084E+02
             -0.796022751648826E+02
             -0.220021710955771E+02
              0.111701775052212E+03
             -0.593408176329352E+02
              0.356692837903884E+02
             -0.958564193209179E+01
             -0.664415662157227E+02
              0.254890715179441E+02
              0.398860411011461E+02
             -0.199062706334666E+02
              0.400970799806197E+02
             -0.296513729388928E+02
             -0.478873421014630E+02
              0.867124688043602E+02
              0.454662492215515E+02
              0.337198009310627E+02
              0.146678408864105E+02
              0.205929797710643E+02
              0.857958456715642E+02
             -0.257194676440959E+02
              0.789284991480856E+01
             -0.142643667848940E+03
              0.181519457506395E+02
             -0.717421802405086E+02
              0.151247847482339E+02
              0.204958867827128E+02
             -0.333406191690192E+02
             -0.558167795099441E+02
              0.655098016743557E+01
             -0.304646343947393E+02
              0.308297548382947E+02
             -0.530765813316696E+02
              0.172437894646566E+01
             -0.357547838264586E+02
             -0.424369550010141E+01
             -0.105273686040439E+01
              0.181323953902193E+02
              0.142491867484262E+01
             -0.653375226720459E+01
              0.591299748795555E+02
              0.909781019840262E+02
              0.484883241770492E+02
              0.831910824894455E+02
             -0.115382243003130E+02
              0.143278699113172E+02
              0.542085359945734E+02
             -0.111209624279173E+02
             -0.737085171097967E+02
             -0.384656746522898E+02
             -0.522644281880019E+02
             -0.277205529174428E+02
              0.327765533791273E+02
             -0.116972866230459E+03
             -0.187520563527683E+02
              0.414670784238077E+02
             -0.386885842640215E+02
             -0.366028132322853E+02
              0.544950660918781E+02
              0.401421966794138E+02
             -0.354636804478640E+02
              0.137755357294409E+02
             -0.273642567265474E+02
              0.343718109696685E+02
              0.446532529327129E+01
              0.211554006947894E+02
             -0.886339763218797E+02
             -0.481076536890260E+02
             -0.997636953761173E+01
              0.322648069980715E+01
             -0.367351267817027E+02
              0.106191152776529E+03
             -0.231420891399061E+02
             -0.399404283709113E+02
              0.389446515866039E+02
             -0.495058401841270E+02
             -0.363787831058037E+02
              0.325361137536233E+02
              0.124627201016343E+02
              0.164920910621106E+02
              0.116634226685759E+02
             -0.133020902136884E+02
              0.225668559923118E+02
              0.591171209944013E+02
             -0.312200449735687E+02
              0.162686803763397E+02
              0.936039687593744E+02
              0.341262570499786E+02
             -0.730858147048332E+01
             -0.188821127656892E+02
              0.153597917198126E+03
             -0.164227817042413E+02
              0.363820026992551E+02
              0.194664108621375E+02
              0.362307620402449E+02
              0.893459111625366E+02
              0.543776877033829E+02
             -0.240095997094199E+01
              0.228023753720311E+02
              0.485517635795165E+02
              0.364075500169118E+02
             -0.526387068874996E+02
              0.937559495156870E+02
             -0.827055918000963E+02
             -0.198469812548537E+02
              0.583811356468920E+02
              0.675824645955747E+01
              0.789985004177322E+01
              0.341482683738735E+02
              0.299705281090236E+02
              0.354241949640058E+02
             -0.638632572978793E+02
              0.287953717070241E+01
             -0.298075009556940E+02
             -0.872103549447345E+01
             -0.145762958811395E+01
             -0.723096957214445E+01
             -0.415691563649773E+01
              0.860777944840789E+02
             -0.101307617117033E+02
             -0.276829193613544E+02
             -0.497550097052607E+01
              0.140095933764989E+02
             -0.564824523613502E+02
             -0.407808885298847E+02
             -0.382711713068146E+02
             -0.631200987604116E+02
             -0.169866056132577E+02
             -0.448150733170858E+02
              0.163689852244806E+02
             -0.240089145856062E+01
             -0.104582805783393E+02
             -0.935542688235850E+01
              0.809142474353052E+01
             -0.243286857212541E+02
              0.690487478714300E+02
             -0.808447835584818E+02
             -0.141331178501783E+02
             -0.174385557832045E+02
              0.182331280983174E+02
              0.214670638489963E+02
             -0.464467848086201E+02
             -0.202183827547815E+02
              0.441595988446858E+02
             -0.276657636761283E+02
              0.187254381842594E+02
              0.383581562525745E+02
             -0.322511970138908E+01
              0.114317271548958E+03
             -0.230487335754989E+02
             -0.341513076907605E+02
              0.580017319378743E+01
             -0.228527662670853E+02
              0.528398248324598E+02
             -0.337694842351474E+02
              0.106602727666323E+02
              0.641711933395341E+02
             -0.126580881884248E+02
              0.120429944424735E+03
              0.126077535687912E+03
             -0.650885044133806E+02
              0.591487216467294E+02
              0.166668474994304E+02
             -0.518594986992869E+02
              0.216502686906928E+02
              0.354368156654399E+02
              0.363217101049220E+02
              0.135217303067904E+01
              0.159844816832396E+02
              0.696923124307136E+02
             -0.247322321022948E+02
              0.181701369702398E+02
              0.740387269045486E+02
             -0.373228810403717E+02
             -0.129827986758511E+02
              0.509324684895708E+02
              0.297831343090104E+02
              0.781505462998758E+02
              0.223070483288211E+02
              0.625414156996038E+01
              0.280866323094606E+02
              0.383897232872739E+02
             -0.472503705518938E+02
              0.331640410562096E+01
              0.129923947342290E+02
              0.113831041632804E+02
              0.220876905005651E+02
             -0.575801479995662E+02
              0.366631165312739E+02
             -0.444606498756870E+02
             -0.347929697523210E+02
              0.178247034501767E+02
             -0.181802983252513E+02
              0.555793106456873E+02
             -0.256592224429205E+02
              0.267167949224356E+02
              0.368759297498498E+02
              0.830516532401844E+02
              0.575660348504854E+02
              0.462560607082869E+02
             -0.105859691404250E+02
             -0.390933036531140E+01
             -0.332702600227094E+02
              0.751816063901443E+02
              0.798417092757288E+02
              0.362416887306551E+02
             -0.192274686756485E+02
              0.512645323237278E+02
             -0.163136942728223E+02
              0.215253286512610E+02
              0.615449550319689E+02
              0.213780793780111E+01
             -0.104564523691185E+02
             -0.283442131104284E+02
             -0.512398384332491E+02
              0.946879131906853E+02
              0.440411345536255E+02
             -0.559844321231565E+02
             -0.964142650089968E+01
              0.250379126409973E+02
             -0.998859770143045E+01
              0.593066663577392E+02
              0.152308456437398E+02
              0.800462699130181E+02
              0.279969220450865E+02
             -0.264413954330479E+02
              0.249342084911713E+02
             -0.502288748930579E+01
             -0.324225362853575E+02
              0.133421976993079E+02
              0.206004578088047E+02
              0.934320891101151E+02
              0.798736878263247E+02
              0.551866497181452E+02
              0.731944037362482E+02
              0.802119496794458E+01
             -0.274160031870165E+02
              0.163394376121011E+02
             -0.368604793744527E+02
             -0.477065983171752E+02
             -0.564575919193803E+02
             -0.266971899736395E+02
             -0.109885626817955E+03
             -0.291821128785581E+02
             -0.838705753754458E+02
              0.210389628124557E+02
             -0.477872855183134E+02
              0.397411845028851E+02
             -0.942927135813714E+02
             -0.330581869450876E+02
              0.549503219657569E+02
              0.207989812240939E+02
             -0.831948364033465E+02
              0.632123783875443E+02
             -0.257172980661558E+02
              0.513330358363172E+02
             -0.243056361239306E+02
             -0.752610112109918E+02
              0.112161271207455E+02
             -0.612371104073854E+02
             -0.168599560236707E+02
             -0.148932926580638E+01
              0.419005708141078E+02
              0.127216829393978E+03
             -0.462505823260632E+02
             -0.363108968910320E+02
             -0.976633584536216E+00
             -0.130676359867366E+02
             -0.823883738614728E+02
             -0.597804512062119E+02
              0.518054715034431E+02
             -0.289539809682893E+02
              0.169410402370837E+02
             -0.490236874185711E+02
             -0.132110338120247E+02
             -0.437936022497552E+02
              0.566486313015193E+02
              0.151307165147421E+02
             -0.232006527241206E+02
             -0.127135976922289E+02
              0.668612034274165E+01
             -0.621391109465475E+01
              0.442351360941552E+02
             -0.252469686778189E+02
              0.277450356540828E+01
              0.339896418964225E+02
              0.171624912299684E+02
             -0.160042737534666E+02
              0.156528232924838E+03
              0.538886986070041E+02
              0.116125732884568E+01
              0.161820853930319E+02
             -0.615899716939692E+02
              0.315469623240590E+02
             -0.722914408411920E+02
             -0.252402817487564E+02
             -0.523539069108851E+02
             -0.220393998160670E+02
              0.570038489032045E+02
             -0.537956075348764E+02
              0.161090535944397E+02
             -0.408820140410023E+01
              0.388200031143796E+01
             -0.434627003800648E+02
             -0.479074008005171E+02
             -0.400971827338981E+01
             -0.425806512404539E+02
             -0.217508375634376E+02
             -0.439192696214470E+02
             -0.119498173775861E+02
             -0.359629062200011E+02
             -0.517421273238247E+02
              0.213240623848285E+02
             -0.209686675479709E+02
              0.188110967731631E+02
              0.977113513092635E+01
             -0.739220299863197E+02
             -0.549059879237884E+02
             -0.398736830440197E+02
              0.354926470412265E+02
              0.271871964760723E+01
             -0.627815710315672E+02
              0.586693367256073E+02
             -0.401800079947451E+02
              0.545656268241769E+02
             -0.290090493037093E+02
             -0.446812255286676E+02
              0.298969532655174E+02
             -0.658756198632494E+02
             -0.380705189003835E+02
              0.673958328539701E+02
              0.204327018271950E+02
             -0.360745138644869E+02
              0.490395496979490E+02
             -0.174335016783797E+02
             -0.323446635334882E+02
             -0.302384731267734E+02
             -0.501477299100525E+02
              0.249787238200017E+02
             -0.934632036669900E+02
             -0.841789810055051E+02
             -0.735256542724926E+01
             -0.307263938626514E+02
             -0.576588130504553E+02
              0.723030423155207E+02
              0.131746825124723E+03
             -0.361674873604499E+02
             -0.255268732130730E+01
             -0.638299202654812E+02
              0.651589791021914E+02
              0.171053702689333E+02
             -0.182029904533122E+02
             -0.410710889436708E+02
              0.148913418535593E+02
             -0.587179024281672E+02
             -0.198197459147169E+02
             -0.906299031314613E+02
              0.337587869000644E+02
              0.169298195309559E+02
              0.184949645732661E+01
             -0.706348142851084E+01
             -0.330214758320058E+02
             -0.759470808801757E+01
              0.125736695731504E+03
             -0.199288230583255E+02
             -0.438195687783858E+02
             -0.685060152837507E+02
              0.109436482436753E+02
             -0.342712591416195E+02
              0.591807241011311E+01
              0.261950180135005E+02
              0.102290199155348E+02
              0.278333337065197E+02
              0.120054965419440E+02
              0.630640067792925E+02
              0.317344529916676E+02
             -0.327085202442414E+02
              0.356076684785886E+02
              0.380161197164371E+02
              0.121076048957141E+02
              0.487979154322818E+02
             -0.225071509712771E+02
              0.767082620552818E+02
              0.172568367380102E+02
             -0.272632518024723E+02
             -0.725094478824160E+01
             -0.186706454622538E+02
              0.262345824627276E+02
             -0.234877041366226E+02
             -0.119297605293070E+00
             -0.851342211404574E+01
              0.811049366009860E+02
              0.500963770083922E+02
             -0.688366554595237E+02
             -0.476978336545082E+01
             -0.556468653180522E+02
             -0.159813252856654E+02
             -0.268781270153609E+02
              0.376784030198496E+01
              0.590812319476832E+00
             -0.258057533385407E+02
              0.815120006156576E+01
             -0.603995523914284E+01
             -0.128857052798622E+02
              0.860420849063541E+02
              0.182169949269367E+02
             -0.808269098317401E+02
             -0.459235641893567E+02
              0.946457799416738E+02
              0.278314420555691E+02
             -0.106982459929064E+02
              0.104741641155140E+03
             -0.195203154138375E+02
             -0.123257676756298E+02
             -0.539787774449962E+01
              0.107655891096909E+02
              0.272827876803397E+02
              0.782064088680886E+01
              0.305861302378776E+02
             -0.188258688576698E+02
             -0.304228006333976E+02
             -0.418595228218459E+02
             -0.477770676920446E+02
              0.464872227805549E+02
              0.127056807482522E+02
              0.388311714333970E+02
              0.133742738635123E+02
              0.857106714385473E+02
              0.156694862993051E+02
             -0.847484451121359E+02
             -0.335079233576656E+02
              0.134054669417763E+02
             -0.303369846704471E+02
              0.627639173710652E+02
             -0.888264731086997E+01
              0.149050084740753E+02
              0.498042066505825E+02
             -0.708501936958362E+02
              0.150002163232384E+03
              0.209054116606738E+02
              0.271750272056975E+02
              0.348206768606824E+02
              0.104014635488442E+02
             -0.156662360511802E+01
              0.359138765146829E+02
             -0.357803570841822E+02
              0.774590663947728E+02
              0.685997850833302E+02
             -0.406768140673531E+02
              0.149861934509235E+02
              0.671367846226462E+02
             -0.224315840727069E+02
              0.154552552154695E+02
              0.436000240346451E+02
              0.423008857274024E+02
             -0.786259464757951E+02
             -0.153036998491887E+02
             -0.356866418999650E+02
             -0.149538417286493E+01
             -0.767376907502084E+01
             -0.545977373334767E+01
             -0.181068040801370E+02
             -0.294343976276455E+02
              0.634355160550911E+01
              0.111965235207215E+02
              0.536624525894856E+02
             -0.390976963851719E+02
              0.374972698875155E+02
              0.439309468036817E+02
             -0.187053901102445E+02
              0.873927349458469E+02
             -0.699071736291673E+02
             -0.103367375868548E+03
             -0.659617304745119E+01
             -0.270136629113620E+01
              0.386442138324946E+01
              0.790843031528859E+02
             -0.107297319324686E+02
              0.417355788202847E+02
              0.444427933755407E+02
              0.385958585514160E+02
             -0.996749720413618E+01
              0.628756392278541E+02
             -0.133864305896187E+02
             -0.307948273049817E+02
             -0.480465751891067E+02
              0.588300839765510E+01
              0.370388094033576E+02
             -0.604110524014857E+01
              0.393789674309378E+02
             -0.175470691438028E+01
              0.656421277518796E+02
              0.187744845434996E+02
              0.999693565392900E+01
             -0.122014352574455E+02
              0.332816945149549E+02
              0.363169287956842E+02
              0.233134262115381E+02
             -0.510476808065647E+00
             -0.551517851034234E+02
              0.261187607903227E+02
              0.175499583051049E+02
              0.403419066443282E+02
              0.272757110437817E+02
              0.373051153484455E+02
             -0.604630892362161E+01
              0.251475747024753E+02
             -0.298987544615195E+02
             -0.198375496960068E+01
             -0.570285058735511E+02
             -0.308402521567049E+02
              0.379475393464420E+02
             -0.937317701435673E+02
              0.295006762413190E+02
              0.184416780243594E+02
              0.841659798500853E+02
             -0.301154477905307E+02
              0.330002258686432E+02
             -0.137919476598560E+02
             -0.464773193253798E+02
             -0.763014096324146E+02
             -0.526468456841985E+01
             -0.861532114330645E+02
              0.200140448571010E+02
             -0.247918936188337E+02
              0.306280800681094E+02
              0.237253975482532E+02
             -0.241563698752630E+02
             -0.265864176120053E+02
              0.391615197423129E+02
             -0.589346027004320E+02
             -0.116897952826013E+02
             -0.196476279430019E+02
              0.213124585392961E+02
             -0.893427742573203E+01
              0.362912761684063E+01
             -0.201090731377257E+02
              0.559779719139379E+02
             -0.440246031715935E+02
              0.790159460932045E+01
              0.586486356095339E+02
             -0.323923369461981E+02
              0.360777145125479E+01
             -0.883161890601491E+01
             -0.670729512606795E+02
             -0.483539063964233E+02
             -0.863016071057286E+01
              0.241187662347129E+02
              0.302826000916359E+02
              0.861260764527913E+01
             -0.414964545332589E+01
              0.152318950579734E+02
             -0.440795994481975E+02
              0.332829549101507E+01
             -0.532082137579014E+02
             -0.325277633347544E+02
              0.475508327336805E+02
             -0.295679040900386E+02
              0.623525181290864E+02
             -0.215101758729570E+02
              0.354377534960532E+02
              0.242215622352452E+02
             -0.645206790996773E+02
             -0.281004152045782E+02
              0.933520332357341E+01
             -0.372376307044693E+02
             -0.340264868576833E+02
             -0.831378550657087E+02
             -0.540366211841625E+02
             -0.511397918731402E+02
             -0.416309658895397E+02
             -0.981772093800345E+00
              0.996593762547235E+01
              0.103054246982302E+01
              0.153464292972930E+02
             -0.550365744592142E+02
              0.142126733815518E+02
              0.257119874345287E+02
             -0.668024523700208E+02
             -0.703255636491514E+02
             -0.432057523205186E+02
             -0.172292211245428E+02
              0.178885840517083E+02
              0.456131328581910E+01
             -0.426792773136963E+02
              0.366974785783373E+02
             -0.216503372666279E+02
              0.518384538957907E+02
             -0.888777092775837E+02
              0.598677914859469E+02
             -0.211864551367702E+01
             -0.369178472425859E+02
             -0.216782765110454E+02
              0.471760520448403E+01
              0.375308082284728E+02
             -0.757745089900849E+02
             -0.120995169393962E+02
             -0.217087345132836E+02
              0.512074637379100E+02
              0.866348749630171E+02
             -0.966962605670817E+02
              0.945749205480870E+02
              0.468607459951619E+02
             -0.726798413444232E+02
             -0.367293455499754E+02
              0.753325320583448E+02
              0.633132670594591E+02
             -0.181532904571008E+02
             -0.464466668213595E+01
              0.734102547211651E+01
              0.650307233745672E+02
             -0.509345561850099E+02
              0.158769800272818E+02
             -0.473062154734139E+01
              0.348402297912722E+02
             -0.748365532409090E+02
             -0.649873735458496E+01
             -0.351793505595307E+02
              0.461545558722684E+02
              0.469576901948417E+02
             -0.863365577751206E+02
             -0.487952289839254E+02
             -0.256694679169626E+02
             -0.340029067024851E+02
             -0.109571068480578E+02
             -0.243325434910961E+02
              0.428181153395216E+02
              0.401851502786715E+02
             -0.566682705783057E+01
             -0.417081759081986E+02
             -0.851971092903951E+02
              0.443893777264088E+02
             -0.524236379491989E+02
             -0.313596182335166E+02
              0.547432614889692E+01
             -0.323147389789603E+02
             -0.398668262367247E+02
             -0.240661787997901E+02
[...]
              0.283995370676196E+02
              0.142039803979051E+03
              0.242814553260672E+02
              0.122804983777395E+02
             -0.465181088962572E+02
             -0.638846283254854E+02
             -0.189327578929231E+02
              0.330232690061282E+02
             -0.428490060728723E+01
              0.190277940312316E+02
              0.336669716637730E+02
             -0.587463509230357E+02
              0.222844624500981E+02
              0.583064133147659E+02
              0.553879778650816E+02
             -0.419723148146352E+01
             -0.137546147580679E+01
             -0.995664875852663E+01
             -0.483227491303900E+02
             -0.675957754227904E+02
              0.786873676708131E+02
             -0.523660791163041E+01
             -0.588888573904464E+02
              0.170353409313850E+01
             -0.205605747385405E+02
              0.940036098381306E+02
             -0.216854441359055E+02
             -0.354069891873945E+02
              0.335705480607787E+02
             -0.145971355383972E+02
              0.390257666457501E+02
             -0.239055887245445E+01
              0.101251723700216E+03
              0.490333927761587E+02
             -0.512887950926545E+01
             -0.322450716253224E+02
              0.232679706743556E+02
             -0.529381982851655E+02
             -0.128109380879392E+02
              0.586649352828022E+02
             -0.288135618379573E+02
             -0.439084787304901E+02
             -0.223495534067246E+02
              0.519492527492592E+02
              0.125050108255076E+02
             -0.850250886934489E+02
              0.304430166137636E+02
              0.152461566129872E+02
              0.577921274836521E+01
             -0.514280044549874E+02
             -0.377885416295908E+01
              0.323639057434096E+02
              0.513751238543834E+02
              0.633547184518213E+02
              0.229336145822482E+02
              0.761633460166621E+00
             -0.498759063645899E+02
             -0.510831053765132E+02
             -0.749176113856581E+02
             -0.615511454133093E+01
              0.309500592883651E+02
             -0.380537744147952E+01
              0.547707903978616E+02
             -0.318471789165901E+02
              0.166661526043666E+02
             -0.102751847564986E+02
             -0.290054146834380E+02
              0.586596665883677E+02
              0.793784194963268E+01
              0.605167061755570E+02
              0.510301261030281E+01
              0.265456070959000E+02
             -0.192986495741260E+02
              0.587123408159457E+02
             -0.111617563322851E+02
             -0.124409732952202E+00
             -0.791363864049366E+02
             -0.128568738933285E+02
              0.720273551650823E+02
              0.674298683780392E+02
              0.252174329836871E+02
             -0.130528205818098E+02
              0.343805585611736E+01
             -0.173705381386739E+02
             -0.204838661967366E+01
              0.909135516613674E+02
              0.123842481673364E+01
             -0.190667733159922E+02
             -0.110926446118144E+03
             -0.553608083929801E+02
             -0.375603716012407E+02
             -0.659678060016227E+02
             -0.556389091758708E+02
             -0.683746218229847E+02
             -0.447823931383607E+02
             -0.411552681619499E+02
             -0.452560335001748E+02
              0.484282327996906E+02
             -0.294675890576235E+02
             -0.997174981301253E+02
              0.419626544492818E+02
             -0.260395076602371E+02
             -0.792070881603910E+02
              0.945345311836231E+02
             -0.219995342049685E+02
              0.228439743606377E+02
              0.455889125884363E+02
             -0.135616114505450E+01
              0.254697831451024E+02
              0.470919884099359E+01
              0.410226888745267E+00
             -0.150866598830211E+02
             -0.716842298052851E+02
              0.133435907432045E+02
             -0.129600962694422E+03
              0.625022035381250E+02
             -0.441287633800371E+02
             -0.163014930918124E+02
             -0.158286059464666E+02
              0.714921498553445E+01
             -0.228066305289371E+02
              0.297583602352873E+02
             -0.521262562528678E+02
              0.367878938336199E+02
              0.371462187273896E+02
              0.168712790634324E+02
              0.100723233604716E+02
              0.198120465324162E+02
              0.622415391005904E+01
              0.310840024859313E+02
             -0.801807986851810E+01
             -0.593020705546957E+02
              0.759069145117815E+01
             -0.152870199666816E+02
             -0.194185613733663E+01
              0.506914050736636E+02
             -0.828171498496731E+02
             -0.149152845247437E+01
              0.572858969585354E+00
              0.996796603443170E+01
              0.318952251153747E+02
             -0.123801053890011E+02
              0.836921318533707E+02
              0.488584645705495E+02
             -0.183575825926748E+02
             -0.958020536038134E+01
              0.106280521689044E+01
              0.770732116970512E+02
             -0.587099099465798E+02
             -0.105932000327988E+03
              0.309702557154729E+02
             -0.163342420745361E+02
             -0.139708327070804E+02
              0.130694751844329E+02
              0.769726049057599E+02
              0.464963318948950E+02
             -0.153721934283101E+02
             -0.503668345857644E+02
             -0.549276463645215E+01
              0.306866637070967E+02
             -0.111724927851069E+02
             -0.756845409631028E+02
             -0.270968417169354E+01
             -0.891180729023496E+02
             -0.476207726919168E+02
              0.769553756494664E+02
             -0.484282323665007E+02
             -0.637469524634935E+02
             -0.515183737505508E+02
             -0.350229534516174E+02
              0.341505116282252E+02
              0.822826698574394E+02
             -0.357144920502122E+01
              0.276951802736759E+02
             -0.184027928057445E+02
             -0.694930511480986E+02
              0.465749395733462E+02
             -0.445661316005280E+02
              0.322266110565427E+02
              0.376883432843549E+02
             -0.656276645696079E+01
              0.391172800699126E+02
              0.439080193620127E+02
              0.100801289867087E+03
             -0.156322112228772E+02
             -0.456540485945903E+02
             -0.613665059331400E+02
             -0.124006108439230E+02
             -0.233221802459086E+02
              0.103183120189375E+03
             -0.449733294260384E+02
              0.105280154251123E+02
              0.973333613734047E+01
             -0.265079207985071E+02
             -0.799957736927119E+02
             -0.700473377120653E+01
              0.981308566691391E+02
              0.938309119446427E+01
              0.810172558766527E+01
             -0.527628789022614E+02
             -0.606286760315825E+02
             -0.562941700254804E+01
              0.501081841521496E+02
             -0.222222555381998E+02
              0.108134127154723E+03
             -0.436196950789721E+02
              0.146550290798662E+02
             -0.224545366664319E+02
             -0.719529763745981E+02
              0.167678434394566E+01
             -0.502299332455275E+02
             -0.761705850978576E+02
              0.616526590816613E+01
              0.235995857262427E+01
              0.514900727304682E+02
              0.187487429186108E+02
             -0.324060208639683E+02
              0.230382309967260E+02
             -0.812063244444961E+02
             -0.522530951891562E+02
              0.903077213578383E+02
              0.142609227112682E+02
             -0.188335850937578E+02
             -0.352983280955725E+02
             -0.270692959479231E+01
             -0.587327711237799E+01
              0.831434960378309E+02
              0.418351891880082E+02
             -0.166340886616135E+02
             -0.122094921192331E+02
             -0.428296251292579E+02
             -0.201063358109985E+02
             -0.671023910436535E+02
              0.460392219215804E+02
              0.547774388288516E+01
              0.145134498916649E+02
              0.156260898694261E+02
             -0.562676107147908E+00
             -0.168642535412289E+02
             -0.309944111187576E+01
             -0.100569716305260E+03
             -0.230280932231701E+02
             -0.765691071293440E+01
             -0.949694947929541E+01
              0.547224915214811E+02
              0.624682409653059E+02
              0.164990284357552E+02
             -0.971989738705490E+02
              0.648394764621621E+02
             -0.215240433983003E+02
             -0.377547221171249E+02
             -0.865430363732354E+02
             -0.387571774918906E+02
              0.565260560649026E+02
              0.244635582228506E+02
              0.515068776906486E+01
              0.292651618266012E+02
             -0.565741255200450E+02
             -0.422847428397261E+02
              0.516012513662884E+02
              0.387695972169490E+02
              0.519649064202149E+02
             -0.123249742724170E+01
              0.686123252574373E+01
              0.570268796050539E+02
              0.964155081546801E+02
             -0.300671046669103E+02
              0.323325061756927E+02
             -0.118602376046661E+02
             -0.412773998366509E+02
             -0.314763523829272E+02
             -0.300566744216610E+02
             -0.131533581655320E+02
             -0.524128711323197E+02
             -0.217587950399607E+02
             -0.141374581647355E+03
              0.369507813638256E+02
              0.206963155495394E+02
             -0.394320768891679E+01
             -0.380610497411018E+02
             -0.204589755725274E+02
             -0.527472357756537E+02
              0.151554769586244E+02
              0.821243006881334E+02
             -0.252524891493217E+02
             -0.163216250156235E+02
              0.238346632571628E+02
             -0.490080217841082E+02
              0.881796762129337E+02
              0.154695811390457E+02
              0.226698088238371E+02
              0.490920994472489E+02
              0.321540414523105E+01
              0.542782224737637E+02
              0.143168440036098E+02
             -0.106764226533826E+02
              0.732104238745282E+01
              0.784145534918252E+00
              0.728248404579024E+02
              0.101346578389268E+02
              0.120657880716547E+02
             -0.130261617981662E+02
              0.132610654933699E+02
             -0.912491828901391E+02
             -0.326401230919913E+02
             -0.457932442980000E+02
              0.485992980263040E+02
             -0.291434670332169E+02
             -0.659498871349932E+02
              0.539210350211374E+02
             -0.122227835240307E+02
              0.440691110303238E+02
             -0.900038258743090E+02
              0.232512575953658E+02
              0.858687247363449E+01
              0.582605632960110E+01
             -0.832500478909179E+01
             -0.904683241444695E+01
              0.480203184808931E+02
              0.200260291490775E+01
             -0.475659561114824E+02
             -0.176345326928354E+02
              0.277092137277590E+02
             -0.118104029671575E+03
             -0.931156434235475E+02
              0.396745650668680E+01
              0.117722035204277E+02
             -0.413748358911687E+02
             -0.390748524864688E+01
              0.112271418226912E+03
              0.307011645857914E+02
             -0.572400495817120E+02
              0.926395813686946E+01
             -0.965298967383818E+01
              0.105850194900687E+02
             -0.338098885937251E+02
              0.195606738786133E+02
              0.285013304914829E+02
             -0.299175992660992E+01
              0.108325090593777E+03
             -0.140556531014535E+02
             -0.316482383854802E+02
              0.143097448822680E+02
              0.467223786647189E+02
             -0.356473457092280E+02
             -0.318123715115820E+01
              0.966159171578737E+02
             -0.465823174144430E+01
              0.622513203558985E+02
              0.135670869497043E+02
             -0.903424830343596E+01
             -0.305790950673207E+02
              0.567443633152281E+02
             -0.514936517704184E+02
             -0.221946442800606E+01
             -0.170221038743025E+02
             -0.405885144750787E+02
              0.185224676221903E+02
              0.239557180510121E+02
              0.116354893133396E+02
              0.720274767089109E+00
             -0.384935988280076E+02
              0.215640442633976E+02
             -0.675431180485913E+01
             -0.246869665628267E+02
             -0.210958727245303E+02
              0.203675153786946E+02
             -0.599225718403500E+01
             -0.349667024105783E+02
             -0.106785805304745E+03
              0.103007714055840E+02
              0.249259883236817E+02
             -0.387842926026910E+02
             -0.211195153788728E+02
              0.808207034725520E+02
              0.651599558230419E+01
              0.311112531748752E+02
              0.390670414724525E+01
              0.322275620544906E+02
              0.648065497301531E+01
             -0.373464967087800E+02
             -0.231725047472963E+01
              0.877751335681728E+01
              0.274173745241970E+02
              0.783127488735857E+02
              0.508126178352979E+02
              0.185123042581267E+00
              0.169453447831073E+02
              0.614049345513600E+02
              0.236209689524929E+02
             -0.753958176205487E+02
             -0.274163606751330E+02
              0.151375482236011E+02
              0.562665558130857E+01
              0.255340736974416E+02
             -0.548594214998222E+02
              0.901101142024041E+01
              0.386498130750008E+02
              0.498700736015489E+02
             -0.435523962393294E+02
             -0.692314905219718E+01
             -0.208089784244959E+01
             -0.133937730594951E+02
             -0.366076494882640E+02
             -0.215624765501879E+02
             -0.201642192364336E+01
              0.794155389179542E+01
              0.421961369784607E+02
             -0.308663470746295E+02
              0.827306864820197E+02
              0.327983940772024E+02
              0.220113994358141E+02
              0.333509426379883E+02
              0.323700359876447E+02
              0.346583521680945E+02
              0.537917181233068E+02
             -0.434511393860598E+02
              0.620504516670341E+02
             -0.112423457225634E+03
              0.307824081945480E+02
             -0.106684242384630E+03
              0.855886492985347E+02
              0.691640772991548E+02
             -0.110039515032773E+02
             -0.494019408483984E+02
             -0.430137103205111E+02
             -0.624451038188480E+02
             -0.629537415677892E+02
              0.552666611083075E+02
              0.406054407521106E+02
              0.237144572215185E+02
              0.374409435061464E+02
              0.403600508851217E+02
             -0.382643966321342E+02
             -0.198176230781772E+02
              0.587407155156390E+02
             -0.116233167061059E+02
              0.552562279353652E+02
              0.700314927170756E+02
             -0.554705168180173E+01
             -0.707268675590217E+02
             -0.898359022292311E+00
             -0.247089037103573E+01
             -0.883726370723161E+01
             -0.180312735017111E+01
             -0.653957451177606E+02
             -0.211153226100021E+02
              0.539612602712412E+01
              0.899929648105569E+01
              0.469504891613510E+02
             -0.398211982377657E+02
              0.658543493296966E+02
             -0.425897495041187E+02
              0.210614073833740E+02
              0.350830720281646E+02
 
 BEEF-vdW xc energy contributions
           1 :   -784.014395027581     
           2 :    720.225750537362     
           3 :   -609.833873967169     
           4 :    479.914473528111     
           5 :   -357.917767951515     
           6 :    263.620614057568     
           7 :   -204.673258464679     
           8 :    176.583948680196     
           9 :   -166.718514822029     
          10 :    160.434396634154     
          11 :   -146.861408118689     
          12 :    122.150039491667     
          13 :   -89.3352561997240     
          14 :    55.4424867863187     
          15 :   -27.5125066253537     
          16 :    9.32960739256191     
          17 :  -0.121376573356883     
          18 :   -4.49872095855153     
          19 :    10.0481429122480     
          20 :   -20.4588168236166     
          21 :    36.3740312473457     
          22 :   -55.1372284908049     
          23 :    72.3095362461440     
          24 :   -83.8870760523760     
          25 :    88.1296274676250     
          26 :   -86.1959604638664     
          27 :    81.3816160656251     
          28 :   -77.4193999912501     
          29 :    76.7082870027905     
          30 :   -79.3091257211941     
          31 :   -85.9111308531815     
          32 :   -65.8296367192704     

     Writing output data file ./pwscf.save/
 
     init_run     :    353.08s CPU    357.70s WALL (       1 calls)
     electrons    :  13923.94s CPU  14055.78s WALL (       1 calls)
     forces       :    107.25s CPU    108.55s WALL (       1 calls)

     Called by init_run:
     wfcinit      :    305.12s CPU    308.69s WALL (       1 calls)
     potinit      :     44.38s CPU     44.72s WALL (       1 calls)
     hinit0       :      1.51s CPU      1.55s WALL (       1 calls)

     Called by electrons:
     c_bands      :  11518.51s CPU  11619.52s WALL (      20 calls)
     sum_band     :   1654.07s CPU   1668.03s WALL (      20 calls)
     v_of_rho     :    109.35s CPU    113.47s WALL (      20 calls)
     newd         :     35.01s CPU     47.90s WALL (      20 calls)
     PAW_pot      :    133.14s CPU    133.15s WALL (      20 calls)
     mix_rho      :    519.05s CPU    519.78s WALL (      20 calls)
     vdW_kernel   :     33.46s CPU     33.46s WALL (       1 calls)

     Called by c_bands:
     init_us_2    :     82.31s CPU     82.55s WALL (     546 calls)
     cegterg      :  10668.06s CPU  10768.76s WALL (     260 calls)

     Called by *egterg:
     cdiaghg      :     92.32s CPU     92.35s WALL (    1349 calls)
     h_psi        :   6931.77s CPU   6967.35s WALL (    1375 calls)
     s_psi        :   1119.91s CPU   1119.99s WALL (    1375 calls)
     g_psi        :     17.44s CPU     17.45s WALL (    1102 calls)

     Called by h_psi:
     h_psi:calbec :   1059.73s CPU   1059.97s WALL (    1375 calls)
     vloc_psi     :   4725.74s CPU   4727.44s WALL (    1375 calls)
     add_vuspsi   :   1119.13s CPU   1119.27s WALL (    1375 calls)

     General routines
     calbec       :   1564.78s CPU   1565.08s WALL (    1687 calls)
     fft          :     51.26s CPU     51.28s WALL (    3220 calls)
     ffts         :    164.91s CPU    164.95s WALL (   10944 calls)
     fftw         :   4814.88s CPU   4816.01s WALL (  334970 calls)
 
     Parallel routines
 
     PWSCF        :      4h 1m CPU      4h 4m WALL

 
   This run was terminated on:  14:14:58   4Jan2023            

=------------------------------------------------------------------------------=
   JOB DONE.
=------------------------------------------------------------------------------=
