
     Program PWSCF v.6.7MaX starts on 21Dec2022 at 12:56:26 

     This program is part of the open-source Quantum ESPRESSO suite
     for quantum simulation of materials; please cite
         "P. Giannozzi et al., J. Phys.:Condens. Matter 21 395502 (2009);
         "P. Giannozzi et al., J. Phys.:Condens. Matter 29 465901 (2017);
          URL http://www.quantum-espresso.org", 
     in publications or presentations arising from this work. More details at
     http://www.quantum-espresso.org/quote

     Parallel version (MPI), running on     1 processors

     MPI processes distributed on     1 nodes
     Reading input from co-ensemble.in
Warning: card &CELL ignored
Warning: card / ignored

     Current dimensions of program PWSCF are:
     Max number of different atomic species (ntypx) = 10
     Max number of k-points (npk) =  40000
     Max angular momentum in pseudopotentials (lmaxx) =  3
     file Pt.pbe-n-kjpaw_psl.1.0.0.UPF: wavefunction(s)  6S 5D renormalized
     file C.pbe-n-kjpaw_psl.1.0.0.UPF: wavefunction(s)  2S 2P renormalized
     file O.pbe-nl-kjpaw_psl.1.0.0.UPF: wavefunction(s)  2S 2P renormalized

     **************************************************************************
     Initializing libbeef V0.1.2 with the BEEF-vdW functional.
     Citation: Wellendorff et al., PRB 85, 235149 (2012).
     **************************************************************************


     IMPORTANT: XC functional enforced from input :
     Exchange-correlation= BEEF-VDW
                           (   1   4  43  14   2   0   0)
     Any further DFT definition will be discarded
     Please, verify this is what you really want


     Subspace diagonalization in iterative solution of the eigenvalue problem:
     a serial algorithm will be used

 
     G-vector sticks info
     --------------------
     sticks:   dense  smooth     PW     G-vecs:    dense   smooth      PW
     Sum        4267    4267   1159               701161   701161   98919
 


     bravais-lattice index     =            0
     lattice parameter (alat)  =      16.0349  a.u.
     unit-cell volume          =   11160.3576 (a.u.)^3
     number of atoms/cell      =           38
     number of atomic types    =            3
     number of electrons       =       370.00
     number of Kohn-Sham states=          222
     kinetic-energy cutoff     =      60.0000  Ry
     charge density cutoff     =     240.0000  Ry
     scf convergence threshold =      1.0E-06
     mixing beta               =       0.7000
     number of iterations used =            8  local-TF  mixing
     Exchange-correlation= BEEF-VDW
                           (   1   4  43  14   2   0   0)

     celldm(1)=  16.034858  celldm(2)=   0.000000  celldm(3)=   0.000000
     celldm(4)=   0.000000  celldm(5)=   0.000000  celldm(6)=   0.000000

     crystal axes: (cart. coord. in units of alat)
               a(1) = (   1.000000   0.000000   0.000000 )  
               a(2) = (   0.500000   0.866025   0.000000 )  
               a(3) = (   0.000000   0.000000   3.125735 )  

     reciprocal axes: (cart. coord. in units 2 pi/alat)
               b(1) = (  1.000000 -0.577350  0.000000 )  
               b(2) = (  0.000000  1.154701  0.000000 )  
               b(3) = (  0.000000  0.000000  0.319925 )  


     PseudoPot. # 1 for Pt read from file:
     /users/bkreitz1/quantum-espresso/potentials/Pt.pbe-n-kjpaw_psl.1.0.0.UPF
     MD5 check sum: 04dc8a03c51ece93fc7b5889c2958091
     Pseudo is Projector augmented-wave + core cor, Zval = 10.0
     Generated using 'atomic' code by A. Dal Corso  v.6.7MaX
     Shape of augmentation charge: PSQ
     Using radial grid of 1277 points,  6 beta functions with: 
                l(1) =   0
                l(2) =   0
                l(3) =   1
                l(4) =   1
                l(5) =   2
                l(6) =   2
     Q(r) pseudized with 0 coefficients 


     PseudoPot. # 2 for C  read from file:
     /users/bkreitz1/quantum-espresso/potentials/C.pbe-n-kjpaw_psl.1.0.0.UPF
     MD5 check sum: a169b0ebad56f5ec0d79c4633f80bf22
     Pseudo is Projector augmented-wave + core cor, Zval =  4.0
     Generated using 'atomic' code by A. Dal Corso  v.6.7MaX
     Shape of augmentation charge: PSQ
     Using radial grid of 1073 points,  4 beta functions with: 
                l(1) =   0
                l(2) =   0
                l(3) =   1
                l(4) =   1
     Q(r) pseudized with 0 coefficients 


     PseudoPot. # 3 for O  read from file:
     /users/bkreitz1/quantum-espresso/potentials/O.pbe-nl-kjpaw_psl.1.0.0.UPF
     MD5 check sum: eef08af8b58d9ec80f8fdb78829eb7cf
     Pseudo is Projector augmented-wave + core cor, Zval =  6.0
     Generated using 'atomic' code by A. Dal Corso  v.6.7MaX
     Shape of augmentation charge: PSQ
     Using radial grid of 1095 points,  4 beta functions with: 
                l(1) =   0
                l(2) =   0
                l(3) =   1
                l(4) =   1
     Q(r) pseudized with 0 coefficients 


     atomic species   valence    mass     pseudopotential
        Pt            10.00   195.08400     Pt( 1.00)
        C              4.00    12.01100     C ( 1.00)
        O              6.00    15.99900     O ( 1.00)

     No symmetry found



   Cartesian axes

     site n.     atom                  positions (alat units)
         1           Pt  tau(   1) = (   0.0000000   0.0000000   1.0017346  )
         2           Pt  tau(   2) = (   0.3333333   0.0000000   1.0017346  )
         3           Pt  tau(   3) = (   0.6666667   0.0000000   1.0017346  )
         4           Pt  tau(   4) = (   0.1666667   0.2886751   1.0017346  )
         5           Pt  tau(   5) = (   0.5000000   0.2886751   1.0017346  )
         6           Pt  tau(   6) = (   0.8333333   0.2886751   1.0017346  )
         7           Pt  tau(   7) = (   0.3333333   0.5773503   1.0017346  )
         8           Pt  tau(   8) = (   0.6666667   0.5773503   1.0017346  )
         9           Pt  tau(   9) = (   1.0000000   0.5773503   1.0017346  )
        10           Pt  tau(  10) = (   0.1666667   0.0962250   1.2739001  )
        11           Pt  tau(  11) = (   0.5000000   0.0962250   1.2739001  )
        12           Pt  tau(  12) = (   0.8333333   0.0962250   1.2739001  )
        13           Pt  tau(  13) = (   0.3333333   0.3849002   1.2739001  )
        14           Pt  tau(  14) = (   0.6666667   0.3849002   1.2739001  )
        15           Pt  tau(  15) = (   1.0000000   0.3849002   1.2739001  )
        16           Pt  tau(  16) = (   0.5000000   0.6735753   1.2739001  )
        17           Pt  tau(  17) = (   0.8333333   0.6735753   1.2739001  )
        18           Pt  tau(  18) = (   1.1666667   0.6735753   1.2739001  )
        19           Pt  tau(  19) = (   0.0000201   0.1915356   1.5455325  )
        20           Pt  tau(  20) = (   0.3317194   0.1915176   1.5456294  )
        21           Pt  tau(  21) = (   0.6658860   0.1917813   1.5419056  )
        22           Pt  tau(  22) = (   0.1659135   0.4789699   1.5449141  )
        23           Pt  tau(  23) = (   0.4990287   0.4807874   1.5419079  )
        24           Pt  tau(  24) = (   0.8328497   0.4808481   1.5418204  )
        25           Pt  tau(  25) = (   0.3339413   0.7701482   1.5450037  )
        26           Pt  tau(  26) = (   0.6658808   0.7702802   1.5455301  )
        27           Pt  tau(  27) = (   0.9977683   0.7702124   1.5449189  )
        28           Pt  tau(  28) = (  -0.0052925  -0.0030645   1.8300758  )
        29           Pt  tau(  29) = (   0.3338095  -0.0025897   1.8304689  )
        30           Pt  tau(  30) = (   0.6644795  -0.0008696   1.8171370  )
        31           Pt  tau(  31) = (   0.1646692   0.2903782   1.8304601  )
        32           Pt  tau(  32) = (   0.5005472   0.2889847   1.8160094  )
        33           Pt  tau(  33) = (   0.8289135   0.2891897   1.8157994  )
        34           Pt  tau(  34) = (   0.3314980   0.5758719   1.8171137  )
        35           Pt  tau(  35) = (   0.6649091   0.5732546   1.8158017  )
        36           Pt  tau(  36) = (   0.9980103   0.5761865   1.8171225  )
        37           C   tau(  37) = (   0.1613642   0.0931588   1.9861657  )
        38           O   tau(  38) = (   0.1621990   0.0936548   2.1265251  )

     number of k points=    13  Marzari-Vanderbilt smearing, width (Ry)=  0.0200
                       cart. coord. in units 2pi/alat
        k(    1) = (   0.0000000   0.0000000   0.0000000), wk =   0.0800000
        k(    2) = (   0.0000000   0.2309401   0.0000000), wk =   0.1600000
        k(    3) = (   0.0000000   0.4618802   0.0000000), wk =   0.1600000
        k(    4) = (   0.2000000  -0.1154701   0.0000000), wk =   0.1600000
        k(    5) = (   0.2000000   0.1154701   0.0000000), wk =   0.1600000
        k(    6) = (   0.2000000   0.3464102   0.0000000), wk =   0.1600000
        k(    7) = (   0.2000000  -0.5773503   0.0000000), wk =   0.1600000
        k(    8) = (   0.2000000  -0.3464102   0.0000000), wk =   0.1600000
        k(    9) = (   0.4000000  -0.2309401   0.0000000), wk =   0.1600000
        k(   10) = (   0.4000000  -0.0000000   0.0000000), wk =   0.1600000
        k(   11) = (   0.4000000   0.2309401   0.0000000), wk =   0.1600000
        k(   12) = (   0.4000000  -0.6928203   0.0000000), wk =   0.1600000
        k(   13) = (   0.4000000  -0.4618802   0.0000000), wk =   0.1600000

     Dense  grid:   701161 G-vectors     FFT dimensions: (  80,  80, 250)

     Estimated max dynamical RAM per process >       8.42 GB

     Check: negative core charge=   -0.000001

     Initial potential from superposition of free atoms

     starting charge  369.99385, renormalised to  370.00000

     negative rho (up, down):  1.249E-02 0.000E+00


     %%%%%%%%%%%%%%%%%%%%%%%%%%%%%%%%%%%%%%%%%%%%%%%%%%%%%%%%%%%%%%%%%%%%%%%%
     %                                                                      %
     % You are using vdW-DF, which was implemented by the Thonhauser group. %
     % Please cite the following two papers that made this development      %
     % possible and the two reviews that describe the various versions:     %
     %                                                                      %
     %   T. Thonhauser et al., PRL 115, 136402 (2015).                      %
     %   T. Thonhauser et al., PRB 76, 125112 (2007).                       %
     %   K. Berland et al., Rep. Prog. Phys. 78, 066501 (2015).             %
     %   D.C. Langreth et al., J. Phys.: Condens. Matter 21, 084203 (2009). %
     %                                                                      %
     %                                                                      %
     % If you are calculating the stress with vdW-DF, please also cite:     %
     %                                                                      %
     %   R. Sabatini et al., J. Phys.: Condens. Matter 24, 424209 (2012).   %
     %                                                                      %
     %%%%%%%%%%%%%%%%%%%%%%%%%%%%%%%%%%%%%%%%%%%%%%%%%%%%%%%%%%%%%%%%%%%%%%%%


     Starting wfcs are  332 randomized atomic wfcs
     Checking if some PAW data can be deallocated... 

     total cpu time spent up to now is      295.8 secs

     Self-consistent Calculation

     iteration #  1     ecut=    60.00 Ry     beta= 0.70
     Davidson diagonalization with overlap
     ethr =  1.00E-02,  avg # of iterations =  2.0

     Threshold (ethr) on eigenvalues was too large:
     Diagonalizing with lowered threshold

     Davidson diagonalization with overlap
     ethr =  6.60E-04,  avg # of iterations =  3.1

     negative rho (up, down):  2.212E-02 0.000E+00

     total cpu time spent up to now is     1452.4 secs

     total energy              =  -27815.43522819 Ry
     estimated scf accuracy    <       2.65591398 Ry

     iteration #  2     ecut=    60.00 Ry     beta= 0.70
     Davidson diagonalization with overlap
     ethr =  7.18E-04,  avg # of iterations =  2.0

     negative rho (up, down):  2.428E-02 0.000E+00

     total cpu time spent up to now is     1978.9 secs

     total energy              =  -27815.66770563 Ry
     estimated scf accuracy    <       1.04515411 Ry

     iteration #  3     ecut=    60.00 Ry     beta= 0.70
     Davidson diagonalization with overlap
     ethr =  2.82E-04,  avg # of iterations =  2.0

     negative rho (up, down):  2.615E-02 0.000E+00

     total cpu time spent up to now is     2532.7 secs

     total energy              =  -27815.74156997 Ry
     estimated scf accuracy    <       0.37967544 Ry

     iteration #  4     ecut=    60.00 Ry     beta= 0.70
     Davidson diagonalization with overlap
     ethr =  1.03E-04,  avg # of iterations =  8.5

     negative rho (up, down):  2.610E-02 0.000E+00

     total cpu time spent up to now is     3152.8 secs

     total energy              =  -27815.77734748 Ry
     estimated scf accuracy    <       0.13558933 Ry

     iteration #  5     ecut=    60.00 Ry     beta= 0.70
     Davidson diagonalization with overlap
     ethr =  3.66E-05,  avg # of iterations =  6.5

     negative rho (up, down):  2.464E-02 0.000E+00

     total cpu time spent up to now is     3799.8 secs

     total energy              =  -27815.79373684 Ry
     estimated scf accuracy    <       0.03297200 Ry

     iteration #  6     ecut=    60.00 Ry     beta= 0.70
     Davidson diagonalization with overlap
     ethr =  8.91E-06,  avg # of iterations = 11.8

     negative rho (up, down):  2.260E-02 0.000E+00

     total cpu time spent up to now is     4554.0 secs

     total energy              =  -27815.80066969 Ry
     estimated scf accuracy    <       0.00703949 Ry

     iteration #  7     ecut=    60.00 Ry     beta= 0.70
     Davidson diagonalization with overlap
     c_bands:  1 eigenvalues not converged
     c_bands:  1 eigenvalues not converged
     c_bands:  1 eigenvalues not converged
     ethr =  1.90E-06,  avg # of iterations = 11.5

     negative rho (up, down):  2.035E-02 0.000E+00

     total cpu time spent up to now is     5278.4 secs

     total energy              =  -27815.80162814 Ry
     estimated scf accuracy    <       0.00318542 Ry

     iteration #  8     ecut=    60.00 Ry     beta= 0.70
     Davidson diagonalization with overlap
     ethr =  8.61E-07,  avg # of iterations =  2.3

     negative rho (up, down):  1.936E-02 0.000E+00

     total cpu time spent up to now is     5809.8 secs

     total energy              =  -27815.80189985 Ry
     estimated scf accuracy    <       0.00134760 Ry

     iteration #  9     ecut=    60.00 Ry     beta= 0.70
     Davidson diagonalization with overlap
     ethr =  3.64E-07,  avg # of iterations =  2.3

     negative rho (up, down):  1.859E-02 0.000E+00

     total cpu time spent up to now is     6345.7 secs

     total energy              =  -27815.80200551 Ry
     estimated scf accuracy    <       0.00037706 Ry

     iteration # 10     ecut=    60.00 Ry     beta= 0.70
     Davidson diagonalization with overlap
     c_bands:  1 eigenvalues not converged
     ethr =  1.02E-07,  avg # of iterations =  5.2

     negative rho (up, down):  1.727E-02 0.000E+00

     total cpu time spent up to now is     7009.5 secs

     total energy              =  -27815.80208099 Ry
     estimated scf accuracy    <       0.00026611 Ry

     iteration # 11     ecut=    60.00 Ry     beta= 0.70
     Davidson diagonalization with overlap
     ethr =  7.19E-08,  avg # of iterations =  1.7

     negative rho (up, down):  1.634E-02 0.000E+00

     total cpu time spent up to now is     7516.2 secs

     total energy              =  -27815.80208127 Ry
     estimated scf accuracy    <       0.00015482 Ry

     iteration # 12     ecut=    60.00 Ry     beta= 0.70
     Davidson diagonalization with overlap
     ethr =  4.18E-08,  avg # of iterations =  1.1

     negative rho (up, down):  1.522E-02 0.000E+00

     total cpu time spent up to now is     7984.2 secs

     total energy              =  -27815.80207565 Ry
     estimated scf accuracy    <       0.00005607 Ry

     iteration # 13     ecut=    60.00 Ry     beta= 0.70
     Davidson diagonalization with overlap
     ethr =  1.52E-08,  avg # of iterations =  3.7

     negative rho (up, down):  1.500E-02 0.000E+00

     total cpu time spent up to now is     8546.1 secs

     total energy              =  -27815.80208244 Ry
     estimated scf accuracy    <       0.00002203 Ry

     iteration # 14     ecut=    60.00 Ry     beta= 0.70
     Davidson diagonalization with overlap
     ethr =  5.95E-09,  avg # of iterations =  3.8

     negative rho (up, down):  1.466E-02 0.000E+00

     total cpu time spent up to now is     9112.9 secs

     total energy              =  -27815.80208448 Ry
     estimated scf accuracy    <       0.00000729 Ry

     iteration # 15     ecut=    60.00 Ry     beta= 0.70
     Davidson diagonalization with overlap
     ethr =  1.97E-09,  avg # of iterations =  4.5

     negative rho (up, down):  1.451E-02 0.000E+00

     total cpu time spent up to now is     9727.2 secs

     total energy              =  -27815.80208583 Ry
     estimated scf accuracy    <       0.00000445 Ry

     iteration # 16     ecut=    60.00 Ry     beta= 0.70
     Davidson diagonalization with overlap
     ethr =  1.20E-09,  avg # of iterations =  1.8

     negative rho (up, down):  1.423E-02 0.000E+00

     total cpu time spent up to now is    10226.4 secs

     total energy              =  -27815.80208599 Ry
     estimated scf accuracy    <       0.00000383 Ry

     iteration # 17     ecut=    60.00 Ry     beta= 0.70
     Davidson diagonalization with overlap
     ethr =  1.03E-09,  avg # of iterations =  1.8

     negative rho (up, down):  1.376E-02 0.000E+00

     total cpu time spent up to now is    10722.8 secs

     total energy              =  -27815.80208621 Ry
     estimated scf accuracy    <       0.00000182 Ry

     iteration # 18     ecut=    60.00 Ry     beta= 0.70
     Davidson diagonalization with overlap
     ethr =  4.91E-10,  avg # of iterations =  2.2

     negative rho (up, down):  1.343E-02 0.000E+00

     total cpu time spent up to now is    11249.5 secs

     total energy              =  -27815.80208665 Ry
     estimated scf accuracy    <       0.00000141 Ry

     iteration # 19     ecut=    60.00 Ry     beta= 0.70
     Davidson diagonalization with overlap
     ethr =  3.82E-10,  avg # of iterations =  1.8

     negative rho (up, down):  1.335E-02 0.000E+00

     total cpu time spent up to now is    11734.7 secs

     End of self-consistent calculation

          k = 0.0000 0.0000 0.0000 ( 87759 PWs)   bands (ev):

   -20.7248  -8.6963  -7.0775  -5.7837  -5.0411  -4.8595  -4.8462  -4.7340
    -4.7068  -4.7022  -4.6993  -4.6676  -4.5661  -4.5660  -4.4669  -4.1542
    -4.1446  -4.1433  -4.0886  -4.0827  -4.0808  -3.6979  -3.6978  -3.6873
    -3.6018  -3.6004  -3.5987  -3.4761  -3.4740  -3.4736  -3.3944  -3.3897
    -3.3657  -3.2565  -3.2561  -3.2506  -3.2199  -3.2152  -3.2127  -3.1963
    -3.1904  -3.1896  -3.1432  -3.1422  -2.9555  -2.6293  -2.6286  -2.5959
    -2.5912  -2.5800  -2.5797  -2.5303  -2.5288  -2.5271  -2.3915  -2.3814
    -2.3813  -2.2660  -2.2659  -1.8579  -1.8534  -1.8420  -1.8017  -1.7985
    -1.7547  -1.7431  -1.6540  -1.6485  -1.6236  -1.6236  -1.6215  -1.6100
    -1.6077  -1.5661  -1.5636  -1.5636  -1.5516  -1.5513  -1.5166  -1.5035
    -1.5009  -1.4405  -1.4360  -1.4230  -1.3982  -1.3881  -1.3862  -1.2235
    -1.2170  -1.2136  -1.1842  -1.1768  -1.1646  -1.1641  -1.1521  -1.0842
    -1.0835  -1.0230  -1.0214  -1.0187  -0.9698  -0.9691  -0.9537  -0.9338
    -0.9332  -0.8023  -0.7954  -0.7863  -0.7694  -0.7663  -0.7594  -0.5870
    -0.3416  -0.3298  -0.2789  -0.2758  -0.2718  -0.2609  -0.2588  -0.2460
    -0.2260  -0.2131  -0.2106  -0.1223  -0.1220  -0.0640  -0.0060  -0.0038
     0.0094   0.0185   0.0193   0.0938   0.1060   0.1990   0.2033   0.2094
     0.2277   0.3679   0.3781   0.4379   0.4735   0.4761   0.4822   0.5245
     0.5313   0.6577   0.6673   0.6677   0.7075   0.7093   0.7164   0.7881
     0.7965   0.8119   0.8343   0.8800   0.8860   0.8990   0.9023   0.9249
     0.9258   0.9293   0.9295   0.9545   0.9547   0.9691   1.0439   1.0441
     1.0595   1.0626   1.0661   1.1335   1.1339   1.1357   1.1459   1.1482
     1.1843   1.1844   1.2232   1.2719   1.2808   1.2827   1.2870   1.2873
     1.3247   1.3359   1.3710   1.3720   1.4007   1.4014   1.4181   1.4311
     1.5820   1.5907   1.6914   1.6947   1.6979   1.7273   1.7288   1.7445
     2.1807   2.4865   2.4919   2.5667   2.6161   2.6198   2.6417   4.3485
     4.3696   4.4610   4.9340   4.9397   4.9489   5.6613   5.6759   6.2850
     6.5253   6.5293   6.5548   6.7025   6.7205   6.7215

          k = 0.0000 0.2309 0.0000 ( 87564 PWs)   bands (ev):

   -20.7248  -8.6857  -6.9365  -5.6550  -5.2295  -4.9952  -4.8938  -4.8405
    -4.6975  -4.6608  -4.5917  -4.4986  -4.4564  -4.4283  -4.3632  -4.2368
    -4.1745  -4.0774  -4.0759  -4.0107  -4.0049  -3.7665  -3.6519  -3.6413
    -3.6353  -3.5666  -3.5487  -3.5383  -3.4741  -3.4662  -3.4445  -3.4366
    -3.3782  -3.3514  -3.3396  -3.2589  -3.2470  -3.2251  -3.2036  -3.1166
    -3.0374  -3.0240  -3.0002  -2.9895  -2.8956  -2.7395  -2.7375  -2.6967
    -2.6606  -2.6443  -2.6315  -2.5674  -2.4622  -2.4154  -2.3743  -2.3678
    -2.3229  -2.2861  -2.2590  -2.0744  -1.9850  -1.9796  -1.9355  -1.9291
    -1.8990  -1.8395  -1.8233  -1.8140  -1.7781  -1.7707  -1.7167  -1.6935
    -1.6565  -1.6256  -1.6107  -1.5880  -1.5428  -1.5330  -1.5132  -1.4328
    -1.4283  -1.4232  -1.3907  -1.3495  -1.3370  -1.3281  -1.3034  -1.2869
    -1.2452  -1.2179  -1.2154  -1.1985  -1.1672  -1.1628  -1.1201  -1.1092
    -1.0714  -1.0588  -1.0313  -1.0208  -1.0055  -0.9864  -0.9608  -0.9523
    -0.8850  -0.8583  -0.8214  -0.8009  -0.7693  -0.7644  -0.7611  -0.7481
    -0.6998  -0.6900  -0.6793  -0.6704  -0.4635  -0.3655  -0.3213  -0.3066
    -0.2729  -0.2582  -0.2504  -0.2359  -0.2133  -0.2035  -0.0749  -0.0480
     0.0165   0.0693   0.0818   0.1266   0.1356   0.1441   0.1639   0.1831
     0.1956   0.2506   0.3002   0.3372   0.3504   0.3576   0.4259   0.4894
     0.5093   0.5285   0.5674   0.5720   0.5944   0.6496   0.6559   0.6926
     0.7349   0.7369   0.7732   0.7835   0.8113   0.8387   0.8965   0.9092
     0.9483   0.9592   0.9791   1.0108   1.0209   1.0942   1.1092   1.1168
     1.1615   1.1653   1.2457   1.2463   1.2894   1.3015   1.3024   1.3153
     1.3586   1.3708   1.3754   1.3922   1.4005   1.4475   1.4482   1.5668
     1.5716   1.6078   1.6253   1.6463   1.6499   1.6779   1.7029   1.7158
     1.7364   1.7538   1.8238   1.8582   1.8825   2.0197   2.0264   2.0382
     2.0610   2.4055   2.4206   2.8591   3.1318   3.2202   3.3201   3.9083
     4.3268   4.4628   4.9471   5.1067   5.2094   5.3810   5.5555   5.7479
     5.8558   6.3905   6.4808   6.5906   6.7756   6.8393

          k = 0.0000 0.4619 0.0000 ( 87604 PWs)   bands (ev):

   -20.7248  -8.6688  -6.5287  -5.9090  -5.3007  -4.9728  -4.9164  -4.8800
    -4.7338  -4.6190  -4.5503  -4.4402  -4.3077  -4.2063  -4.1213  -4.1100
    -4.0668  -3.9261  -3.9250  -3.8862  -3.8705  -3.8569  -3.7619  -3.7276
    -3.7099  -3.6766  -3.6573  -3.6411  -3.5905  -3.5396  -3.5384  -3.3960
    -3.2969  -3.2884  -3.2790  -3.2576  -3.2279  -3.2010  -3.0364  -3.0326
    -3.0265  -2.9956  -2.9405  -2.9164  -2.7918  -2.7187  -2.7103  -2.6859
    -2.6495  -2.6418  -2.5992  -2.5560  -2.5412  -2.5307  -2.4937  -2.4054
    -2.3450  -2.3347  -2.3221  -2.2815  -2.1818  -2.1527  -2.1230  -2.1193
    -2.1009  -1.9597  -1.9308  -1.9145  -1.9035  -1.8833  -1.7935  -1.7908
    -1.7650  -1.6814  -1.6581  -1.6469  -1.6109  -1.5502  -1.5469  -1.5111
    -1.4983  -1.4761  -1.4504  -1.4194  -1.4160  -1.4003  -1.3925  -1.3860
    -1.3704  -1.3560  -1.2786  -1.2693  -1.2336  -1.2123  -1.2008  -1.1980
    -1.1912  -1.1289  -1.0824  -1.0534  -1.0313  -0.9980  -0.9827  -0.9590
    -0.9343  -0.9154  -0.8593  -0.8213  -0.7536  -0.7419  -0.7224  -0.7092
    -0.6798  -0.5621  -0.5286  -0.4751  -0.4505  -0.4133  -0.3892  -0.3538
    -0.3260  -0.3198  -0.3111  -0.3095  -0.2566  -0.2360  -0.2118  -0.2094
    -0.1717  -0.1567  -0.1363  -0.1279  -0.1127  -0.0182   0.0099   0.0389
     0.0852   0.1023   0.2049   0.2244   0.3028   0.3047   0.3674   0.4241
     0.4547   0.4789   0.5054   0.5547   0.5862   0.6021   0.6216   0.6454
     0.6810   0.7112   0.7189   0.7900   0.8061   0.8120   0.8630   0.8726
     0.8990   0.9261   1.0016   1.0110   1.0738   1.1287   1.1477   1.1702
     1.2018   1.2742   1.2759   1.3317   1.3344   1.3456   1.3753   1.4292
     1.4453   1.4572   1.4808   1.5834   1.5902   1.6131   1.6272   1.6324
     1.6371   1.6720   1.6873   1.8522   1.8587   1.8739   1.8767   1.8950
     2.0095   2.1021   2.2370   2.4284   2.4891   2.6553   2.9209   2.9219
     3.1473   3.2751   3.2942   3.5889   3.8271   4.0391   4.0780   4.1911
     4.2191   4.3148   4.3754   4.4633   4.6443   4.7519   5.2000   5.3438
     5.4393   5.6133   6.0185   6.0672   6.5893   6.6385

          k = 0.2000-0.1155 0.0000 ( 87564 PWs)   bands (ev):

   -20.7248  -8.6857  -6.9365  -5.6550  -5.2295  -4.9952  -4.8938  -4.8405
    -4.6974  -4.6608  -4.5917  -4.4986  -4.4564  -4.4283  -4.3632  -4.2368
    -4.1745  -4.0774  -4.0759  -4.0108  -4.0049  -3.7665  -3.6518  -3.6413
    -3.6353  -3.5666  -3.5487  -3.5383  -3.4741  -3.4661  -3.4444  -3.4366
    -3.3782  -3.3514  -3.3396  -3.2589  -3.2470  -3.2251  -3.2036  -3.1166
    -3.0374  -3.0240  -3.0002  -2.9895  -2.8956  -2.7395  -2.7375  -2.6967
    -2.6606  -2.6443  -2.6315  -2.5674  -2.4622  -2.4154  -2.3743  -2.3678
    -2.3229  -2.2861  -2.2591  -2.0744  -1.9850  -1.9796  -1.9356  -1.9291
    -1.8990  -1.8395  -1.8233  -1.8140  -1.7780  -1.7707  -1.7167  -1.6935
    -1.6565  -1.6256  -1.6107  -1.5881  -1.5428  -1.5330  -1.5132  -1.4328
    -1.4283  -1.4232  -1.3907  -1.3496  -1.3371  -1.3282  -1.3034  -1.2868
    -1.2452  -1.2179  -1.2153  -1.1985  -1.1672  -1.1628  -1.1201  -1.1092
    -1.0714  -1.0588  -1.0313  -1.0208  -1.0054  -0.9864  -0.9608  -0.9523
    -0.8850  -0.8583  -0.8215  -0.8008  -0.7693  -0.7644  -0.7611  -0.7481
    -0.6998  -0.6900  -0.6792  -0.6704  -0.4636  -0.3655  -0.3213  -0.3066
    -0.2729  -0.2582  -0.2504  -0.2359  -0.2133  -0.2035  -0.0750  -0.0479
     0.0165   0.0693   0.0818   0.1266   0.1356   0.1441   0.1639   0.1831
     0.1956   0.2506   0.3001   0.3372   0.3504   0.3576   0.4259   0.4895
     0.5093   0.5286   0.5674   0.5720   0.5944   0.6496   0.6560   0.6926
     0.7349   0.7369   0.7732   0.7835   0.8113   0.8387   0.8965   0.9092
     0.9482   0.9592   0.9791   1.0108   1.0209   1.0942   1.1092   1.1168
     1.1615   1.1653   1.2457   1.2463   1.2894   1.3014   1.3024   1.3153
     1.3586   1.3708   1.3754   1.3923   1.4005   1.4475   1.4482   1.5668
     1.5716   1.6078   1.6253   1.6462   1.6499   1.6778   1.7029   1.7158
     1.7364   1.7538   1.8238   1.8582   1.8825   2.0197   2.0264   2.0383
     2.0610   2.4054   2.4206   2.8591   3.1318   3.2202   3.3201   3.9083
     4.3268   4.4628   4.9471   5.1067   5.2094   5.3809   5.5555   5.7480
     5.8557   6.3905   6.4808   6.5906   6.7754   6.8395

          k = 0.2000 0.1155 0.0000 ( 87564 PWs)   bands (ev):

   -20.7248  -8.6854  -6.9366  -5.6552  -5.2287  -4.9963  -4.8867  -4.8458
    -4.7022  -4.6559  -4.5917  -4.4962  -4.4571  -4.4307  -4.3641  -4.2377
    -4.1730  -4.0757  -4.0749  -4.0104  -4.0063  -3.7681  -3.6512  -3.6415
    -3.6358  -3.5667  -3.5491  -3.5394  -3.4715  -3.4654  -3.4431  -3.4365
    -3.3797  -3.3535  -3.3413  -3.2572  -3.2470  -3.2274  -3.2023  -3.1165
    -3.0362  -3.0246  -2.9995  -2.9931  -2.8967  -2.7400  -2.7395  -2.6950
    -2.6585  -2.6428  -2.6321  -2.5673  -2.4639  -2.4158  -2.3750  -2.3688
    -2.3242  -2.2853  -2.2593  -2.0794  -1.9853  -1.9796  -1.9379  -1.9363
    -1.9051  -1.8460  -1.8150  -1.8080  -1.7767  -1.7673  -1.7159  -1.6934
    -1.6620  -1.6273  -1.6122  -1.5898  -1.5327  -1.5213  -1.5090  -1.4331
    -1.4309  -1.4252  -1.3908  -1.3528  -1.3418  -1.3389  -1.2961  -1.2890
    -1.2431  -1.2165  -1.2119  -1.1995  -1.1659  -1.1646  -1.1212  -1.1080
    -1.0746  -1.0534  -1.0324  -1.0183  -1.0029  -0.9847  -0.9617  -0.9515
    -0.8853  -0.8614  -0.8202  -0.7981  -0.7673  -0.7588  -0.7583  -0.7491
    -0.7006  -0.6913  -0.6795  -0.6703  -0.4724  -0.3617  -0.3208  -0.3102
    -0.2697  -0.2565  -0.2487  -0.2368  -0.2107  -0.2035  -0.0739  -0.0445
     0.0188   0.0705   0.0845   0.1181   0.1376   0.1489   0.1654   0.1836
     0.1984   0.2505   0.2938   0.3362   0.3491   0.3567   0.4206   0.4959
     0.5033   0.5346   0.5682   0.5742   0.5980   0.6524   0.6550   0.6937
     0.7341   0.7355   0.7729   0.7832   0.8068   0.8400   0.8970   0.9101
     0.9446   0.9574   0.9780   1.0158   1.0205   1.0948   1.1083   1.1185
     1.1621   1.1667   1.2456   1.2466   1.2890   1.3014   1.3031   1.3167
     1.3594   1.3700   1.3741   1.3930   1.3987   1.4510   1.4516   1.5648
     1.5729   1.6106   1.6220   1.6452   1.6460   1.6738   1.6996   1.7115
     1.7326   1.7534   1.8243   1.8586   1.8831   2.0202   2.0241   2.0407
     2.0611   2.3999   2.4179   2.8563   3.1347   3.2235   3.3217   3.9051
     4.3374   4.4529   4.9449   5.1048   5.2089   5.3820   5.5563   5.7533
     5.8459   6.3949   6.4876   6.5910   6.7779   6.8358

          k = 0.2000 0.3464 0.0000 ( 87560 PWs)   bands (ev):

   -20.7248  -8.6717  -6.6611  -5.4823  -5.4733  -5.3886  -4.9387  -4.7420
    -4.7192  -4.3844  -4.3777  -4.3550  -4.3240  -4.3091  -4.2599  -4.2540
    -4.1770  -4.1630  -4.0992  -3.8102  -3.8016  -3.7886  -3.7733  -3.6994
    -3.6910  -3.5722  -3.5678  -3.5469  -3.5041  -3.4894  -3.4418  -3.4163
    -3.3766  -3.3633  -3.3439  -3.3117  -3.2832  -3.2488  -3.1992  -3.1364
    -3.0713  -2.9048  -2.8232  -2.8200  -2.7817  -2.7625  -2.7409  -2.7332
    -2.6786  -2.6472  -2.6202  -2.5323  -2.5167  -2.4311  -2.4194  -2.3906
    -2.3435  -2.3259  -2.2753  -2.2445  -2.2357  -2.0808  -2.0588  -2.0433
    -2.0006  -1.9819  -1.9316  -1.9225  -1.9057  -1.8609  -1.8408  -1.7158
    -1.7035  -1.6906  -1.6745  -1.6607  -1.6271  -1.5793  -1.5505  -1.5294
    -1.4789  -1.4338  -1.4192  -1.3883  -1.3767  -1.3580  -1.3392  -1.3305
    -1.3064  -1.2808  -1.2747  -1.2416  -1.2161  -1.1994  -1.1223  -1.1058
    -1.1015  -1.0641  -1.0595  -1.0471  -1.0183  -0.9901  -0.9819  -0.9602
    -0.9395  -0.9306  -0.9279  -0.9109  -0.8808  -0.8655  -0.7768  -0.7578
    -0.7196  -0.6560  -0.6305  -0.6265  -0.5991  -0.4564  -0.4118  -0.3993
    -0.3253  -0.2918  -0.2785  -0.2494  -0.2231  -0.2112  -0.1939  -0.1651
    -0.1338  -0.1172  -0.0990  -0.0265   0.0081   0.0893   0.1201   0.1397
     0.1521   0.1891   0.2119   0.2778   0.3174   0.3370   0.3608   0.3835
     0.4641   0.4806   0.5030   0.5357   0.5805   0.5928   0.6381   0.6499
     0.6764   0.6968   0.7028   0.7205   0.7383   0.7502   0.7661   0.8152
     0.8944   0.9299   1.0335   1.0587   1.0867   1.2057   1.2405   1.2537
     1.2678   1.3174   1.3315   1.3726   1.3959   1.4172   1.4350   1.4490
     1.4698   1.4765   1.4948   1.5171   1.5440   1.5517   1.6184   1.6426
     1.6632   1.6774   1.6952   1.7452   1.8383   1.8726   1.9112   1.9315
     1.9814   2.0047   2.0186   2.0902   2.1497   2.3834   2.6429   2.6932
     2.9819   3.1385   3.2212   3.2322   3.6113   3.7416   3.8963   4.0651
     4.1419   4.1968   4.5920   4.8022   5.1698   5.2586   5.4017   5.5330
     5.7158   5.9260   6.1114   6.1711   6.1874   6.3407

          k = 0.2000-0.5774 0.0000 ( 87602 PWs)   bands (ev):

   -20.7248  -8.6636  -6.1679  -6.1139  -5.5477  -5.0564  -5.0114  -4.7914
    -4.6647  -4.5890  -4.3533  -4.3041  -4.2319  -4.1841  -4.0903  -4.0749
    -3.9809  -3.9739  -3.8900  -3.8745  -3.8481  -3.8295  -3.8123  -3.7850
    -3.7140  -3.6527  -3.6477  -3.6435  -3.6077  -3.5817  -3.5226  -3.4149
    -3.3959  -3.3100  -3.2768  -3.2545  -3.2408  -3.2070  -3.1885  -3.1152
    -3.0329  -3.0101  -2.9629  -2.8285  -2.8182  -2.7638  -2.6864  -2.6603
    -2.6209  -2.5921  -2.5063  -2.4665  -2.4442  -2.4183  -2.3996  -2.3518
    -2.3361  -2.3067  -2.2381  -2.2283  -2.2084  -2.1934  -2.1789  -2.1644
    -2.1312  -2.1153  -2.0847  -1.9967  -1.9749  -1.9191  -1.8814  -1.8421
    -1.7733  -1.7588  -1.7276  -1.6994  -1.6771  -1.6703  -1.6300  -1.6177
    -1.5748  -1.5534  -1.5118  -1.4801  -1.4369  -1.3982  -1.3681  -1.3440
    -1.3350  -1.3259  -1.2924  -1.2136  -1.1678  -1.1645  -1.1498  -1.1078
    -1.0810  -1.0587  -1.0550  -1.0440  -1.0346  -1.0198  -1.0057  -0.9470
    -0.9399  -0.9271  -0.9108  -0.9002  -0.8808  -0.8795  -0.8662  -0.8261
    -0.7875  -0.6513  -0.5971  -0.5479  -0.5213  -0.4815  -0.4331  -0.4098
    -0.3992  -0.3515  -0.3330  -0.2947  -0.2855  -0.2827  -0.2311  -0.1956
    -0.1666  -0.1532  -0.1314  -0.0869  -0.0193  -0.0077   0.0241   0.0990
     0.1410   0.2214   0.2363   0.2717   0.2980   0.3285   0.3648   0.3907
     0.4052   0.4102   0.4350   0.4425   0.5094   0.5418   0.5685   0.5834
     0.5859   0.6363   0.6467   0.6909   0.6940   0.8081   0.8448   0.9036
     0.9409   1.0054   1.0747   1.1058   1.1182   1.1917   1.2005   1.2394
     1.2911   1.3115   1.3589   1.4068   1.4163   1.4418   1.4504   1.4689
     1.5049   1.5355   1.6060   1.6090   1.6252   1.6375   1.6421   1.6697
     1.6760   1.7518   1.8098   1.8575   1.8745   1.8919   1.9002   1.9525
     1.9813   2.0598   2.1495   2.7382   2.9816   3.0562   3.0945   3.2459
     3.3289   3.3927   3.4110   3.6931   3.9610   3.9717   4.1651   4.2200
     4.4074   4.5546   4.5855   4.7729   4.8810   4.9312   5.0456   5.0636
     5.2787   5.4621   5.5228   5.8545   6.0425   6.1735

          k = 0.2000-0.3464 0.0000 ( 87560 PWs)   bands (ev):

   -20.7248  -8.6722  -6.6611  -5.4819  -5.4732  -5.3890  -4.9392  -4.7371
    -4.7266  -4.3856  -4.3795  -4.3547  -4.3242  -4.3053  -4.2609  -4.2507
    -4.1786  -4.1624  -4.0987  -3.8128  -3.8032  -3.7886  -3.7745  -3.7018
    -3.6902  -3.5723  -3.5681  -3.5439  -3.5028  -3.4896  -3.4370  -3.4145
    -3.3734  -3.3639  -3.3426  -3.3102  -3.2855  -3.2477  -3.1999  -3.1413
    -3.0711  -2.9036  -2.8215  -2.8183  -2.7793  -2.7613  -2.7402  -2.7334
    -2.6798  -2.6465  -2.6208  -2.5301  -2.5161  -2.4323  -2.4195  -2.3914
    -2.3426  -2.3268  -2.2762  -2.2431  -2.2354  -2.0786  -2.0574  -2.0394
    -1.9939  -1.9748  -1.9308  -1.9235  -1.9036  -1.8615  -1.8403  -1.7161
    -1.7086  -1.6925  -1.6774  -1.6600  -1.6298  -1.5800  -1.5476  -1.5334
    -1.4804  -1.4319  -1.4196  -1.3869  -1.3727  -1.3554  -1.3420  -1.3337
    -1.3122  -1.2824  -1.2737  -1.2474  -1.2218  -1.2044  -1.1233  -1.1041
    -1.1021  -1.0655  -1.0607  -1.0452  -1.0179  -0.9897  -0.9847  -0.9607
    -0.9383  -0.9315  -0.9273  -0.9122  -0.8789  -0.8662  -0.7775  -0.7568
    -0.7184  -0.6574  -0.6348  -0.6288  -0.5991  -0.4587  -0.4132  -0.3971
    -0.3274  -0.2924  -0.2800  -0.2526  -0.2233  -0.2114  -0.1912  -0.1634
    -0.1312  -0.1181  -0.0994  -0.0207   0.0169   0.0853   0.1191   0.1384
     0.1512   0.1882   0.2087   0.2762   0.3174   0.3362   0.3611   0.3823
     0.4644   0.4808   0.4996   0.5306   0.5802   0.5922   0.6370   0.6524
     0.6765   0.6983   0.7059   0.7221   0.7396   0.7501   0.7691   0.8111
     0.8945   0.9295   1.0325   1.0574   1.0873   1.2076   1.2399   1.2549
     1.2671   1.3178   1.3292   1.3724   1.3990   1.4175   1.4330   1.4476
     1.4675   1.4748   1.4926   1.5155   1.5432   1.5556   1.6164   1.6416
     1.6613   1.6780   1.6955   1.7436   1.8360   1.8797   1.9183   1.9380
     1.9827   2.0084   2.0182   2.0895   2.1479   2.3873   2.6406   2.6890
     2.9863   3.1359   3.2232   3.2356   3.6207   3.7439   3.8929   4.0625
     4.1421   4.1960   4.5966   4.8004   5.1733   5.2611   5.4028   5.5425
     5.7115   5.9287   6.1079   6.1692   6.1859   6.3355

          k = 0.4000-0.2309 0.0000 ( 87604 PWs)   bands (ev):

   -20.7248  -8.6688  -6.5287  -5.9090  -5.3007  -4.9728  -4.9165  -4.8800
    -4.7338  -4.6190  -4.5503  -4.4402  -4.3077  -4.2063  -4.1213  -4.1100
    -4.0668  -3.9261  -3.9250  -3.8862  -3.8705  -3.8569  -3.7619  -3.7276
    -3.7099  -3.6766  -3.6573  -3.6410  -3.5905  -3.5397  -3.5384  -3.3960
    -3.2969  -3.2884  -3.2789  -3.2576  -3.2280  -3.2010  -3.0364  -3.0325
    -3.0265  -2.9956  -2.9405  -2.9164  -2.7918  -2.7187  -2.7103  -2.6859
    -2.6496  -2.6418  -2.5991  -2.5560  -2.5412  -2.5307  -2.4937  -2.4054
    -2.3450  -2.3347  -2.3221  -2.2815  -2.1818  -2.1528  -2.1230  -2.1193
    -2.1009  -1.9597  -1.9309  -1.9145  -1.9035  -1.8833  -1.7935  -1.7908
    -1.7650  -1.6814  -1.6581  -1.6469  -1.6110  -1.5502  -1.5469  -1.5111
    -1.4983  -1.4761  -1.4504  -1.4194  -1.4160  -1.4003  -1.3925  -1.3860
    -1.3703  -1.3560  -1.2786  -1.2693  -1.2336  -1.2123  -1.2008  -1.1980
    -1.1911  -1.1289  -1.0823  -1.0535  -1.0313  -0.9980  -0.9827  -0.9589
    -0.9343  -0.9154  -0.8593  -0.8213  -0.7536  -0.7419  -0.7224  -0.7091
    -0.6798  -0.5622  -0.5286  -0.4751  -0.4505  -0.4134  -0.3892  -0.3538
    -0.3261  -0.3197  -0.3111  -0.3095  -0.2566  -0.2360  -0.2118  -0.2094
    -0.1717  -0.1567  -0.1362  -0.1279  -0.1127  -0.0182   0.0099   0.0389
     0.0852   0.1023   0.2049   0.2244   0.3028   0.3047   0.3674   0.4241
     0.4547   0.4789   0.5054   0.5548   0.5862   0.6021   0.6216   0.6454
     0.6810   0.7112   0.7189   0.7900   0.8061   0.8121   0.8630   0.8726
     0.8989   0.9261   1.0016   1.0110   1.0738   1.1287   1.1477   1.1702
     1.2018   1.2742   1.2759   1.3317   1.3344   1.3456   1.3753   1.4291
     1.4453   1.4572   1.4808   1.5833   1.5902   1.6131   1.6272   1.6324
     1.6371   1.6720   1.6873   1.8522   1.8587   1.8739   1.8767   1.8949
     2.0095   2.1021   2.2370   2.4283   2.4891   2.6553   2.9209   2.9219
     3.1473   3.2751   3.2942   3.5889   3.8271   4.0391   4.0780   4.1912
     4.2191   4.3148   4.3754   4.4633   4.6443   4.7519   5.2000   5.3438
     5.4393   5.6133   6.0185   6.0672   6.5896   6.6385

          k = 0.4000-0.0000 0.0000 ( 87560 PWs)   bands (ev):

   -20.7248  -8.6717  -6.6611  -5.4823  -5.4733  -5.3886  -4.9387  -4.7420
    -4.7192  -4.3844  -4.3777  -4.3550  -4.3240  -4.3092  -4.2599  -4.2540
    -4.1770  -4.1630  -4.0992  -3.8101  -3.8016  -3.7886  -3.7733  -3.6994
    -3.6910  -3.5722  -3.5678  -3.5468  -3.5041  -3.4894  -3.4418  -3.4163
    -3.3766  -3.3633  -3.3439  -3.3117  -3.2833  -3.2488  -3.1992  -3.1363
    -3.0713  -2.9049  -2.8232  -2.8200  -2.7817  -2.7625  -2.7409  -2.7332
    -2.6786  -2.6472  -2.6202  -2.5323  -2.5167  -2.4312  -2.4194  -2.3906
    -2.3435  -2.3258  -2.2753  -2.2446  -2.2357  -2.0808  -2.0588  -2.0433
    -2.0006  -1.9820  -1.9316  -1.9226  -1.9057  -1.8609  -1.8408  -1.7158
    -1.7036  -1.6906  -1.6745  -1.6607  -1.6271  -1.5793  -1.5505  -1.5294
    -1.4789  -1.4338  -1.4192  -1.3883  -1.3767  -1.3581  -1.3392  -1.3305
    -1.3064  -1.2808  -1.2746  -1.2416  -1.2160  -1.1994  -1.1224  -1.1058
    -1.1015  -1.0641  -1.0595  -1.0471  -1.0183  -0.9901  -0.9819  -0.9602
    -0.9395  -0.9306  -0.9279  -0.9109  -0.8808  -0.8655  -0.7768  -0.7578
    -0.7196  -0.6560  -0.6306  -0.6265  -0.5991  -0.4564  -0.4118  -0.3993
    -0.3253  -0.2918  -0.2785  -0.2494  -0.2231  -0.2112  -0.1939  -0.1651
    -0.1338  -0.1172  -0.0990  -0.0265   0.0080   0.0893   0.1201   0.1397
     0.1521   0.1892   0.2119   0.2778   0.3174   0.3370   0.3608   0.3835
     0.4641   0.4806   0.5030   0.5356   0.5804   0.5928   0.6381   0.6499
     0.6764   0.6968   0.7027   0.7205   0.7383   0.7502   0.7661   0.8152
     0.8943   0.9298   1.0335   1.0587   1.0867   1.2057   1.2405   1.2537
     1.2678   1.3174   1.3315   1.3726   1.3959   1.4172   1.4350   1.4490
     1.4698   1.4766   1.4948   1.5171   1.5441   1.5517   1.6184   1.6425
     1.6632   1.6774   1.6951   1.7452   1.8383   1.8726   1.9112   1.9315
     1.9814   2.0047   2.0186   2.0902   2.1497   2.3834   2.6429   2.6932
     2.9819   3.1385   3.2212   3.2322   3.6114   3.7416   3.8964   4.0651
     4.1419   4.1968   4.5920   4.8022   5.1698   5.2585   5.4017   5.5330
     5.7158   5.9259   6.1114   6.1711   6.1875   6.3407

          k = 0.4000 0.2309 0.0000 ( 87604 PWs)   bands (ev):

   -20.7248  -8.6681  -6.5287  -5.9090  -5.3017  -4.9741  -4.9097  -4.8849
    -4.7371  -4.6102  -4.5508  -4.4378  -4.3079  -4.2059  -4.1228  -4.1125
    -4.0669  -3.9256  -3.9233  -3.8862  -3.8690  -3.8562  -3.7617  -3.7291
    -3.7101  -3.6758  -3.6567  -3.6408  -3.5898  -3.5406  -3.5405  -3.4019
    -3.2988  -3.2894  -3.2804  -3.2592  -3.2290  -3.2018  -3.0375  -3.0364
    -3.0262  -2.9970  -2.9408  -2.9182  -2.7912  -2.7181  -2.7111  -2.6844
    -2.6497  -2.6414  -2.6004  -2.5598  -2.5385  -2.5298  -2.4927  -2.4055
    -2.3486  -2.3363  -2.3219  -2.2819  -2.1845  -2.1622  -2.1266  -2.1239
    -2.1032  -1.9605  -1.9364  -1.9116  -1.9002  -1.8816  -1.7972  -1.7883
    -1.7616  -1.6783  -1.6469  -1.6372  -1.6072  -1.5524  -1.5452  -1.5121
    -1.5004  -1.4782  -1.4502  -1.4227  -1.4213  -1.4034  -1.3950  -1.3866
    -1.3643  -1.3565  -1.2774  -1.2713  -1.2323  -1.2152  -1.2098  -1.1970
    -1.1866  -1.1201  -1.0825  -1.0509  -1.0266  -0.9939  -0.9789  -0.9598
    -0.9289  -0.9061  -0.8531  -0.8209  -0.7549  -0.7382  -0.7206  -0.7073
    -0.6778  -0.5559  -0.5354  -0.4754  -0.4481  -0.4089  -0.3939  -0.3511
    -0.3370  -0.3205  -0.3139  -0.3107  -0.2576  -0.2407  -0.2114  -0.2070
    -0.1723  -0.1537  -0.1287  -0.1279  -0.1211  -0.0176   0.0153   0.0424
     0.0873   0.1014   0.2076   0.2251   0.3025   0.3059   0.3638   0.4191
     0.4625   0.4787   0.5145   0.5590   0.5824   0.6015   0.6193   0.6453
     0.6809   0.7069   0.7192   0.7853   0.8051   0.8138   0.8615   0.8693
     0.9005   0.9342   1.0042   1.0163   1.0754   1.1285   1.1499   1.1687
     1.1993   1.2749   1.2754   1.3317   1.3381   1.3438   1.3763   1.4275
     1.4489   1.4611   1.4836   1.5835   1.5894   1.6110   1.6287   1.6295
     1.6373   1.6650   1.6830   1.8502   1.8538   1.8702   1.8729   1.8893
     2.0108   2.1023   2.2333   2.4244   2.4933   2.6591   2.9211   2.9212
     3.1456   3.2741   3.2919   3.5855   3.8202   4.0384   4.0803   4.1933
     4.2163   4.3061   4.3755   4.4657   4.6414   4.7490   5.1995   5.3399
     5.4419   5.6137   6.0139   6.0750   6.5876   6.6355

          k = 0.4000-0.6928 0.0000 ( 87602 PWs)   bands (ev):

   -20.7248  -8.6631  -6.1673  -6.1146  -5.5476  -5.0541  -5.0176  -4.7876
    -4.6591  -4.5921  -4.3501  -4.3038  -4.2327  -4.1842  -4.0919  -4.0761
    -3.9797  -3.9725  -3.8899  -3.8742  -3.8494  -3.8306  -3.8121  -3.7858
    -3.7141  -3.6532  -3.6468  -3.6412  -3.6073  -3.5818  -3.5235  -3.4185
    -3.3981  -3.3108  -3.2769  -3.2546  -3.2432  -3.2074  -3.1910  -3.1145
    -3.0333  -3.0126  -2.9648  -2.8243  -2.8212  -2.7622  -2.6880  -2.6615
    -2.6203  -2.5905  -2.5030  -2.4628  -2.4436  -2.4204  -2.4004  -2.3602
    -2.3411  -2.3080  -2.2382  -2.2279  -2.2096  -2.1943  -2.1789  -2.1655
    -2.1306  -2.1163  -2.0846  -2.0002  -1.9750  -1.9183  -1.8838  -1.8409
    -1.7813  -1.7552  -1.7228  -1.6990  -1.6696  -1.6633  -1.6283  -1.6181
    -1.5750  -1.5543  -1.5112  -1.4815  -1.4418  -1.3996  -1.3630  -1.3440
    -1.3342  -1.3295  -1.2929  -1.2040  -1.1724  -1.1609  -1.1536  -1.1096
    -1.0802  -1.0572  -1.0534  -1.0397  -1.0244  -1.0171  -1.0023  -0.9551
    -0.9411  -0.9310  -0.9043  -0.9007  -0.8843  -0.8805  -0.8612  -0.8250
    -0.7855  -0.6437  -0.5896  -0.5511  -0.5255  -0.4832  -0.4320  -0.4110
    -0.4017  -0.3551  -0.3343  -0.2954  -0.2873  -0.2834  -0.2335  -0.1924
    -0.1665  -0.1549  -0.1286  -0.0899  -0.0194  -0.0057   0.0313   0.1017
     0.1418   0.2186   0.2378   0.2677   0.2960   0.3306   0.3661   0.3918
     0.4060   0.4109   0.4347   0.4407   0.5098   0.5415   0.5692   0.5799
     0.5862   0.6352   0.6468   0.6930   0.6975   0.8065   0.8488   0.9088
     0.9427   1.0025   1.0727   1.1038   1.1155   1.1916   1.1992   1.2382
     1.2941   1.3099   1.3604   1.4076   1.4184   1.4441   1.4543   1.4703
     1.5024   1.5331   1.6050   1.6086   1.6280   1.6379   1.6424   1.6700
     1.6775   1.7521   1.8105   1.8539   1.8712   1.8898   1.8947   1.9516
     1.9766   2.0607   2.1520   2.7357   2.9786   3.0562   3.0914   3.2448
     3.3314   3.3946   3.4176   3.6940   3.9581   3.9652   4.1642   4.2175
     4.4037   4.5568   4.5832   4.7616   4.8837   4.9304   5.0384   5.0662
     5.2823   5.4588   5.5240   5.8522   6.0422   6.1803

          k = 0.4000-0.4619 0.0000 ( 87602 PWs)   bands (ev):

   -20.7248  -8.6636  -6.1678  -6.1140  -5.5477  -5.0565  -5.0113  -4.7915
    -4.6648  -4.5890  -4.3533  -4.3041  -4.2319  -4.1841  -4.0903  -4.0749
    -3.9809  -3.9738  -3.8899  -3.8745  -3.8482  -3.8294  -3.8123  -3.7850
    -3.7140  -3.6527  -3.6477  -3.6435  -3.6077  -3.5817  -3.5226  -3.4149
    -3.3959  -3.3100  -3.2768  -3.2545  -3.2408  -3.2070  -3.1885  -3.1153
    -3.0329  -3.0101  -2.9629  -2.8285  -2.8183  -2.7638  -2.6865  -2.6603
    -2.6209  -2.5921  -2.5063  -2.4665  -2.4443  -2.4183  -2.3996  -2.3518
    -2.3361  -2.3067  -2.2381  -2.2283  -2.2084  -2.1934  -2.1789  -2.1643
    -2.1312  -2.1153  -2.0847  -1.9967  -1.9749  -1.9191  -1.8814  -1.8421
    -1.7733  -1.7587  -1.7276  -1.6994  -1.6771  -1.6703  -1.6300  -1.6177
    -1.5748  -1.5533  -1.5118  -1.4801  -1.4369  -1.3982  -1.3681  -1.3440
    -1.3350  -1.3259  -1.2925  -1.2136  -1.1677  -1.1645  -1.1497  -1.1078
    -1.0810  -1.0587  -1.0550  -1.0439  -1.0346  -1.0198  -1.0057  -0.9470
    -0.9399  -0.9271  -0.9108  -0.9002  -0.8808  -0.8795  -0.8662  -0.8260
    -0.7874  -0.6513  -0.5971  -0.5480  -0.5213  -0.4815  -0.4331  -0.4098
    -0.3992  -0.3515  -0.3331  -0.2947  -0.2855  -0.2828  -0.2311  -0.1956
    -0.1666  -0.1532  -0.1315  -0.0869  -0.0193  -0.0077   0.0240   0.0989
     0.1410   0.2214   0.2363   0.2717   0.2980   0.3285   0.3648   0.3907
     0.4052   0.4102   0.4350   0.4425   0.5094   0.5418   0.5685   0.5834
     0.5859   0.6363   0.6468   0.6909   0.6940   0.8081   0.8448   0.9037
     0.9409   1.0053   1.0748   1.1058   1.1181   1.1917   1.2005   1.2394
     1.2911   1.3115   1.3589   1.4068   1.4163   1.4418   1.4504   1.4689
     1.5049   1.5355   1.6060   1.6090   1.6252   1.6375   1.6421   1.6697
     1.6760   1.7518   1.8098   1.8575   1.8744   1.8919   1.9002   1.9525
     1.9813   2.0598   2.1495   2.7382   2.9816   3.0562   3.0945   3.2459
     3.3289   3.3927   3.4110   3.6931   3.9610   3.9717   4.1651   4.2200
     4.4074   4.5546   4.5855   4.7728   4.8810   4.9312   5.0455   5.0636
     5.2787   5.4621   5.5228   5.8544   6.0425   6.1734

     the Fermi energy is     1.6628 ev

!    total energy              =  -27815.80208646 Ry

     total all-electron energy =  -1326869.178500 Ry
     estimated scf accuracy    <       0.00000050 Ry
     smearing contrib. (-TS)   =       0.00390854 Ry
     internal energy E=F+TS    =  -27815.80599499 Ry

     The total energy is F=E-TS. E is the sum of the following terms:
     one-electron contribution =  -26076.74866531 Ry
     hartree contribution      =   13338.22818625 Ry
     xc contribution           =    -902.44275007 Ry
     ewald contribution        =   11315.82906868 Ry
     one-center paw contrib.   =  -25490.67183454 Ry

     convergence has been achieved in  19 iterations

     negative rho (up, down):  1.335E-02 0.000E+00

     Forces acting on atoms (cartesian axes, Ry/au):

     atom    1 type  1   force =    -0.00019474   -0.00009616   -0.00312462
     atom    2 type  1   force =     0.00043504   -0.00013444   -0.00313433
     atom    3 type  1   force =     0.00015081    0.00123151   -0.00367746
     atom    4 type  1   force =     0.00008855    0.00043238   -0.00312674
     atom    5 type  1   force =     0.00014942    0.00007141   -0.00367979
     atom    6 type  1   force =     0.00013424    0.00009285   -0.00371646
     atom    7 type  1   force =     0.00112949   -0.00047910   -0.00366361
     atom    8 type  1   force =     0.00015419    0.00006171   -0.00372839
     atom    9 type  1   force =    -0.00101939   -0.00058673   -0.00382503
     atom   10 type  1   force =    -0.00023702   -0.00011913    0.00951247
     atom   11 type  1   force =    -0.00075192   -0.00211085    0.00437992
     atom   12 type  1   force =     0.00020886   -0.00214058    0.00443168
     atom   13 type  1   force =    -0.00220877    0.00038683    0.00437695
     atom   14 type  1   force =    -0.00022347   -0.00014210    0.00146222
     atom   15 type  1   force =     0.00171798    0.00049925    0.00423436
     atom   16 type  1   force =    -0.00176387    0.00126157    0.00442562
     atom   17 type  1   force =     0.00131001    0.00123623    0.00423029
     atom   18 type  1   force =    -0.00044006   -0.00024716   -0.00256380
     atom   19 type  1   force =    -0.00007476   -0.00004490   -0.00016861
     atom   20 type  1   force =    -0.00006926   -0.00005410   -0.00017872
     atom   21 type  1   force =    -0.00001242   -0.00001569   -0.00001173
     atom   22 type  1   force =    -0.00007566   -0.00012254   -0.00012625
     atom   23 type  1   force =     0.00000006   -0.00003890   -0.00002822
     atom   24 type  1   force =    -0.00005053   -0.00005334   -0.00000451
     atom   25 type  1   force =    -0.00000752    0.00002827   -0.00013911
     atom   26 type  1   force =    -0.00005657   -0.00003377   -0.00015166
     atom   27 type  1   force =    -0.00014455    0.00003451   -0.00011780
     atom   28 type  1   force =     0.00014559    0.00010188    0.00023047
     atom   29 type  1   force =    -0.00012417    0.00000720    0.00020379
     atom   30 type  1   force =     0.00001347   -0.00005643    0.00025561
     atom   31 type  1   force =    -0.00006452   -0.00013487    0.00021402
     atom   32 type  1   force =    -0.00013664   -0.00009233    0.00018857
     atom   33 type  1   force =    -0.00005031   -0.00011511    0.00023437
     atom   34 type  1   force =    -0.00005526    0.00005985    0.00030646
     atom   35 type  1   force =    -0.00011155    0.00000827    0.00024100
     atom   36 type  1   force =    -0.00006157   -0.00002018    0.00024539
     atom   37 type  2   force =     0.00230751    0.00133664   -0.00312503
     atom   38 type  3   force =    -0.00001073   -0.00001193   -0.00088130

     Total force =     0.004302     Total SCF correction =     0.001700
     SCF correction compared to forces is large: reduce conv_thr to get better values

     negative rho (up, down):  1.335E-02 0.000E+00

     negative rho (up, down):  1.335E-02 0.000E+00

     negative rho (up, down):  1.335E-02 0.000E+00

     negative rho (up, down):  1.335E-02 0.000E+00

     negative rho (up, down):  1.335E-02 0.000E+00

     negative rho (up, down):  1.335E-02 0.000E+00

     negative rho (up, down):  1.335E-02 0.000E+00

     negative rho (up, down):  1.335E-02 0.000E+00

     negative rho (up, down):  1.335E-02 0.000E+00

     negative rho (up, down):  1.335E-02 0.000E+00

     negative rho (up, down):  1.335E-02 0.000E+00

     negative rho (up, down):  1.335E-02 0.000E+00

     negative rho (up, down):  1.335E-02 0.000E+00

     negative rho (up, down):  1.335E-02 0.000E+00

     negative rho (up, down):  1.335E-02 0.000E+00

     negative rho (up, down):  1.335E-02 0.000E+00

     negative rho (up, down):  1.335E-02 0.000E+00

     negative rho (up, down):  1.335E-02 0.000E+00

     negative rho (up, down):  1.335E-02 0.000E+00

     negative rho (up, down):  1.335E-02 0.000E+00

     negative rho (up, down):  1.335E-02 0.000E+00

     negative rho (up, down):  1.335E-02 0.000E+00

     negative rho (up, down):  1.335E-02 0.000E+00

     negative rho (up, down):  1.335E-02 0.000E+00

     negative rho (up, down):  1.335E-02 0.000E+00

     negative rho (up, down):  1.335E-02 0.000E+00

     negative rho (up, down):  1.335E-02 0.000E+00

     negative rho (up, down):  1.335E-02 0.000E+00

     negative rho (up, down):  1.335E-02 0.000E+00

     negative rho (up, down):  1.335E-02 0.000E+00

     negative rho (up, down):  1.335E-02 0.000E+00

     negative rho (up, down):  1.335E-02 0.000E+00

     negative rho (up, down):  1.335E-02 0.000E+00

     negative rho (up, down):  1.335E-02 0.000E+00
 BEEFens 2000 ensemble energies
             -0.603432986476642E+02
             -0.360607686939156E+01
             -0.157813152029127E+02
              0.427394809730538E+02
             -0.220259009138840E+02
             -0.204742693952716E+02
             -0.349683750733877E+02
             -0.860117200283565E+02
             -0.464024693635240E+02
             -0.471645739465436E+02
             -0.367553594738845E+02
              0.222399064429143E+01
              0.403599729425184E+01
              0.770134371297200E+01
              0.263606996451179E+01
              0.472639349478404E+02
             -0.208126141971723E+02
             -0.230340597373497E+02
              0.191542015644037E+02
             -0.111870652672457E+03
              0.533658814176009E+02
             -0.289249769706406E+02
             -0.331468944146954E+01
             -0.113884982518450E+02
             -0.889315121176617E+01
             -0.463350893090177E+01
              0.878708793857097E+02
             -0.185478793861826E+02
             -0.897762985935219E+01
             -0.515479223040310E+02
              0.813005471784759E+02
             -0.187750600561793E+02
             -0.372983482574185E+02
              0.248774843230477E+02
             -0.283735261962386E+01
              0.162142671775163E+02
             -0.489071828021736E+01
              0.108577693436077E+02
              0.285857898007568E+02
             -0.102838004442381E+03
              0.555803366325719E+02
              0.141707979342495E+02
             -0.161291871950937E+01
             -0.360357240708409E+02
              0.122558118141002E+02
             -0.145768378463130E+02
              0.395719529072979E+02
              0.363341102164286E+02
             -0.307733962246671E+02
             -0.273480746421068E+02
             -0.326838562325725E+02
             -0.350180415709390E+02
              0.134661214748737E+02
             -0.488387609444280E+02
              0.114645824340981E+02
              0.620133886646515E+02
              0.631296255983174E+02
              0.354565688475685E+02
              0.153438040856406E+02
              0.268607101610627E+02
              0.887053124120971E+02
              0.212325646780241E+02
             -0.546076100584600E+02
             -0.156905064776153E+02
             -0.234358351659150E+02
              0.626926302780081E+02
             -0.770508280667689E+02
             -0.669193571426904E+02
             -0.257436013337664E+02
             -0.631268952916832E+01
             -0.469403616597080E+02
              0.269385053880913E+02
              0.794011188819877E+01
              0.858122325044087E+01
             -0.395409796477259E+02
             -0.345143226426292E+02
             -0.538814482925459E+02
              0.389335138749871E+02
             -0.294222219915032E+02
              0.263365651745650E+02
             -0.709655607580747E+01
             -0.316901297924807E+02
             -0.574437716189090E+02
             -0.176037929865464E+02
             -0.895547249650156E+01
             -0.124232095685749E+02
              0.410429038348280E+02
              0.678558990398349E+02
             -0.383206262027217E+02
             -0.791005378110158E+02
             -0.218828574381699E+02
              0.111023789444193E+03
             -0.589817362512636E+02
              0.354807225350454E+02
             -0.949804029991037E+01
             -0.660752988047112E+02
              0.253091446346979E+02
              0.397047968237802E+02
             -0.198115705613043E+02
              0.399234941413463E+02
             -0.295070827483639E+02
             -0.474683094854428E+02
              0.860513412243020E+02
              0.451836573688454E+02
              0.336048146016677E+02
              0.145868875360548E+02
              0.204220988557167E+02
              0.852754261583518E+02
             -0.255429435249459E+02
              0.787450336496745E+01
             -0.141768715127857E+03
              0.180548381813500E+02
             -0.713290092846134E+02
              0.150444884871848E+02
              0.203537359822687E+02
             -0.330868951342561E+02
             -0.555103744694012E+02
              0.655399626623421E+01
             -0.302631518767989E+02
              0.305365460760561E+02
             -0.527868583484493E+02
              0.178837272659916E+01
             -0.355059343607195E+02
             -0.422015920789477E+01
             -0.111248275413746E+01
              0.179561206247301E+02
              0.143727676368076E+01
             -0.649956476260581E+01
              0.586815620120154E+02
              0.903878723352183E+02
              0.481682702983016E+02
              0.828074108250463E+02
             -0.114543341426482E+02
              0.142949108168891E+02
              0.538844803659395E+02
             -0.111876813825419E+02
             -0.732199171572074E+02
             -0.381695133117888E+02
             -0.519514863930600E+02
             -0.275350343077299E+02
              0.326082974758236E+02
             -0.116189739245065E+03
             -0.186840037795864E+02
              0.411618052001767E+02
             -0.384287018222887E+02
             -0.364485534182231E+02
              0.540882313544740E+02
              0.398300808335894E+02
             -0.352872420693104E+02
              0.135237059105806E+02
             -0.272025920741894E+02
              0.341340938440438E+02
              0.442625586724648E+01
              0.210989295602608E+02
             -0.881189748249931E+02
             -0.478036675875138E+02
             -0.991667203119744E+01
              0.325110940989920E+01
             -0.364479653322435E+02
              0.105471169369070E+03
             -0.230810337601754E+02
             -0.397750078900087E+02
              0.387079258830470E+02
             -0.492289578080508E+02
             -0.361212882193489E+02
              0.323129845138156E+02
              0.123751071793728E+02
              0.164029808719342E+02
              0.115399852813299E+02
             -0.132357037221428E+02
              0.225162515619774E+02
              0.587424476302227E+02
             -0.310636531845601E+02
              0.161151774014658E+02
              0.930366318936237E+02
              0.339255014320448E+02
             -0.728318348364326E+01
             -0.187459568953343E+02
              0.152594269138249E+03
             -0.162501467817214E+02
              0.361244113603628E+02
              0.192536544506669E+02
              0.360773682013065E+02
              0.887605275030368E+02
              0.540904163460837E+02
             -0.236667628948692E+01
              0.226323632854450E+02
              0.482218138233154E+02
              0.361726784546761E+02
             -0.522370510242179E+02
              0.931481059611376E+02
             -0.821581738136438E+02
             -0.198050165787108E+02
              0.580285027568627E+02
              0.661762465998545E+01
              0.786057254852278E+01
              0.339896378440178E+02
              0.298801846995490E+02
              0.352205102381400E+02
             -0.634684672859945E+02
              0.286500688353044E+01
             -0.296584782749032E+02
             -0.869889252144708E+01
             -0.143572313990376E+01
             -0.714105731743650E+01
             -0.411520814534890E+01
              0.855451210223213E+02
             -0.100971961103032E+02
             -0.275107239472762E+02
             -0.497206258623780E+01
              0.139106667129603E+02
             -0.560713882011568E+02
             -0.403932739830917E+02
             -0.380522300493674E+02
             -0.627264565308013E+02
             -0.168669947805664E+02
             -0.445583239441884E+02
              0.162591069590840E+02
             -0.243117913861704E+01
             -0.103669230531865E+02
             -0.930759225196624E+01
              0.806456864489957E+01
             -0.242719072049196E+02
              0.686249906080110E+02
             -0.802659184047802E+02
             -0.140474864437354E+02
             -0.173579290615286E+02
              0.181357884864972E+02
              0.213069811579560E+02
             -0.461174799847538E+02
             -0.201588366539615E+02
              0.438688648274971E+02
             -0.275509890019360E+02
              0.186366030396232E+02
              0.381532093923332E+02
             -0.322485428527284E+01
              0.113596250067226E+03
             -0.230076359625647E+02
             -0.339447682208543E+02
              0.580880631637069E+01
             -0.226684265028869E+02
              0.524798990697342E+02
             -0.334345935341800E+02
              0.105598269451888E+02
              0.638787645130198E+02
             -0.125762793926639E+02
              0.119687086800596E+03
              0.125265870508156E+03
             -0.646429100651999E+02
              0.587827335066741E+02
              0.164944477780259E+02
             -0.514899019897267E+02
              0.215501624237724E+02
              0.351381373895481E+02
              0.360016594602343E+02
              0.132808944942283E+01
              0.158486888966318E+02
              0.691934567795915E+02
             -0.245823425636065E+02
              0.181110778648606E+02
              0.736186176065241E+02
             -0.370920196683219E+02
             -0.128048617179653E+02
              0.505390708716290E+02
              0.295829536256605E+02
              0.776682557778928E+02
              0.220666219341245E+02
              0.614804503948852E+01
              0.279200026683020E+02
              0.381121985997166E+02
             -0.468825522666941E+02
              0.324709909379584E+01
              0.127848269975536E+02
              0.113131245861796E+02
              0.219237640461472E+02
             -0.571722141647802E+02
              0.364757299789123E+02
             -0.441937734643661E+02
             -0.345903755489327E+02
              0.176822910445339E+02
             -0.181342277250527E+02
              0.551858321785552E+02
             -0.256132616350351E+02
              0.265247040509434E+02
              0.366846816226785E+02
              0.825672240533590E+02
              0.572386702804821E+02
              0.459203477509603E+02
             -0.106046929599358E+02
             -0.382761334497707E+01
             -0.330770526680004E+02
              0.746406908464086E+02
              0.793118397916792E+02
              0.359843380173081E+02
             -0.190327887383997E+02
              0.509524838334769E+02
             -0.163340569679481E+02
              0.214383823318471E+02
              0.610832241451316E+02
              0.216340601222893E+01
             -0.103872776606496E+02
             -0.282363330832828E+02
             -0.508218198403245E+02
              0.940804387850133E+02
              0.436850282534773E+02
             -0.555612454117079E+02
             -0.949806810294280E+01
              0.248808022102288E+02
             -0.992697931870632E+01
              0.588800559199097E+02
              0.151394739143327E+02
              0.795230604338591E+02
              0.277766950187784E+02
             -0.263189316534477E+02
              0.248433691616468E+02
             -0.497248274981678E+01
             -0.322819414002593E+02
              0.132414084879129E+02
              0.205203801796195E+02
              0.928367402826305E+02
              0.793865483443989E+02
              0.548093641697219E+02
              0.727875518094581E+02
              0.797336183334127E+01
             -0.272654235558654E+02
              0.162570221762371E+02
             -0.366466509061642E+02
             -0.473271216896318E+02
             -0.561050443819259E+02
             -0.264761358041949E+02
             -0.109193272506725E+03
             -0.289312235562052E+02
             -0.833056593077967E+02
              0.208993897859467E+02
             -0.474964347579719E+02
              0.393914366923502E+02
             -0.936364149582460E+02
             -0.328780839094384E+02
              0.547328005014205E+02
              0.206666400231332E+02
             -0.826023221525519E+02
              0.628949807557315E+02
             -0.255278258278228E+02
              0.509676889258193E+02
             -0.241440952321814E+02
             -0.747577503364698E+02
              0.110925966956916E+02
             -0.607990289097522E+02
             -0.168608063528512E+02
             -0.146428424379700E+01
              0.416411353214358E+02
              0.126405941071030E+03
             -0.459871805242423E+02
             -0.360740642179208E+02
             -0.924521487498964E+00
             -0.130241331139998E+02
             -0.818777808684319E+02
             -0.594212222094233E+02
              0.515033586329437E+02
             -0.288496692363087E+02
              0.167843362266450E+02
             -0.487040140361777E+02
             -0.130921867431343E+02
             -0.435256561933631E+02
              0.563434846498435E+02
              0.150802628366222E+02
             -0.230463268232102E+02
             -0.125757409398377E+02
              0.659136759011921E+01
             -0.615810519563814E+01
              0.439770875193458E+02
             -0.250769403428726E+02
              0.267245818227263E+01
              0.337731628180654E+02
              0.170977131644562E+02
             -0.158322991884271E+02
              0.155545530197012E+03
              0.534842614365392E+02
              0.109198376488186E+01
              0.161448837774949E+02
             -0.611932461631754E+02
              0.313252677748842E+02
             -0.717824090216057E+02
             -0.250139711329936E+02
             -0.519741874624316E+02
             -0.219214226861878E+02
              0.566236007165523E+02
             -0.534229909528841E+02
              0.159158616051620E+02
             -0.406105344907451E+01
              0.387670860373220E+01
             -0.432674197781575E+02
             -0.476490957774528E+02
             -0.394897855380566E+01
             -0.423995279788572E+02
             -0.216207728574452E+02
             -0.436540226572388E+02
             -0.119203644707507E+02
             -0.357573024588672E+02
             -0.514343351130263E+02
              0.211943386177537E+02
             -0.208982473086841E+02
              0.186443882897918E+02
              0.972534515698100E+01
             -0.734306273030885E+02
             -0.545904368098339E+02
             -0.395293900925182E+02
              0.352942743507381E+02
              0.276927948961915E+01
             -0.623884112382252E+02
              0.582994251367644E+02
             -0.399131807188185E+02
              0.541754618958183E+02
             -0.287984470858455E+02
             -0.443670377552319E+02
              0.297541954934007E+02
             -0.654080849481153E+02
             -0.378820154021764E+02
              0.670266929540344E+02
              0.203068040641310E+02
             -0.357691522149518E+02
              0.486712094111843E+02
             -0.173221581819695E+02
             -0.321013967146491E+02
             -0.300457828474882E+02
             -0.498125622085244E+02
              0.247971200852896E+02
             -0.929097583943265E+02
             -0.837006977937853E+02
             -0.729861912153524E+01
             -0.305428339060825E+02
             -0.572541134567892E+02
              0.718055327475373E+02
              0.130854051122679E+03
             -0.360518226944336E+02
             -0.252292729166635E+01
             -0.634490625754809E+02
              0.647392181998134E+02
              0.169531377225687E+02
             -0.180402969506366E+02
             -0.408468379161645E+02
              0.148004517143327E+02
             -0.583408826757508E+02
             -0.197506392270729E+02
             -0.900803026962083E+02
              0.335265083098934E+02
              0.168679537249913E+02
              0.189779960163287E+01
             -0.697448502080317E+01
             -0.327207851768917E+02
             -0.750566680772977E+01
              0.124846533798909E+03
             -0.198353077692751E+02
             -0.434960735813132E+02
             -0.680504327888168E+02
              0.108507912712483E+02
             -0.340152332312691E+02
              0.583873881643244E+01
              0.259743987806505E+02
              0.101948925577534E+02
              0.275963678163973E+02
              0.118790725616525E+02
              0.626939034874027E+02
              0.315959215245528E+02
             -0.324693461592477E+02
              0.352353808084033E+02
              0.377961009732550E+02
              0.120234624944708E+02
              0.485635680166454E+02
             -0.222870396461963E+02
              0.762420874426678E+02
              0.170665256607238E+02
             -0.270323010337206E+02
             -0.721612062162165E+01
             -0.185691844374734E+02
              0.261512014995054E+02
             -0.233419425623565E+02
             -0.229624130560069E-01
             -0.841981074220939E+01
              0.805959804578941E+02
              0.497135479138352E+02
             -0.684370207603533E+02
             -0.469836754302520E+01
             -0.553310185247330E+02
             -0.159093760513817E+02
             -0.267352093187638E+02
              0.368802049435726E+01
              0.606871956365556E+00
             -0.256102531379628E+02
              0.802145858698768E+01
             -0.597489375532703E+01
             -0.128436330671246E+02
              0.854804959655024E+02
              0.181353639397130E+02
             -0.802901605241791E+02
             -0.456989470671093E+02
              0.940144130258474E+02
              0.276757268657454E+02
             -0.106423116142776E+02
              0.104033571066936E+03
             -0.194274936545335E+02
             -0.122851499083374E+02
             -0.531403775888987E+01
              0.106544889708229E+02
              0.270572792610461E+02
              0.779982497513643E+01
              0.303979130511060E+02
             -0.187708316843882E+02
             -0.301438079428746E+02
             -0.416113088956390E+02
             -0.474639333408066E+02
              0.462442551412794E+02
              0.126099701173421E+02
              0.385828154500300E+02
              0.132730010733884E+02
              0.851233399167534E+02
              0.155266784687006E+02
             -0.842577321286382E+02
             -0.332940330106773E+02
              0.133983248991228E+02
             -0.301503861813698E+02
              0.623424174531511E+02
             -0.877150574194366E+01
              0.147948043057232E+02
              0.494335582452169E+02
             -0.703269027174379E+02
              0.149044369841125E+03
              0.207754373551602E+02
              0.270183017626341E+02
              0.345701396351322E+02
              0.103746507334381E+02
             -0.156460342497536E+01
              0.357056122897683E+02
             -0.355456948242507E+02
              0.768946419490823E+02
              0.681043141514105E+02
             -0.404203231241237E+02
              0.148681628500035E+02
              0.666621860076447E+02
             -0.222960513003342E+02
              0.153178529774627E+02
              0.434042625330780E+02
              0.420453224966152E+02
             -0.781451305642501E+02
             -0.152770358172268E+02
             -0.355262181186760E+02
             -0.145610443816969E+01
             -0.760978668716915E+01
             -0.551898637412478E+01
             -0.180473464296974E+02
             -0.292193810428075E+02
              0.621642071798655E+01
              0.111720156023146E+02
              0.533156574185994E+02
             -0.387880602909558E+02
              0.371795626303060E+02
              0.435989189175827E+02
             -0.186615880747840E+02
              0.869260322166028E+02
             -0.694724530213429E+02
             -0.102707642520276E+03
             -0.653709479534441E+01
             -0.265640225043558E+01
              0.387639455007672E+01
              0.785782165268503E+02
             -0.107287380779933E+02
              0.414529220002970E+02
              0.440313407405069E+02
              0.383545449347201E+02
             -0.991958108095082E+01
              0.625079665299320E+02
             -0.132826682356256E+02
             -0.305271628607808E+02
             -0.478311688314214E+02
              0.579336440679205E+01
              0.368198367488868E+02
             -0.603872379627529E+01
              0.391737492284115E+02
             -0.177526361375402E+01
              0.652939759141599E+02
              0.186841156031324E+02
              0.994988665121920E+01
             -0.122169509267892E+02
              0.330962513758047E+02
              0.360586707003297E+02
              0.232292322129262E+02
             -0.483942772701027E+00
             -0.547883202312373E+02
              0.259265321431374E+02
              0.174159278054616E+02
              0.401334010679003E+02
              0.270872665242031E+02
              0.370663909298073E+02
             -0.597453630372306E+01
              0.249105002648434E+02
             -0.297114047272673E+02
             -0.196897798225916E+01
             -0.566959252379532E+02
             -0.306231403427230E+02
              0.376639130905618E+02
             -0.931662118245721E+02
              0.293548385388947E+02
              0.183540865991515E+02
              0.836118090853510E+02
             -0.300551168002698E+02
              0.327779261255659E+02
             -0.137315927394598E+02
             -0.461613805781171E+02
             -0.758935200469097E+02
             -0.515455788654089E+01
             -0.855615895613875E+02
              0.199788966417202E+02
             -0.246607384010437E+02
              0.304134434945411E+02
              0.235649999137486E+02
             -0.239577193352948E+02
             -0.263742186164018E+02
              0.388841688085630E+02
             -0.585495246539084E+02
             -0.116026294095680E+02
             -0.195464997591961E+02
              0.211155841293756E+02
             -0.899079238272930E+01
              0.362000132717907E+01
             -0.200196178779439E+02
              0.556426419558412E+02
             -0.436150283585115E+02
              0.786779260930075E+01
              0.582573888350065E+02
             -0.321424304351120E+02
              0.357896106137028E+01
             -0.886125550437089E+01
             -0.666675459172549E+02
             -0.481350772905668E+02
             -0.862998169058637E+01
              0.239153395473742E+02
              0.300562358525012E+02
              0.857705082370376E+01
             -0.407032968679880E+01
              0.151337505396720E+02
             -0.438257440981688E+02
              0.337657133498516E+01
             -0.528575517565499E+02
             -0.323577324467465E+02
              0.472252874087425E+02
             -0.293724139771526E+02
              0.618884184755233E+02
             -0.213429355151695E+02
              0.352283734625116E+02
              0.240580222721960E+02
             -0.641309900183014E+02
             -0.279473537458460E+02
              0.927064695394625E+01
             -0.369631546552210E+02
             -0.337549572850428E+02
             -0.825647121614888E+02
             -0.536837136630505E+02
             -0.508256903827154E+02
             -0.413303171598143E+02
             -0.978319014655000E+00
              0.979791300018567E+01
              0.941575442730795E+00
              0.151549631170114E+02
             -0.546631107087987E+02
              0.141214630412329E+02
              0.255076396224777E+02
             -0.663499868731641E+02
             -0.699631044706097E+02
             -0.429508487970434E+02
             -0.170016642632305E+02
              0.178072678735986E+02
              0.459529867453148E+01
             -0.424085985310855E+02
              0.365367228818126E+02
             -0.214830307635467E+02
              0.515016573863285E+02
             -0.883107956239168E+02
              0.594435534722342E+02
             -0.202737043074423E+01
             -0.366250280794961E+02
             -0.215051481031391E+02
              0.472518868520537E+01
              0.371982388110186E+02
             -0.753241304062203E+02
             -0.120247849635174E+02
             -0.216018658439184E+02
              0.509567311028727E+02
              0.861141647201108E+02
             -0.960442751580867E+02
              0.939848908440661E+02
              0.466187178858286E+02
             -0.721863099711547E+02
             -0.365384787639957E+02
              0.748079889278052E+02
              0.629494597532076E+02
             -0.180026986410545E+02
             -0.458684487283006E+01
              0.720765076467870E+01
              0.645093048203177E+02
             -0.505354312117943E+02
              0.158091181569468E+02
             -0.467935843876930E+01
              0.346796105552862E+02
             -0.743886312434837E+02
             -0.649544620639068E+01
             -0.350174048901703E+02
              0.458318682785970E+02
              0.467083888282622E+02
             -0.857651199474192E+02
             -0.485016522787083E+02
             -0.255407092889692E+02
             -0.336988499679411E+02
             -0.108862727252687E+02
             -0.242219927219227E+02
              0.425177807569103E+02
              0.399040562875241E+02
             -0.567262614424419E+01
             -0.414191730247845E+02
             -0.846355939014861E+02
              0.440464567532972E+02
             -0.521354098793363E+02
             -0.310943067370351E+02
              0.542879788828043E+01
             -0.320708408018849E+02
             -0.396164456071015E+02
             -0.238529936239836E+02
             -0.382644799667205E+02
             -0.269780459542658E+02
             -0.480215128135644E+02
              0.561535314588063E+02
              0.635696027531122E+02
             -0.163037128225949E+01
             -0.260416061480691E+02
             -0.630074190978507E+01
              0.439171810051151E+02
             -0.864172402310808E+02
             -0.145130270184090E+02
              0.521499656725845E+02
              0.660106490799825E+02
             -0.244374834403384E+02
              0.910306901754495E+01
              0.521151320523529E+02
              0.197469586641443E+02
             -0.832407815258762E+01
             -0.451453216834720E+02
              0.280147530779814E+02
             -0.351151164416592E+02
             -0.164870955266600E+02
             -0.151835288518678E+02
             -0.199737462533452E+02
              0.193520402459185E+02
              0.796563249255790E+02
              0.193276274163958E+01
              0.534026115215696E+01
             -0.883264567536973E+02
             -0.174993407451381E+02
             -0.351065300345736E+02
              0.278512971196136E+01
             -0.407152051751899E+02
              0.725777420847353E+02
              0.780621355379894E+02
              0.123101895591149E+02
             -0.140112458437187E+02
              0.142954875727542E+02
              0.259852989460753E+02
             -0.479879324797915E+02
             -0.869535920646877E+01
              0.136891467436479E+02
              0.164135983014011E+02
              0.561254963713166E+02
              0.420197297972905E+02
             -0.196939444088244E+02
              0.330212205921527E+02
             -0.963756155574274E+02
[...]
              0.282601305847583E+02
              0.141190454883053E+03
              0.240567564577797E+02
              0.121609723697420E+02
             -0.462211878741313E+02
             -0.635361232413375E+02
             -0.188518823493180E+02
              0.328244232205050E+02
             -0.424316804622697E+01
              0.188527437986240E+02
              0.334466847873913E+02
             -0.583661487039678E+02
              0.221025892376327E+02
              0.581184202878721E+02
              0.550345447400475E+02
             -0.413378976070322E+01
             -0.142783001004591E+01
             -0.990736333373275E+01
             -0.480448133768498E+02
             -0.671168693602414E+02
              0.782100091215290E+02
             -0.516568029140913E+01
             -0.585577194019758E+02
              0.164044993147783E+01
             -0.203556538137114E+02
              0.934557097438330E+02
             -0.215426178381697E+02
             -0.351597983186925E+02
              0.333206386147695E+02
             -0.144878079109969E+02
              0.387196490423813E+02
             -0.242244425652888E+01
              0.100668197855624E+03
              0.486807931018396E+02
             -0.522007597346239E+01
             -0.319902971379206E+02
              0.230695024665920E+02
             -0.525943273997780E+02
             -0.127945610147543E+02
              0.582537506329374E+02
             -0.286535346260953E+02
             -0.436390873763435E+02
             -0.221968563151209E+02
              0.516282413423020E+02
              0.124342798054575E+02
             -0.844963981307701E+02
              0.302127412891667E+02
              0.152212189416296E+02
              0.569640036469880E+01
             -0.511199472995156E+02
             -0.384743277613728E+01
              0.321516285276094E+02
              0.510861974980499E+02
              0.629256574691001E+02
              0.227024923985071E+02
              0.718472311066392E+00
             -0.495055339408182E+02
             -0.508103366938893E+02
             -0.745168869519419E+02
             -0.605395835469835E+01
              0.307288274529266E+02
             -0.379791978839634E+01
              0.544510608978662E+02
             -0.316358380553096E+02
              0.165687494096017E+02
             -0.101094506337543E+02
             -0.288265826993976E+02
              0.582694898552426E+02
              0.790586359236079E+01
              0.601040037111177E+02
              0.505226113190054E+01
              0.264343751199071E+02
             -0.191993600921112E+02
              0.583273925696276E+02
             -0.110347677814831E+02
             -0.129637226154335E+00
             -0.786343360805361E+02
             -0.128169287771497E+02
              0.715813438618640E+02
              0.670255378854743E+02
              0.250532919334014E+02
             -0.129396030483217E+02
              0.339644881387287E+01
             -0.172089709922043E+02
             -0.189222934755179E+01
              0.903226000112848E+02
              0.118340126836017E+01
             -0.188703085597467E+02
             -0.110252188395569E+03
             -0.551072345410621E+02
             -0.373109424959175E+02
             -0.655798614363982E+02
             -0.552507819842723E+02
             -0.679220365542074E+02
             -0.444961812881767E+02
             -0.409991880424369E+02
             -0.449363614549833E+02
              0.481405865290529E+02
             -0.293774967120867E+02
             -0.992045100761213E+02
              0.416894169135001E+02
             -0.258214251543136E+02
             -0.787043425745187E+02
              0.938841224520110E+02
             -0.218310681088907E+02
              0.227585355831061E+02
              0.453482483621162E+02
             -0.146931831149419E+01
              0.252971743208998E+02
              0.468538454688002E+01
              0.399324891279100E+00
             -0.149970308171375E+02
             -0.711980809957377E+02
              0.132612516056855E+02
             -0.128846587069548E+03
              0.620134883297811E+02
             -0.438704339917729E+02
             -0.161705808854139E+02
             -0.156952265309862E+02
              0.699514524180442E+01
             -0.227151129200192E+02
              0.295801700881297E+02
             -0.517428575201758E+02
              0.365656311068699E+02
              0.368501841628584E+02
              0.168380220056013E+02
              0.100043769280658E+02
              0.196676657838591E+02
              0.615039874409325E+01
              0.309055269324663E+02
             -0.799044177498661E+01
             -0.587884502040523E+02
              0.752799616652180E+01
             -0.150613914640439E+02
             -0.191072222840722E+01
              0.503091500564676E+02
             -0.823089523937030E+02
             -0.150835084133297E+01
              0.547526495551892E+00
              0.990355614202610E+01
              0.317080172357636E+02
             -0.123083648678649E+02
              0.831564040853865E+02
              0.486336597413338E+02
             -0.182637487723847E+02
             -0.953622805214991E+01
              0.100881289600071E+01
              0.765710660201197E+02
             -0.584046665161521E+02
             -0.105281987508409E+03
              0.307756893757335E+02
             -0.162790143498629E+02
             -0.138530552943719E+02
              0.129482236576989E+02
              0.764865389206002E+02
              0.462315586212222E+02
             -0.152730144439154E+02
             -0.500134539508586E+02
             -0.540315147113787E+01
              0.305124741079469E+02
             -0.110459417791055E+02
             -0.751942287645772E+02
             -0.263961518070559E+01
             -0.884778125838073E+02
             -0.472774095058779E+02
              0.763883455885731E+02
             -0.480850390579569E+02
             -0.632745631687451E+02
             -0.511787937982725E+02
             -0.347628155041858E+02
              0.339114886971937E+02
              0.817171478868787E+02
             -0.350003737550031E+01
              0.275305771684828E+02
             -0.182554676196945E+02
             -0.690533441416314E+02
              0.462453007141249E+02
             -0.442439466029440E+02
              0.320763344152803E+02
              0.375129961870865E+02
             -0.644367847725857E+01
              0.388901302950119E+02
              0.436646832672585E+02
              0.999957251509073E+02
             -0.155827693379209E+02
             -0.452709789733931E+02
             -0.609446074917943E+02
             -0.122713213566861E+02
             -0.230240328693698E+02
              0.102607090715951E+03
             -0.446832918721095E+02
              0.104551185285245E+02
              0.973134468115416E+01
             -0.263991234513956E+02
             -0.794192655034288E+02
             -0.695814496599689E+01
              0.974756171479694E+02
              0.921452772828670E+01
              0.804898122340148E+01
             -0.523636550241553E+02
             -0.602870805917180E+02
             -0.549537029390120E+01
              0.498346512584477E+02
             -0.220395672080101E+02
              0.107494261677478E+03
             -0.432862099911663E+02
              0.145187005948893E+02
             -0.223976753397674E+02
             -0.715627615764386E+02
              0.162921127615152E+01
             -0.498639957738296E+02
             -0.756931892013527E+02
              0.607668922375376E+01
              0.235847097567645E+01
              0.511673522397128E+02
              0.185634334388498E+02
             -0.321810978963764E+02
              0.228952183109220E+02
             -0.806081940070574E+02
             -0.519654907618003E+02
              0.897075003929763E+02
              0.142527402009093E+02
             -0.188193173803267E+02
             -0.351426764887307E+02
             -0.269946486445281E+01
             -0.578799477917289E+01
              0.825200346894443E+02
              0.415619343648501E+02
             -0.165951558915407E+02
             -0.122256543147712E+02
             -0.425821231401405E+02
             -0.200324687507112E+02
             -0.667160950319255E+02
              0.457028762267869E+02
              0.543365577133804E+01
              0.144790199920755E+02
              0.154923563655967E+02
             -0.466730555349855E+00
             -0.167070361323056E+02
             -0.317950628361320E+01
             -0.998335235052845E+02
             -0.229737190922224E+02
             -0.758564548203520E+01
             -0.946446677133787E+01
              0.544363939341187E+02
              0.620401060523130E+02
              0.163802874535627E+02
             -0.965946234880162E+02
              0.644381433659860E+02
             -0.213691131408430E+02
             -0.375175477914565E+02
             -0.859747870612056E+02
             -0.385945490030985E+02
              0.560984010625273E+02
              0.242282799968109E+02
              0.503518591436250E+01
              0.290235109009138E+02
             -0.562097913910881E+02
             -0.419491801648220E+02
              0.511945253691421E+02
              0.384987317123254E+02
              0.516734128107822E+02
             -0.130331588017364E+01
              0.679020552158283E+01
              0.566828802574021E+02
              0.957760650745594E+02
             -0.299720766516297E+02
              0.320604498970379E+02
             -0.116283601844593E+02
             -0.409829539344568E+02
             -0.312459281572986E+02
             -0.298210315390701E+02
             -0.130678911030610E+02
             -0.521141331895320E+02
             -0.216493821880808E+02
             -0.140542780767740E+03
              0.367478782893139E+02
              0.205065974912011E+02
             -0.391527557019168E+01
             -0.378280537639458E+02
             -0.203488333414319E+02
             -0.523790833047885E+02
              0.151224813266293E+02
              0.816155023928569E+02
             -0.251248718177601E+02
             -0.162016404103530E+02
              0.237147182099071E+02
             -0.486683580615586E+02
              0.876271300400194E+02
              0.153774994468020E+02
              0.226428445198029E+02
              0.487686651048624E+02
              0.327036646124503E+01
              0.539001831574938E+02
              0.141818986009008E+02
             -0.106863831750909E+02
              0.724497766672016E+01
              0.866316020653073E+00
              0.724068589634965E+02
              0.100822311007487E+02
              0.119152006003410E+02
             -0.129586712974328E+02
              0.131799108483938E+02
             -0.906374866310113E+02
             -0.324150071061597E+02
             -0.454627697516836E+02
              0.482883266777974E+02
             -0.289066626367488E+02
             -0.656001387612392E+02
              0.535314641685778E+02
             -0.121320306466203E+02
              0.438174507702684E+02
             -0.894211428555810E+02
              0.231616109858591E+02
              0.856820301580638E+01
              0.578873325542349E+01
             -0.823042451805361E+01
             -0.900153174680440E+01
              0.476808416828486E+02
              0.197512253453090E+01
             -0.472173852637680E+02
             -0.174866576928538E+02
              0.275963483916761E+02
             -0.117361166178009E+03
             -0.925706009551927E+02
              0.396456991198551E+01
              0.116548743225218E+02
             -0.410356701078034E+02
             -0.391908292958357E+01
              0.111620119200456E+03
              0.305285369053269E+02
             -0.569013901875725E+02
              0.921127213426399E+01
             -0.957823687765162E+01
              0.104921765195533E+02
             -0.335742230417680E+02
              0.193960364358526E+02
              0.283563306551882E+02
             -0.294075568191340E+01
              0.107594279999818E+03
             -0.140386658799379E+02
             -0.314389944196125E+02
              0.140832599952601E+02
              0.464375463284649E+02
             -0.354430867596923E+02
             -0.318178395593061E+01
              0.959748300216479E+02
             -0.464377107470432E+01
              0.619119751033743E+02
              0.134595761848456E+02
             -0.900508418660003E+01
             -0.304963185475643E+02
              0.564507009613395E+02
             -0.510953540398405E+02
             -0.220682658399909E+01
             -0.168799666977512E+02
             -0.403344676392668E+02
              0.184511764929380E+02
              0.237850926377248E+02
              0.116575498099249E+02
              0.724786208322257E+00
             -0.382246947593915E+02
              0.214781325059637E+02
             -0.674556418257220E+01
             -0.245541206198354E+02
             -0.209723050449846E+02
              0.202718970261129E+02
             -0.599483794740138E+01
             -0.347134264716249E+02
             -0.106075038591369E+03
              0.102542601382573E+02
              0.248447193895276E+02
             -0.384561743879025E+02
             -0.209573283282128E+02
              0.802864877286064E+02
              0.641606951164536E+01
              0.308100182551605E+02
              0.383100078768618E+01
              0.319579250614049E+02
              0.645859321178176E+01
             -0.370926130210867E+02
             -0.221088009841367E+01
              0.875589337405040E+01
              0.271947365778950E+02
              0.778434656161788E+02
              0.504907682538421E+02
              0.154992880114662E+00
              0.168657372919819E+02
              0.610117942056385E+02
              0.234345868500736E+02
             -0.749594067224638E+02
             -0.272257430863414E+02
              0.150739769020370E+02
              0.556152300183084E+01
              0.253815366015652E+02
             -0.545289230480950E+02
              0.899564107709693E+01
              0.383686816063165E+02
              0.495554024086271E+02
             -0.432851374814828E+02
             -0.696879039295754E+01
             -0.206229882068601E+01
             -0.132436473525822E+02
             -0.364629672384601E+02
             -0.215036404638024E+02
             -0.191268002196502E+01
              0.785890224890983E+01
              0.419193189583754E+02
             -0.306571158665557E+02
              0.822079871131788E+02
              0.325870716399943E+02
              0.218328157561596E+02
              0.331003364183041E+02
              0.322234362836359E+02
              0.344147322229162E+02
              0.534328538780058E+02
             -0.431381040935495E+02
              0.616463795945072E+02
             -0.111669321677198E+03
              0.305754190320750E+02
             -0.106004986115159E+03
              0.850695287641080E+02
              0.686473355207126E+02
             -0.109565871579096E+02
             -0.490988883252542E+02
             -0.427308476322277E+02
             -0.621059853321586E+02
             -0.625247020920127E+02
              0.549087530324440E+02
              0.403359882234351E+02
              0.235594888382281E+02
              0.372905902231292E+02
              0.400555368541353E+02
             -0.379947818290503E+02
             -0.197278552255639E+02
              0.584080813549045E+02
             -0.115465378930341E+02
              0.549337164972441E+02
              0.695273161939898E+02
             -0.552062124290707E+01
             -0.702350786299676E+02
             -0.945675006896067E+00
             -0.247117278369329E+01
             -0.876692830575655E+01
             -0.182480878433165E+01
             -0.649844055118031E+02
             -0.210872707689377E+02
              0.529639426223108E+01
              0.888888845198341E+01
              0.466235057684541E+02
             -0.395409227189595E+02
              0.655431825294476E+02
             -0.423468824335678E+02
              0.208694025509319E+02
              0.347959188383595E+02
 
 BEEF-vdW xc energy contributions
           1 :   -779.516523351692     
           2 :    716.540148468432     
           3 :   -607.362816512242     
           4 :    478.615146920659     
           5 :   -357.492876347219     
           6 :    263.703648628158     
           7 :   -204.944354758821     
           8 :    176.829047249311     
           9 :   -166.842306664816     
          10 :    160.438423422201     
          11 :   -146.802055976029     
          12 :    122.094663462836     
          13 :   -89.3331864312102     
          14 :    55.5167114605251     
          15 :   -27.6600249977394     
          16 :    9.52777516767924     
          17 :  -0.338301071450019     
          18 :   -4.29407958036995     
          19 :    9.87733577183110     
          20 :   -20.3271777559402     
          21 :    36.2698250138415     
          22 :   -55.0370873723450     
          23 :    72.1916675598900     
          24 :   -83.7476632616563     
          25 :    87.9892692653522     
          26 :   -86.0904597014033     
          27 :    81.3455650442475     
          28 :   -77.4711034498720     
          29 :    76.8374320801378     
          30 :   -79.4710472917558     
          31 :   -85.2957190004149     
          32 :   -65.4499858627182     

     Writing output data file ./pwscf.save/
 
     init_run     :    291.28s CPU    295.52s WALL (       1 calls)
     electrons    :  11317.76s CPU  11439.06s WALL (       1 calls)
     forces       :     92.11s CPU     93.30s WALL (       1 calls)

     Called by init_run:
     wfcinit      :    243.90s CPU    247.15s WALL (       1 calls)
     potinit      :     44.21s CPU     44.52s WALL (       1 calls)
     hinit0       :      1.31s CPU      1.33s WALL (       1 calls)

     Called by electrons:
     c_bands      :   9392.13s CPU   9485.00s WALL (      20 calls)
     sum_band     :   1253.28s CPU   1265.94s WALL (      20 calls)
     v_of_rho     :    101.06s CPU    104.97s WALL (      20 calls)
     newd         :     30.39s CPU     42.41s WALL (      20 calls)
     PAW_pot      :    136.97s CPU    136.97s WALL (      20 calls)
     mix_rho      :    448.91s CPU    449.59s WALL (      20 calls)
     vdW_kernel   :     33.60s CPU     33.60s WALL (       1 calls)

     Called by c_bands:
     init_us_2    :     73.61s CPU     73.86s WALL (     546 calls)
     cegterg      :   8640.18s CPU   8732.77s WALL (     260 calls)

     Called by *egterg:
     cdiaghg      :     80.82s CPU     80.85s WALL (    1282 calls)
     h_psi        :   5376.05s CPU   5407.96s WALL (    1308 calls)
     s_psi        :    975.13s CPU    975.16s WALL (    1308 calls)
     g_psi        :     15.56s CPU     15.56s WALL (    1035 calls)

     Called by h_psi:
     h_psi:calbec :    913.26s CPU    913.39s WALL (    1308 calls)
     vloc_psi     :   3463.82s CPU   3464.66s WALL (    1308 calls)
     add_vuspsi   :    974.80s CPU    974.87s WALL (    1308 calls)

     General routines
     calbec       :   1345.94s CPU   1346.10s WALL (    1620 calls)
     fft          :     43.98s CPU     43.99s WALL (    3220 calls)
     ffts         :    140.86s CPU    140.87s WALL (   11622 calls)
     fftw         :   3614.29s CPU   3614.76s WALL (  330956 calls)
 
     Parallel routines
 
     PWSCF        :      3h16m CPU      3h18m WALL

 
   This run was terminated on:  16:15:23  21Dec2022            

=------------------------------------------------------------------------------=
   JOB DONE.
=------------------------------------------------------------------------------=
