
     Program PWSCF v.6.7MaX starts on 16May2022 at  9:36:21 

     This program is part of the open-source Quantum ESPRESSO suite
     for quantum simulation of materials; please cite
         "P. Giannozzi et al., J. Phys.:Condens. Matter 21 395502 (2009);
         "P. Giannozzi et al., J. Phys.:Condens. Matter 29 465901 (2017);
          URL http://www.quantum-espresso.org", 
     in publications or presentations arising from this work. More details at
     http://www.quantum-espresso.org/quote

     Parallel version (MPI), running on     1 processors

     MPI processes distributed on     1 nodes
     Reading input from co2ads_ensemble.in
Warning: card &CELL ignored
Warning: card / ignored

     Current dimensions of program PWSCF are:
     Max number of different atomic species (ntypx) = 10
     Max number of k-points (npk) =  40000
     Max angular momentum in pseudopotentials (lmaxx) =  3
     file Pt.pbe-n-kjpaw_psl.1.0.0.UPF: wavefunction(s)  6S 5D renormalized
     file C.pbe-n-kjpaw_psl.1.0.0.UPF: wavefunction(s)  2S 2P renormalized
     file O.pbe-nl-kjpaw_psl.1.0.0.UPF: wavefunction(s)  2S 2P renormalized

     **************************************************************************
     Initializing libbeef V0.1.2 with the BEEF-vdW functional.
     Citation: Wellendorff et al., PRB 85, 235149 (2012).
     **************************************************************************


     IMPORTANT: XC functional enforced from input :
     Exchange-correlation= BEEF-VDW
                           (   1   4  43  14   2   0   0)
     Any further DFT definition will be discarded
     Please, verify this is what you really want


     Subspace diagonalization in iterative solution of the eigenvalue problem:
     a serial algorithm will be used

 
     G-vector sticks info
     --------------------
     sticks:   dense  smooth     PW     G-vecs:    dense   smooth      PW
     Sum        4267    4267   1159               752731   752731  106057
 


     bravais-lattice index     =            0
     lattice parameter (alat)  =      16.0349  a.u.
     unit-cell volume          =   11981.3889 (a.u.)^3
     number of atoms/cell      =           39
     number of atomic types    =            3
     number of electrons       =       376.00
     number of Kohn-Sham states=          226
     kinetic-energy cutoff     =      60.0000  Ry
     charge density cutoff     =     240.0000  Ry
     scf convergence threshold =      1.0E-06
     mixing beta               =       0.7000
     number of iterations used =            8  local-TF  mixing
     Exchange-correlation= BEEF-VDW
                           (   1   4  43  14   2   0   0)

     celldm(1)=  16.034858  celldm(2)=   0.000000  celldm(3)=   0.000000
     celldm(4)=   0.000000  celldm(5)=   0.000000  celldm(6)=   0.000000

     crystal axes: (cart. coord. in units of alat)
               a(1) = (   1.000000   0.000000   0.000000 )  
               a(2) = (   0.500000   0.866025   0.000000 )  
               a(3) = (   0.000000   0.000000   3.355685 )  

     reciprocal axes: (cart. coord. in units 2 pi/alat)
               b(1) = (  1.000000 -0.577350  0.000000 )  
               b(2) = (  0.000000  1.154701  0.000000 )  
               b(3) = (  0.000000  0.000000  0.298002 )  


     PseudoPot. # 1 for Pt read from file:
     /users/bkreitz1/quantum-espresso/potentials/Pt.pbe-n-kjpaw_psl.1.0.0.UPF
     MD5 check sum: 04dc8a03c51ece93fc7b5889c2958091
     Pseudo is Projector augmented-wave + core cor, Zval = 10.0
     Generated using 'atomic' code by A. Dal Corso  v.6.7MaX
     Shape of augmentation charge: PSQ
     Using radial grid of 1277 points,  6 beta functions with: 
                l(1) =   0
                l(2) =   0
                l(3) =   1
                l(4) =   1
                l(5) =   2
                l(6) =   2
     Q(r) pseudized with 0 coefficients 


     PseudoPot. # 2 for C  read from file:
     /users/bkreitz1/quantum-espresso/potentials/C.pbe-n-kjpaw_psl.1.0.0.UPF
     MD5 check sum: a169b0ebad56f5ec0d79c4633f80bf22
     Pseudo is Projector augmented-wave + core cor, Zval =  4.0
     Generated using 'atomic' code by A. Dal Corso  v.6.7MaX
     Shape of augmentation charge: PSQ
     Using radial grid of 1073 points,  4 beta functions with: 
                l(1) =   0
                l(2) =   0
                l(3) =   1
                l(4) =   1
     Q(r) pseudized with 0 coefficients 


     PseudoPot. # 3 for O  read from file:
     /users/bkreitz1/quantum-espresso/potentials/O.pbe-nl-kjpaw_psl.1.0.0.UPF
     MD5 check sum: eef08af8b58d9ec80f8fdb78829eb7cf
     Pseudo is Projector augmented-wave + core cor, Zval =  6.0
     Generated using 'atomic' code by A. Dal Corso  v.6.7MaX
     Shape of augmentation charge: PSQ
     Using radial grid of 1095 points,  4 beta functions with: 
                l(1) =   0
                l(2) =   0
                l(3) =   1
                l(4) =   1
     Q(r) pseudized with 0 coefficients 


     atomic species   valence    mass     pseudopotential
        Pt            10.00   195.08400     Pt( 1.00)
        C              4.00    12.01100     C ( 1.00)
        O              6.00    15.99900     O ( 1.00)

     No symmetry found



   Cartesian axes

     site n.     atom                  positions (alat units)
         1           Pt  tau(   1) = (   0.0000000   0.0000000   1.0017346  )
         2           Pt  tau(   2) = (   0.3333333   0.0000000   1.0017346  )
         3           Pt  tau(   3) = (   0.6666667   0.0000000   1.0017346  )
         4           Pt  tau(   4) = (   0.1666667   0.2886751   1.0017346  )
         5           Pt  tau(   5) = (   0.5000000   0.2886751   1.0017346  )
         6           Pt  tau(   6) = (   0.8333333   0.2886751   1.0017346  )
         7           Pt  tau(   7) = (   0.3333333   0.5773503   1.0017346  )
         8           Pt  tau(   8) = (   0.6666667   0.5773503   1.0017346  )
         9           Pt  tau(   9) = (   1.0000000   0.5773503   1.0017346  )
        10           Pt  tau(  10) = (   0.1666667   0.0962250   1.2739001  )
        11           Pt  tau(  11) = (   0.5000000   0.0962250   1.2739001  )
        12           Pt  tau(  12) = (   0.8333333   0.0962250   1.2739001  )
        13           Pt  tau(  13) = (   0.3333333   0.3849002   1.2739001  )
        14           Pt  tau(  14) = (   0.6666667   0.3849002   1.2739001  )
        15           Pt  tau(  15) = (   1.0000000   0.3849002   1.2739001  )
        16           Pt  tau(  16) = (   0.5000000   0.6735753   1.2739001  )
        17           Pt  tau(  17) = (   0.8333333   0.6735753   1.2739001  )
        18           Pt  tau(  18) = (   1.1666667   0.6735753   1.2739001  )
        19           Pt  tau(  19) = (   0.0000219   0.1924803   1.5425868  )
        20           Pt  tau(  20) = (   0.3333816   0.1924766   1.5425151  )
        21           Pt  tau(  21) = (   0.6666824   0.1924667   1.5424790  )
        22           Pt  tau(  22) = (   0.1667107   0.4811287   1.5425814  )
        23           Pt  tau(  23) = (   0.5000396   0.4811290   1.5425123  )
        24           Pt  tau(  24) = (   0.8333458   0.4811233   1.5425526  )
        25           Pt  tau(  25) = (   0.3333464   0.7698026   1.5425341  )
        26           Pt  tau(  26) = (   0.6667142   0.7698098   1.5425574  )
        27           Pt  tau(  27) = (   1.0000272   0.7698153   1.5425683  )
        28           Pt  tau(  28) = (   0.0000816   0.0000096   1.8163228  )
        29           Pt  tau(  29) = (   0.3334182   0.0000824   1.8164396  )
        30           Pt  tau(  30) = (   0.6667410   0.0001349   1.8163873  )
        31           Pt  tau(  31) = (   0.1667910   0.2886746   1.8164734  )
        32           Pt  tau(  32) = (   0.5000571   0.2886635   1.8165740  )
        33           Pt  tau(  33) = (   0.8332982   0.2886659   1.8164490  )
        34           Pt  tau(  34) = (   0.3334826   0.5773284   1.8164071  )
        35           Pt  tau(  35) = (   0.6666828   0.5772993   1.8164335  )
        36           Pt  tau(  36) = (   1.0000557   0.5773528   1.8163385  )
        37           C   tau(  37) = (   0.4867195   0.2772325   2.3539504  )
        38           O   tau(  38) = (   0.6249666   0.2772344   2.3537339  )
        39           O   tau(  39) = (   0.3484746   0.2772400   2.3543888  )

     number of k points=    13  Marzari-Vanderbilt smearing, width (Ry)=  0.0200
                       cart. coord. in units 2pi/alat
        k(    1) = (   0.0000000   0.0000000   0.0000000), wk =   0.0800000
        k(    2) = (   0.0000000   0.2309401   0.0000000), wk =   0.1600000
        k(    3) = (   0.0000000   0.4618802   0.0000000), wk =   0.1600000
        k(    4) = (   0.2000000  -0.1154701   0.0000000), wk =   0.1600000
        k(    5) = (   0.2000000   0.1154701   0.0000000), wk =   0.1600000
        k(    6) = (   0.2000000   0.3464102   0.0000000), wk =   0.1600000
        k(    7) = (   0.2000000  -0.5773503   0.0000000), wk =   0.1600000
        k(    8) = (   0.2000000  -0.3464102   0.0000000), wk =   0.1600000
        k(    9) = (   0.4000000  -0.2309401   0.0000000), wk =   0.1600000
        k(   10) = (   0.4000000  -0.0000000   0.0000000), wk =   0.1600000
        k(   11) = (   0.4000000   0.2309401   0.0000000), wk =   0.1600000
        k(   12) = (   0.4000000  -0.6928203   0.0000000), wk =   0.1600000
        k(   13) = (   0.4000000  -0.4618802   0.0000000), wk =   0.1600000

     Dense  grid:   752731 G-vectors     FFT dimensions: (  80,  80, 270)

     Estimated max dynamical RAM per process >       9.13 GB

     Check: negative core charge=   -0.000002

     Initial potential from superposition of free atoms

     starting charge  375.99385, renormalised to  376.00000

     negative rho (up, down):  1.166E-02 0.000E+00


     %%%%%%%%%%%%%%%%%%%%%%%%%%%%%%%%%%%%%%%%%%%%%%%%%%%%%%%%%%%%%%%%%%%%%%%%
     %                                                                      %
     % You are using vdW-DF, which was implemented by the Thonhauser group. %
     % Please cite the following two papers that made this development      %
     % possible and the two reviews that describe the various versions:     %
     %                                                                      %
     %   T. Thonhauser et al., PRL 115, 136402 (2015).                      %
     %   T. Thonhauser et al., PRB 76, 125112 (2007).                       %
     %   K. Berland et al., Rep. Prog. Phys. 78, 066501 (2015).             %
     %   D.C. Langreth et al., J. Phys.: Condens. Matter 21, 084203 (2009). %
     %                                                                      %
     %                                                                      %
     % If you are calculating the stress with vdW-DF, please also cite:     %
     %                                                                      %
     %   R. Sabatini et al., J. Phys.: Condens. Matter 24, 424209 (2012).   %
     %                                                                      %
     %%%%%%%%%%%%%%%%%%%%%%%%%%%%%%%%%%%%%%%%%%%%%%%%%%%%%%%%%%%%%%%%%%%%%%%%


     Starting wfcs are  336 randomized atomic wfcs
     Checking if some PAW data can be deallocated... 

     total cpu time spent up to now is      354.2 secs

     Self-consistent Calculation

     iteration #  1     ecut=    60.00 Ry     beta= 0.70
     Davidson diagonalization with overlap
     ethr =  1.00E-02,  avg # of iterations =  2.0

     Threshold (ethr) on eigenvalues was too large:
     Diagonalizing with lowered threshold

     Davidson diagonalization with overlap
     ethr =  4.92E-04,  avg # of iterations =  4.1

     negative rho (up, down):  1.166E-02 0.000E+00

     total cpu time spent up to now is     1931.2 secs

     total energy              =  -27857.99839695 Ry
     estimated scf accuracy    <       2.03977704 Ry

     iteration #  2     ecut=    60.00 Ry     beta= 0.70
     Davidson diagonalization with overlap
     ethr =  5.42E-04,  avg # of iterations =  3.0

     negative rho (up, down):  1.060E-02 0.000E+00

     total cpu time spent up to now is     2639.4 secs

     total energy              =  -27858.17440024 Ry
     estimated scf accuracy    <       0.91450207 Ry

     iteration #  3     ecut=    60.00 Ry     beta= 0.70
     Davidson diagonalization with overlap
     ethr =  2.43E-04,  avg # of iterations =  4.2

     negative rho (up, down):  8.167E-03 0.000E+00

     total cpu time spent up to now is     3337.3 secs

     total energy              =  -27858.22871646 Ry
     estimated scf accuracy    <       0.14279663 Ry

     iteration #  4     ecut=    60.00 Ry     beta= 0.70
     Davidson diagonalization with overlap
     ethr =  3.80E-05,  avg # of iterations = 14.6

     negative rho (up, down):  6.323E-03 0.000E+00

     total cpu time spent up to now is     4486.1 secs

     total energy              =  -27858.27438209 Ry
     estimated scf accuracy    <       0.05657643 Ry

     iteration #  5     ecut=    60.00 Ry     beta= 0.70
     Davidson diagonalization with overlap
     ethr =  1.50E-05,  avg # of iterations =  3.4

     negative rho (up, down):  5.802E-03 0.000E+00

     total cpu time spent up to now is     5162.8 secs

     total energy              =  -27858.27816275 Ry
     estimated scf accuracy    <       0.03331918 Ry

     iteration #  6     ecut=    60.00 Ry     beta= 0.70
     Davidson diagonalization with overlap
     ethr =  8.86E-06,  avg # of iterations =  3.8

     negative rho (up, down):  5.806E-03 0.000E+00

     total cpu time spent up to now is     5812.1 secs

     total energy              =  -27858.27840281 Ry
     estimated scf accuracy    <       0.00448552 Ry

     iteration #  7     ecut=    60.00 Ry     beta= 0.70
     Davidson diagonalization with overlap
     c_bands:  1 eigenvalues not converged
     c_bands:  2 eigenvalues not converged
     c_bands:  1 eigenvalues not converged
     c_bands:  2 eigenvalues not converged
     c_bands:  1 eigenvalues not converged
     c_bands:  1 eigenvalues not converged
     ethr =  1.19E-06,  avg # of iterations = 15.2

     negative rho (up, down):  6.142E-03 0.000E+00

     total cpu time spent up to now is     6824.2 secs

     total energy              =  -27858.27927679 Ry
     estimated scf accuracy    <       0.00748716 Ry

     iteration #  8     ecut=    60.00 Ry     beta= 0.70
     Davidson diagonalization with overlap
     c_bands:  1 eigenvalues not converged
     ethr =  1.19E-06,  avg # of iterations =  3.4

     negative rho (up, down):  1.065E-02 0.000E+00

     total cpu time spent up to now is     7458.7 secs

     total energy              =  -27858.27886157 Ry
     estimated scf accuracy    <       0.00531623 Ry

     iteration #  9     ecut=    60.00 Ry     beta= 0.70
     Davidson diagonalization with overlap
     c_bands:  1 eigenvalues not converged
     ethr =  1.19E-06,  avg # of iterations = 12.5

     negative rho (up, down):  1.542E-02 0.000E+00

     total cpu time spent up to now is     8225.9 secs

     total energy              =  -27858.27878356 Ry
     estimated scf accuracy    <       0.00281944 Ry

     iteration # 10     ecut=    60.00 Ry     beta= 0.70
     Davidson diagonalization with overlap
     c_bands:  1 eigenvalues not converged
     ethr =  7.50E-07,  avg # of iterations =  6.9

     negative rho (up, down):  1.999E-02 0.000E+00

     total cpu time spent up to now is     8930.5 secs

     total energy              =  -27858.27868641 Ry
     estimated scf accuracy    <       0.00188622 Ry

     iteration # 11     ecut=    60.00 Ry     beta= 0.70
     Davidson diagonalization with overlap
     ethr =  5.02E-07,  avg # of iterations = 10.2

     negative rho (up, down):  2.195E-02 0.000E+00

     total cpu time spent up to now is     9664.1 secs

     total energy              =  -27858.27867014 Ry
     estimated scf accuracy    <       0.00112784 Ry

     iteration # 12     ecut=    60.00 Ry     beta= 0.70
     Davidson diagonalization with overlap
     ethr =  3.00E-07,  avg # of iterations =  1.9

     negative rho (up, down):  2.209E-02 0.000E+00

     total cpu time spent up to now is    10327.7 secs

     total energy              =  -27858.27866393 Ry
     estimated scf accuracy    <       0.00038884 Ry

     iteration # 13     ecut=    60.00 Ry     beta= 0.70
     Davidson diagonalization with overlap
     ethr =  1.03E-07,  avg # of iterations =  1.4

     negative rho (up, down):  2.047E-02 0.000E+00

     total cpu time spent up to now is    10968.6 secs

     total energy              =  -27858.27863181 Ry
     estimated scf accuracy    <       0.00018518 Ry

     iteration # 14     ecut=    60.00 Ry     beta= 0.70
     Davidson diagonalization with overlap
     ethr =  4.93E-08,  avg # of iterations =  2.0

     negative rho (up, down):  1.923E-02 0.000E+00

     total cpu time spent up to now is    11647.4 secs

     total energy              =  -27858.27862718 Ry
     estimated scf accuracy    <       0.00011516 Ry

     iteration # 15     ecut=    60.00 Ry     beta= 0.70
     Davidson diagonalization with overlap
     ethr =  3.06E-08,  avg # of iterations =  1.2

     negative rho (up, down):  1.804E-02 0.000E+00

     total cpu time spent up to now is    12272.5 secs

     total energy              =  -27858.27860487 Ry
     estimated scf accuracy    <       0.00010135 Ry

     iteration # 16     ecut=    60.00 Ry     beta= 0.70
     Davidson diagonalization with overlap
     ethr =  2.70E-08,  avg # of iterations =  2.3

     negative rho (up, down):  1.641E-02 0.000E+00

     total cpu time spent up to now is    12980.8 secs

     total energy              =  -27858.27859206 Ry
     estimated scf accuracy    <       0.00005653 Ry

     iteration # 17     ecut=    60.00 Ry     beta= 0.70
     Davidson diagonalization with overlap
     ethr =  1.50E-08,  avg # of iterations =  1.8

     negative rho (up, down):  1.454E-02 0.000E+00

     total cpu time spent up to now is    13649.0 secs

     total energy              =  -27858.27858436 Ry
     estimated scf accuracy    <       0.00005112 Ry

     iteration # 18     ecut=    60.00 Ry     beta= 0.70
     Davidson diagonalization with overlap
     ethr =  1.36E-08,  avg # of iterations =  2.0

     negative rho (up, down):  1.364E-02 0.000E+00

     total cpu time spent up to now is    14308.1 secs

     total energy              =  -27858.27858360 Ry
     estimated scf accuracy    <       0.00001753 Ry

     iteration # 19     ecut=    60.00 Ry     beta= 0.70
     Davidson diagonalization with overlap
     ethr =  4.66E-09,  avg # of iterations =  2.2

     negative rho (up, down):  1.322E-02 0.000E+00

     total cpu time spent up to now is    14988.5 secs

     total energy              =  -27858.27858410 Ry
     estimated scf accuracy    <       0.00000643 Ry

     iteration # 20     ecut=    60.00 Ry     beta= 0.70
     Davidson diagonalization with overlap
     ethr =  1.71E-09,  avg # of iterations =  4.1

     negative rho (up, down):  1.294E-02 0.000E+00

     total cpu time spent up to now is    15768.0 secs

     total energy              =  -27858.27858576 Ry
     estimated scf accuracy    <       0.00000156 Ry

     iteration # 21     ecut=    60.00 Ry     beta= 0.70
     Davidson diagonalization with overlap
     ethr =  4.15E-10,  avg # of iterations =  5.9

     negative rho (up, down):  1.301E-02 0.000E+00

     total cpu time spent up to now is    16744.6 secs

     End of self-consistent calculation

          k = 0.0000 0.0000 0.0000 ( 94237 PWs)   bands (ev):

   -22.3753 -21.3684  -7.5193  -6.9293  -6.2068  -5.7239  -5.6836  -5.6789
    -5.1294  -5.0974  -5.0973  -5.0971  -5.0970  -5.0966  -5.0966  -5.0826
    -4.5389  -4.5386  -4.5386  -4.5385  -4.5384  -4.5381  -4.0639  -4.0639
    -4.0637  -4.0636  -4.0634  -4.0633  -3.8477  -3.8476  -3.8476  -3.8475
    -3.8474  -3.8473  -3.6220  -3.6220  -3.6159  -3.6158  -3.5997  -3.5996
    -3.5995  -3.5993  -3.5991  -3.5991  -3.5851  -3.5849  -3.0037  -3.0037
    -2.9724  -2.9722  -2.9142  -2.9141  -2.9140  -2.9138  -2.9137  -2.9135
    -2.7769  -2.7769  -2.6753  -2.6752  -2.1682  -2.1656  -2.1655  -2.1653
    -2.1650  -2.1646  -2.1422  -2.1412  -2.1008  -2.0127  -2.0127  -1.9804
    -1.9804  -1.9680  -1.9678  -1.9515  -1.9466  -1.9465  -1.9463  -1.9462
    -1.9460  -1.9459  -1.9112  -1.9111  -1.7513  -1.7512  -1.7509  -1.7507
    -1.7506  -1.7505  -1.5995  -1.5992  -1.5991  -1.5988  -1.5986  -1.5983
    -1.4995  -1.4995  -1.4010  -1.4010  -1.3366  -1.3366  -1.3245  -1.3239
    -1.2897  -1.2896  -1.2738  -1.2737  -1.1243  -1.1235  -1.1230  -1.1229
    -1.1225  -1.1222  -1.1159  -0.6314  -0.6313  -0.6311  -0.6308  -0.6308
    -0.6307  -0.5544  -0.5538  -0.5536  -0.5533  -0.5532  -0.5530  -0.4839
    -0.4838  -0.3084  -0.3079  -0.3072  -0.3069  -0.3066  -0.3064  -0.1669
    -0.1666  -0.1650  -0.1643  -0.1560  -0.1560   0.1004   0.1005   0.1005
     0.1009   0.1009   0.1009   0.1801   0.1802   0.3628   0.3630   0.3637
     0.3639   0.3641   0.3644   0.5337   0.5338   0.5338   0.5341   0.5344
     0.5344   0.5796   0.5808   0.5819   0.5826   0.5828   0.5829   0.7120
     0.7124   0.7318   0.7319   0.7320   0.7324   0.7325   0.7326   0.8375
     0.8377   0.8384   0.8386   0.8393   0.8395   0.8447   0.8447   0.9408
     0.9411   0.9414   0.9416   0.9421   0.9422   1.0457   1.0460   1.0515
     1.0516   1.0535   1.0536   1.1250   1.2701   1.2705   1.3787   1.3787
     1.3789   1.3791   1.3792   1.3793   2.2159   2.2700   2.2721   2.2747
     2.2764   2.2769   2.2770   4.5951   4.6024   4.6083   4.6107   4.6110
     4.6111   5.4989   6.1352   6.1365   6.1916   6.1918   6.1926   6.1929
     6.3972   6.3981

          k = 0.0000 0.2309 0.0000 ( 94010 PWs)   bands (ev):

   -22.3753 -21.3684  -7.3723  -6.9293  -6.0619  -5.7239  -5.6836  -5.6790
    -5.6127  -5.2133  -5.2131  -4.9819  -4.9465  -4.9065  -4.8628  -4.8626
    -4.6531  -4.6343  -4.4777  -4.4776  -4.4570  -4.4568  -4.1808  -4.0457
    -4.0456  -4.0155  -4.0062  -3.9471  -3.9470  -3.8777  -3.8775  -3.8759
    -3.8758  -3.7877  -3.7702  -3.7701  -3.6472  -3.6466  -3.6465  -3.5849
    -3.5848  -3.4295  -3.4292  -3.3933  -3.3932  -3.3658  -3.1284  -3.1283
    -3.0849  -3.0409  -3.0407  -2.9954  -2.9953  -2.8185  -2.8185  -2.7507
    -2.7505  -2.7058  -2.6723  -2.6722  -2.4685  -2.3718  -2.3716  -2.2850
    -2.2846  -2.2448  -2.2068  -2.1694  -2.1676  -2.1500  -2.1430  -2.1412
    -2.1255  -2.1251  -2.0816  -2.0062  -1.9910  -1.9757  -1.9754  -1.9076
    -1.8834  -1.8833  -1.8313  -1.8149  -1.8146  -1.7472  -1.7161  -1.6941
    -1.6935  -1.6930  -1.6001  -1.5998  -1.5901  -1.5900  -1.5764  -1.4991
    -1.4989  -1.4833  -1.4757  -1.4103  -1.4074  -1.4048  -1.3521  -1.3519
    -1.3144  -1.3140  -1.3004  -1.2064  -1.1285  -1.1234  -1.1230  -1.1171
    -1.1166  -1.0847  -1.0829  -1.0828  -1.0264  -1.0259  -0.9990  -0.9988
    -0.7981  -0.7195  -0.6603  -0.6107  -0.6105  -0.5993  -0.5991  -0.5736
    -0.5734  -0.4136  -0.3981  -0.3980  -0.2982  -0.2540  -0.2536  -0.2451
    -0.2334  -0.1314  -0.1312  -0.1175  -0.1172  -0.0361  -0.0249  -0.0248
     0.0056   0.0058   0.1950   0.2130   0.2309   0.2310   0.2334   0.2541
     0.2679   0.3533   0.3544   0.3814   0.4083   0.4207   0.4748   0.4748
     0.4752   0.4754   0.5917   0.5922   0.6215   0.6219   0.7143   0.7684
     0.7686   0.7777   0.7778   0.7999   0.8363   0.8409   0.9074   0.9075
     0.9673   0.9675   0.9741   1.0234   1.0237   1.0238   1.0286   1.0287
     1.0362   1.1044   1.1046   1.2648   1.2649   1.2772   1.2924   1.3027
     1.3029   1.3411   1.3809   1.3811   1.3982   1.4971   1.4972   1.5214
     1.6802   1.6849   1.6851   1.7126   1.7550   2.1420   2.1443   2.8603
     2.8634   2.8844   3.0175   3.8720   4.3292   4.3362   5.0030   5.0031
     5.1630   5.1707   5.4380   5.5875   5.9869   5.9886   6.2068   6.3671
     6.3907   6.4080

          k = 0.0000 0.4619 0.0000 ( 94022 PWs)   bands (ev):

   -22.3753 -21.3684  -6.9492  -6.9292  -6.3139  -5.7239  -5.6856  -5.6791
    -5.6532  -5.2471  -5.2470  -5.0996  -4.8803  -4.7258  -4.5939  -4.5537
    -4.5215  -4.5214  -4.3364  -4.3362  -4.3067  -4.2977  -4.2976  -4.1729
    -4.1396  -4.1395  -4.0872  -4.0870  -4.0220  -3.9946  -3.9495  -3.9495
    -3.9113  -3.6759  -3.6758  -3.6573  -3.6571  -3.6565  -3.6565  -3.4311
    -3.4309  -3.3693  -3.3692  -3.3592  -3.3591  -3.1774  -3.0736  -3.0735
    -3.0644  -3.0643  -2.9973  -2.9972  -2.9495  -2.9336  -2.9335  -2.8529
    -2.8528  -2.7249  -2.7248  -2.6715  -2.6713  -2.5774  -2.5402  -2.4944
    -2.4943  -2.4934  -2.3533  -2.2760  -2.2630  -2.2510  -2.2506  -2.1615
    -2.1611  -2.1448  -2.1406  -2.1390  -2.0263  -2.0258  -2.0036  -2.0031
    -1.8819  -1.8818  -1.8807  -1.8804  -1.8766  -1.8022  -1.7861  -1.7860
    -1.7827  -1.7524  -1.7519  -1.7517  -1.7358  -1.6941  -1.6307  -1.6093
    -1.6089  -1.6026  -1.5583  -1.5581  -1.5289  -1.4571  -1.3887  -1.3530
    -1.3529  -1.3118  -1.3116  -1.2790  -1.2713  -1.2712  -1.1431  -1.1402
    -1.1226  -1.0599  -1.0597  -1.0117  -0.8731  -0.8728  -0.8430  -0.7922
    -0.7023  -0.7022  -0.6908  -0.6715  -0.6712  -0.6654  -0.6652  -0.5752
    -0.5689  -0.5379  -0.5378  -0.5132  -0.5131  -0.4937  -0.4929  -0.4473
    -0.4379  -0.3328  -0.2957  -0.2956  -0.2270  -0.1709  -0.1354  -0.1353
     0.0041   0.0043   0.0615   0.1089   0.1696   0.1698   0.1993   0.2204
     0.2589   0.2591   0.3167   0.3174   0.3661   0.3661   0.4311   0.4740
     0.4744   0.5291   0.5294   0.5412   0.5413   0.6251   0.7258   0.7270
     0.8111   0.8238   0.8239   0.8302   0.9070   0.9313   0.9314   1.0291
     1.0296   1.0366   1.0371   1.1073   1.1291   1.1292   1.1406   1.2629
     1.2631   1.2873   1.2875   1.2950   1.2963   1.3089   1.3174   1.4882
     1.5311   1.5313   1.5385   1.5388   1.7286   1.7641   2.1500   2.1523
     2.2119   2.4466   2.5784   2.5784   2.9817   2.9820   3.1708   3.3167
     3.7908   3.7908   3.8211   3.9542   4.0719   4.0737   4.2245   4.2317
     4.4654   4.4661   5.0786   5.0968   5.6318   5.6349   5.8236   6.1250
     6.1292   6.3860

          k = 0.2000-0.1155 0.0000 ( 94010 PWs)   bands (ev):

   -22.3753 -21.3684  -7.3723  -6.9290  -6.0619  -5.7243  -5.6836  -5.6789
    -5.6127  -5.2132  -5.2131  -4.9819  -4.9465  -4.9065  -4.8628  -4.8627
    -4.6531  -4.6343  -4.4777  -4.4776  -4.4569  -4.4568  -4.1808  -4.0457
    -4.0456  -4.0155  -4.0062  -3.9471  -3.9470  -3.8777  -3.8775  -3.8759
    -3.8758  -3.7877  -3.7703  -3.7702  -3.6471  -3.6466  -3.6465  -3.5849
    -3.5848  -3.4294  -3.4293  -3.3933  -3.3932  -3.3658  -3.1284  -3.1283
    -3.0848  -3.0408  -3.0407  -2.9954  -2.9953  -2.8186  -2.8184  -2.7507
    -2.7505  -2.7058  -2.6723  -2.6722  -2.4685  -2.3717  -2.3716  -2.2849
    -2.2848  -2.2451  -2.2069  -2.1683  -2.1675  -2.1501  -2.1442  -2.1413
    -2.1254  -2.1251  -2.0816  -2.0061  -1.9910  -1.9757  -1.9754  -1.9076
    -1.8833  -1.8831  -1.8313  -1.8149  -1.8148  -1.7472  -1.7161  -1.6942
    -1.6935  -1.6932  -1.5999  -1.5998  -1.5902  -1.5900  -1.5764  -1.4991
    -1.4989  -1.4833  -1.4756  -1.4102  -1.4075  -1.4048  -1.3520  -1.3519
    -1.3143  -1.3140  -1.3004  -1.2064  -1.1284  -1.1232  -1.1230  -1.1171
    -1.1168  -1.0845  -1.0830  -1.0828  -1.0264  -1.0261  -0.9990  -0.9987
    -0.7982  -0.7196  -0.6603  -0.6107  -0.6106  -0.5993  -0.5991  -0.5735
    -0.5734  -0.4135  -0.3982  -0.3979  -0.2981  -0.2539  -0.2538  -0.2452
    -0.2333  -0.1314  -0.1312  -0.1176  -0.1173  -0.0361  -0.0249  -0.0248
     0.0056   0.0058   0.1951   0.2129   0.2309   0.2311   0.2334   0.2542
     0.2680   0.3536   0.3540   0.3814   0.4083   0.4207   0.4747   0.4748
     0.4753   0.4754   0.5918   0.5920   0.6215   0.6218   0.7144   0.7684
     0.7686   0.7777   0.7778   0.7999   0.8364   0.8409   0.9074   0.9075
     0.9674   0.9675   0.9741   1.0234   1.0237   1.0238   1.0286   1.0287
     1.0363   1.1045   1.1047   1.2649   1.2649   1.2771   1.2924   1.3027
     1.3028   1.3410   1.3809   1.3810   1.3982   1.4971   1.4972   1.5214
     1.6802   1.6849   1.6852   1.7125   1.7554   2.1427   2.1434   2.8616
     2.8625   2.8840   3.0175   3.8722   4.3321   4.3337   5.0030   5.0030
     5.1656   5.1683   5.4348   5.5831   5.9868   5.9881   6.2042   6.3710
     6.4052   6.4282

          k = 0.2000 0.1155 0.0000 ( 94010 PWs)   bands (ev):

   -22.3753 -21.3684  -7.3723  -6.9290  -6.0619  -5.7243  -5.6836  -5.6789
    -5.6128  -5.2131  -5.2131  -4.9819  -4.9465  -4.9066  -4.8627  -4.8626
    -4.6531  -4.6343  -4.4777  -4.4776  -4.4570  -4.4569  -4.1808  -4.0457
    -4.0456  -4.0156  -4.0062  -3.9471  -3.9470  -3.8777  -3.8776  -3.8759
    -3.8758  -3.7877  -3.7702  -3.7701  -3.6473  -3.6466  -3.6465  -3.5849
    -3.5848  -3.4294  -3.4293  -3.3933  -3.3931  -3.3656  -3.1283  -3.1283
    -3.0849  -3.0409  -3.0408  -2.9954  -2.9953  -2.8185  -2.8183  -2.7506
    -2.7506  -2.7058  -2.6723  -2.6723  -2.4684  -2.3717  -2.3717  -2.2847
    -2.2845  -2.2449  -2.2066  -2.1685  -2.1678  -2.1502  -2.1442  -2.1413
    -2.1255  -2.1250  -2.0816  -2.0061  -1.9907  -1.9756  -1.9754  -1.9076
    -1.8839  -1.8838  -1.8313  -1.8148  -1.8146  -1.7473  -1.7164  -1.6940
    -1.6929  -1.6927  -1.6003  -1.6001  -1.5901  -1.5899  -1.5764  -1.4990
    -1.4989  -1.4834  -1.4760  -1.4102  -1.4071  -1.4048  -1.3521  -1.3520
    -1.3144  -1.3142  -1.3004  -1.2064  -1.1284  -1.1235  -1.1233  -1.1170
    -1.1168  -1.0843  -1.0831  -1.0828  -1.0264  -1.0261  -0.9991  -0.9987
    -0.7979  -0.7194  -0.6603  -0.6106  -0.6106  -0.5994  -0.5992  -0.5736
    -0.5735  -0.4136  -0.3983  -0.3979  -0.2983  -0.2539  -0.2539  -0.2447
    -0.2337  -0.1314  -0.1313  -0.1176  -0.1173  -0.0360  -0.0249  -0.0249
     0.0058   0.0059   0.1949   0.2130   0.2310   0.2311   0.2334   0.2543
     0.2679   0.3536   0.3540   0.3814   0.4083   0.4208   0.4747   0.4749
     0.4753   0.4754   0.5919   0.5920   0.6216   0.6219   0.7143   0.7684
     0.7686   0.7777   0.7778   0.7998   0.8361   0.8409   0.9074   0.9075
     0.9674   0.9675   0.9741   1.0235   1.0237   1.0239   1.0286   1.0287
     1.0362   1.1043   1.1045   1.2647   1.2647   1.2774   1.2924   1.3028
     1.3029   1.3412   1.3811   1.3812   1.3982   1.4971   1.4972   1.5214
     1.6804   1.6849   1.6851   1.7124   1.7552   2.1429   2.1437   2.8616
     2.8623   2.8839   3.0175   3.8720   4.3323   4.3339   5.0030   5.0030
     5.1658   5.1683   5.4347   5.5831   5.9867   5.9881   6.2040   6.3710
     6.4051   6.4285

          k = 0.2000 0.3464 0.0000 ( 94016 PWs)   bands (ev):

   -22.3753 -21.3684  -7.0865  -6.9290  -5.8607  -5.8602  -5.7850  -5.7243
    -5.6830  -5.6790  -4.7840  -4.7837  -4.7496  -4.7494  -4.7097  -4.7094
    -4.7047  -4.6861  -4.5938  -4.5934  -4.2043  -4.2040  -4.2017  -4.2014
    -4.1370  -4.1149  -3.9732  -3.9441  -3.9437  -3.9143  -3.9142  -3.8516
    -3.7952  -3.7947  -3.7510  -3.7508  -3.7137  -3.6637  -3.6631  -3.6214
    -3.6212  -3.5466  -3.2732  -3.1698  -3.1695  -3.1586  -3.1355  -3.1352
    -3.1173  -3.1171  -3.0637  -3.0457  -2.8846  -2.8840  -2.8743  -2.7985
    -2.7716  -2.7216  -2.7213  -2.6972  -2.6164  -2.6162  -2.4425  -2.4422
    -2.4256  -2.3395  -2.3391  -2.3095  -2.3090  -2.3022  -2.2298  -2.2294
    -2.1449  -2.1411  -2.0763  -2.0536  -2.0531  -2.0468  -1.9838  -1.9833
    -1.9169  -1.9162  -1.9131  -1.9127  -1.7850  -1.7473  -1.7468  -1.7366
    -1.7364  -1.7305  -1.7148  -1.6873  -1.6681  -1.5939  -1.5934  -1.5653
    -1.5582  -1.4999  -1.4993  -1.4330  -1.4127  -1.3715  -1.3714  -1.3648
    -1.3182  -1.3179  -1.3126  -1.2947  -1.2945  -1.2693  -1.2570  -1.2569
    -1.1959  -1.1925  -1.0937  -1.0486  -1.0483  -0.9760  -0.9755  -0.9703
    -0.9702  -0.7898  -0.7894  -0.6443  -0.6264  -0.5858  -0.5844  -0.5834
    -0.5576  -0.5575  -0.5077  -0.5074  -0.4773  -0.4765  -0.4159  -0.3895
    -0.2746  -0.1960  -0.1956  -0.1450  -0.1445  -0.1442  -0.0881  -0.0746
     0.0521   0.0526   0.0570   0.1108   0.1114   0.1894   0.2458   0.2477
     0.2725   0.2728   0.3460   0.3533   0.3538   0.3690   0.3693   0.3911
     0.3940   0.3945   0.4066   0.5322   0.6089   0.6099   0.7476   0.7478
     0.7694   0.9161   0.9170   0.9180   0.9182   1.0246   1.0542   1.0569
     1.0669   1.0674   1.1066   1.1070   1.1327   1.1375   1.1379   1.1986
     1.1990   1.2175   1.2866   1.3128   1.3131   1.3489   1.3490   1.3933
     1.5279   1.5806   1.5811   1.6651   1.6654   1.6687   1.6722   1.8178
     1.8183   2.2567   2.3456   2.3458   2.8845   2.8849   2.9225   2.9246
     3.6123   3.6222   3.6605   3.8017   3.8631   3.8664   4.5159   4.9907
     5.0638   5.0708   5.2354   5.6326   5.7187   5.8117   5.8276   5.8465
     5.9143   6.4158

          k = 0.2000-0.5774 0.0000 ( 94052 PWs)   bands (ev):

   -22.3753 -21.3684  -6.9290  -6.5513  -6.5511  -5.9434  -5.7243  -5.6838
    -5.6791  -5.2891  -5.2888  -4.7800  -4.7739  -4.6450  -4.6113  -4.5017
    -4.5013  -4.3938  -4.3934  -4.2672  -4.2671  -4.2664  -4.2292  -4.2289
    -4.1940  -4.1933  -4.0706  -4.0602  -4.0599  -4.0167  -4.0163  -3.9136
    -3.8200  -3.8037  -3.7369  -3.6441  -3.6439  -3.6257  -3.6255  -3.6102
    -3.4953  -3.4950  -3.4024  -3.4020  -3.2280  -3.2198  -3.1595  -3.0587
    -3.0585  -3.0077  -3.0075  -2.8993  -2.8497  -2.8004  -2.8000  -2.7794
    -2.7349  -2.7346  -2.7039  -2.5977  -2.5977  -2.5677  -2.5673  -2.5586
    -2.5584  -2.5582  -2.4847  -2.4842  -2.3527  -2.3292  -2.2805  -2.2800
    -2.1624  -2.1457  -2.1412  -2.1229  -2.1220  -2.1218  -2.0763  -2.0328
    -2.0327  -1.9436  -1.9194  -1.9182  -1.9131  -1.8796  -1.8467  -1.7996
    -1.7984  -1.7583  -1.6996  -1.6993  -1.6794  -1.6787  -1.5693  -1.5223
    -1.5219  -1.4746  -1.4743  -1.4333  -1.4330  -1.4137  -1.4136  -1.3847
    -1.3842  -1.3328  -1.3324  -1.3012  -1.2849  -1.2847  -1.2831  -1.2827
    -1.2623  -1.2321  -1.1655  -1.1620  -1.1619  -0.9546  -0.9468  -0.8536
    -0.8531  -0.7459  -0.7337  -0.7327  -0.7047  -0.6466  -0.6413  -0.6411
    -0.6177  -0.6170  -0.5327  -0.4981  -0.4977  -0.4296  -0.4080  -0.4077
    -0.3463  -0.3453  -0.2941  -0.1533  -0.0870  -0.0868  -0.0666  -0.0665
     0.0265   0.0333   0.0339   0.0555   0.0694   0.0698   0.1129   0.1131
     0.2313   0.2318   0.2420   0.3000   0.3005   0.3199   0.3303   0.3442
     0.3447   0.5071   0.5579   0.5820   0.6651   0.6653   0.7483   0.7488
     0.8348   0.8763   0.8828   0.8830   0.9901   0.9905   1.0622   1.0935
     1.1023   1.1137   1.1139   1.1582   1.1585   1.1936   1.2705   1.2707
     1.2948   1.3236   1.3239   1.3293   1.3297   1.3875   1.5290   1.5355
     1.5358   1.5364   1.5367   1.6120   1.6780   1.7259   1.8667   2.6854
     2.6854   2.9269   2.9300   2.9595   3.0909   3.0911   3.0991   3.5380
     3.6982   3.6984   4.1601   4.1899   4.1903   4.3049   4.3056   4.5195
     4.6029   4.6814   4.7041   5.0457   5.1423   5.1428   5.6192   5.7813
     5.7831   5.9894

          k = 0.2000-0.3464 0.0000 ( 94016 PWs)   bands (ev):

   -22.3753 -21.3684  -7.0865  -6.9290  -5.8608  -5.8601  -5.7850  -5.7243
    -5.6830  -5.6790  -4.7839  -4.7836  -4.7497  -4.7494  -4.7097  -4.7096
    -4.7047  -4.6860  -4.5938  -4.5934  -4.2041  -4.2038  -4.2017  -4.2015
    -4.1368  -4.1150  -3.9733  -3.9441  -3.9436  -3.9143  -3.9142  -3.8519
    -3.7953  -3.7948  -3.7509  -3.7508  -3.7137  -3.6637  -3.6630  -3.6214
    -3.6213  -3.5464  -3.2733  -3.1699  -3.1695  -3.1587  -3.1355  -3.1353
    -3.1173  -3.1171  -3.0637  -3.0456  -2.8846  -2.8841  -2.8743  -2.7985
    -2.7716  -2.7216  -2.7214  -2.6971  -2.6163  -2.6163  -2.4425  -2.4424
    -2.4257  -2.3397  -2.3394  -2.3095  -2.3089  -2.3024  -2.2298  -2.2294
    -2.1449  -2.1411  -2.0763  -2.0534  -2.0530  -2.0466  -1.9836  -1.9832
    -1.9170  -1.9163  -1.9129  -1.9127  -1.7853  -1.7473  -1.7470  -1.7366
    -1.7364  -1.7306  -1.7149  -1.6872  -1.6681  -1.5936  -1.5933  -1.5652
    -1.5581  -1.4999  -1.4995  -1.4331  -1.4126  -1.3713  -1.3712  -1.3648
    -1.3180  -1.3180  -1.3126  -1.2949  -1.2946  -1.2693  -1.2570  -1.2568
    -1.1959  -1.1924  -1.0937  -1.0487  -1.0482  -0.9759  -0.9753  -0.9703
    -0.9701  -0.7898  -0.7895  -0.6440  -0.6264  -0.5858  -0.5842  -0.5832
    -0.5577  -0.5576  -0.5079  -0.5075  -0.4772  -0.4766  -0.4159  -0.3898
    -0.2743  -0.1960  -0.1956  -0.1450  -0.1446  -0.1441  -0.0880  -0.0745
     0.0521   0.0526   0.0571   0.1108   0.1114   0.1895   0.2457   0.2477
     0.2725   0.2728   0.3458   0.3534   0.3538   0.3689   0.3692   0.3910
     0.3942   0.3944   0.4065   0.5324   0.6089   0.6098   0.7476   0.7480
     0.7694   0.9161   0.9170   0.9180   0.9182   1.0246   1.0543   1.0567
     1.0669   1.0674   1.1066   1.1070   1.1329   1.1376   1.1381   1.1987
     1.1991   1.2171   1.2867   1.3129   1.3132   1.3489   1.3490   1.3934
     1.5276   1.5804   1.5808   1.6651   1.6654   1.6687   1.6720   1.8179
     1.8183   2.2568   2.3457   2.3459   2.8844   2.8847   2.9225   2.9245
     3.6124   3.6222   3.6607   3.8017   3.8631   3.8663   4.5159   4.9907
     5.0636   5.0707   5.2355   5.6326   5.7187   5.8117   5.8276   5.8463
     5.9145   6.4149

          k = 0.4000-0.2309 0.0000 ( 94022 PWs)   bands (ev):

   -22.3753 -21.3684  -6.9492  -6.9286  -6.3139  -5.7250  -5.6854  -5.6790
    -5.6533  -5.2471  -5.2470  -5.0996  -4.8803  -4.7258  -4.5939  -4.5537
    -4.5215  -4.5214  -4.3363  -4.3362  -4.3067  -4.2977  -4.2976  -4.1728
    -4.1396  -4.1395  -4.0871  -4.0870  -4.0220  -3.9946  -3.9495  -3.9495
    -3.9113  -3.6759  -3.6758  -3.6573  -3.6572  -3.6565  -3.6564  -3.4311
    -3.4309  -3.3693  -3.3692  -3.3592  -3.3591  -3.1774  -3.0736  -3.0735
    -3.0644  -3.0643  -2.9973  -2.9972  -2.9496  -2.9335  -2.9334  -2.8529
    -2.8528  -2.7249  -2.7249  -2.6715  -2.6713  -2.5775  -2.5403  -2.4944
    -2.4943  -2.4935  -2.3533  -2.2760  -2.2633  -2.2508  -2.2506  -2.1620
    -2.1609  -2.1453  -2.1413  -2.1377  -2.0260  -2.0258  -2.0036  -2.0033
    -1.8819  -1.8817  -1.8808  -1.8805  -1.8767  -1.8021  -1.7861  -1.7860
    -1.7826  -1.7524  -1.7521  -1.7518  -1.7358  -1.6941  -1.6307  -1.6093
    -1.6091  -1.6026  -1.5584  -1.5582  -1.5288  -1.4570  -1.3887  -1.3529
    -1.3528  -1.3118  -1.3117  -1.2790  -1.2711  -1.2711  -1.1431  -1.1402
    -1.1225  -1.0598  -1.0597  -1.0117  -0.8730  -0.8728  -0.8430  -0.7922
    -0.7024  -0.7021  -0.6907  -0.6716  -0.6714  -0.6654  -0.6652  -0.5752
    -0.5690  -0.5380  -0.5377  -0.5133  -0.5130  -0.4933  -0.4932  -0.4474
    -0.4378  -0.3328  -0.2958  -0.2955  -0.2270  -0.1708  -0.1354  -0.1353
     0.0042   0.0043   0.0616   0.1090   0.1696   0.1699   0.1994   0.2204
     0.2589   0.2591   0.3169   0.3172   0.3661   0.3661   0.4311   0.4741
     0.4742   0.5291   0.5292   0.5412   0.5413   0.6252   0.7262   0.7265
     0.8111   0.8238   0.8240   0.8301   0.9071   0.9313   0.9313   1.0292
     1.0295   1.0367   1.0370   1.1072   1.1292   1.1293   1.1406   1.2629
     1.2631   1.2873   1.2875   1.2948   1.2963   1.3090   1.3173   1.4882
     1.5311   1.5313   1.5385   1.5387   1.7286   1.7641   2.1507   2.1514
     2.2121   2.4468   2.5784   2.5784   2.9817   2.9820   3.1711   3.3167
     3.7907   3.7908   3.8209   3.9547   4.0724   4.0729   4.2275   4.2292
     4.4656   4.4658   5.0771   5.0966   5.6316   5.6338   5.8174   6.1204
     6.1269   6.4120

          k = 0.4000-0.0000 0.0000 ( 94016 PWs)   bands (ev):

   -22.3753 -21.3684  -7.0865  -6.9286  -5.8606  -5.8603  -5.7850  -5.7249
    -5.6830  -5.6789  -4.7840  -4.7837  -4.7497  -4.7494  -4.7097  -4.7095
    -4.7047  -4.6861  -4.5938  -4.5934  -4.2043  -4.2039  -4.2017  -4.2014
    -4.1369  -4.1149  -3.9732  -3.9440  -3.9437  -3.9143  -3.9142  -3.8517
    -3.7951  -3.7949  -3.7510  -3.7508  -3.7137  -3.6636  -3.6632  -3.6214
    -3.6211  -3.5466  -3.2732  -3.1698  -3.1696  -3.1586  -3.1355  -3.1352
    -3.1172  -3.1172  -3.0637  -3.0457  -2.8846  -2.8841  -2.8743  -2.7985
    -2.7716  -2.7215  -2.7214  -2.6972  -2.6164  -2.6162  -2.4425  -2.4422
    -2.4256  -2.3396  -2.3393  -2.3095  -2.3089  -2.3023  -2.2298  -2.2294
    -2.1450  -2.1414  -2.0763  -2.0536  -2.0530  -2.0468  -1.9837  -1.9833
    -1.9170  -1.9162  -1.9132  -1.9127  -1.7851  -1.7474  -1.7468  -1.7368
    -1.7363  -1.7305  -1.7148  -1.6872  -1.6682  -1.5938  -1.5933  -1.5653
    -1.5581  -1.5000  -1.4993  -1.4330  -1.4127  -1.3716  -1.3712  -1.3648
    -1.3182  -1.3178  -1.3126  -1.2950  -1.2943  -1.2693  -1.2573  -1.2567
    -1.1959  -1.1924  -1.0937  -1.0486  -1.0484  -0.9761  -0.9753  -0.9703
    -0.9702  -0.7898  -0.7894  -0.6442  -0.6264  -0.5857  -0.5840  -0.5837
    -0.5577  -0.5575  -0.5078  -0.5074  -0.4771  -0.4768  -0.4160  -0.3895
    -0.2745  -0.1961  -0.1956  -0.1450  -0.1446  -0.1440  -0.0881  -0.0746
     0.0521   0.0527   0.0571   0.1110   0.1112   0.1894   0.2465   0.2471
     0.2726   0.2727   0.3459   0.3535   0.3537   0.3689   0.3692   0.3911
     0.3941   0.3945   0.4066   0.5322   0.6093   0.6095   0.7476   0.7478
     0.7694   0.9164   0.9167   0.9180   0.9182   1.0246   1.0542   1.0568
     1.0669   1.0674   1.1066   1.1070   1.1328   1.1376   1.1379   1.1986
     1.1990   1.2174   1.2866   1.3128   1.3132   1.3489   1.3490   1.3933
     1.5278   1.5806   1.5809   1.6651   1.6654   1.6702   1.6707   1.8178
     1.8183   2.2569   2.3456   2.3459   2.8845   2.8848   2.9233   2.9238
     3.6146   3.6191   3.6617   3.8017   3.8643   3.8651   4.5158   4.9907
     5.0675   5.0689   5.2354   5.6249   5.7192   5.8039   5.8275   5.8448
     5.8492   5.9254

          k = 0.4000 0.2309 0.0000 ( 94022 PWs)   bands (ev):

   -22.3753 -21.3684  -6.9492  -6.9286  -6.3140  -5.7250  -5.6854  -5.6790
    -5.6533  -5.2470  -5.2470  -5.0996  -4.8804  -4.7258  -4.5939  -4.5537
    -4.5214  -4.5214  -4.3363  -4.3363  -4.3066  -4.2978  -4.2977  -4.1729
    -4.1395  -4.1395  -4.0872  -4.0871  -4.0220  -3.9947  -3.9495  -3.9494
    -3.9114  -3.6758  -3.6758  -3.6572  -3.6571  -3.6565  -3.6564  -3.4310
    -3.4309  -3.3692  -3.3692  -3.3591  -3.3590  -3.1774  -3.0736  -3.0736
    -3.0644  -3.0643  -2.9973  -2.9972  -2.9493  -2.9336  -2.9335  -2.8529
    -2.8529  -2.7248  -2.7248  -2.6714  -2.6713  -2.5773  -2.5399  -2.4942
    -2.4941  -2.4935  -2.3533  -2.2762  -2.2632  -2.2509  -2.2507  -2.1620
    -2.1611  -2.1452  -2.1413  -2.1375  -2.0265  -2.0263  -2.0037  -2.0033
    -1.8819  -1.8817  -1.8808  -1.8805  -1.8765  -1.8021  -1.7860  -1.7860
    -1.7829  -1.7523  -1.7521  -1.7517  -1.7357  -1.6941  -1.6308  -1.6091
    -1.6090  -1.6025  -1.5581  -1.5580  -1.5291  -1.4573  -1.3887  -1.3532
    -1.3531  -1.3116  -1.3115  -1.2791  -1.2715  -1.2714  -1.1431  -1.1403
    -1.1225  -1.0599  -1.0598  -1.0117  -0.8730  -0.8729  -0.8428  -0.7922
    -0.7025  -0.7022  -0.6908  -0.6712  -0.6711  -0.6654  -0.6653  -0.5752
    -0.5688  -0.5381  -0.5378  -0.5134  -0.5130  -0.4936  -0.4935  -0.4471
    -0.4379  -0.3330  -0.2959  -0.2956  -0.2270  -0.1709  -0.1355  -0.1354
     0.0042   0.0043   0.0618   0.1092   0.1697   0.1698   0.1992   0.2203
     0.2591   0.2592   0.3170   0.3172   0.3662   0.3662   0.4311   0.4742
     0.4743   0.5292   0.5293   0.5412   0.5413   0.6250   0.7262   0.7264
     0.8110   0.8237   0.8239   0.8301   0.9070   0.9313   0.9314   1.0291
     1.0294   1.0367   1.0370   1.1074   1.1290   1.1291   1.1406   1.2629
     1.2631   1.2873   1.2875   1.2952   1.2965   1.3089   1.3176   1.4882
     1.5313   1.5314   1.5388   1.5389   1.7286   1.7641   2.1510   2.1517
     2.2118   2.4466   2.5784   2.5784   2.9817   2.9819   3.1709   3.3169
     3.7907   3.7908   3.8213   3.9545   4.0724   4.0727   4.2277   4.2294
     4.4657   4.4658   5.0767   5.0970   5.6315   5.6338   5.8175   6.1203
     6.1268   6.4120

          k = 0.4000-0.6928 0.0000 ( 94052 PWs)   bands (ev):

   -22.3753 -21.3684  -6.9286  -6.5515  -6.5509  -5.9434  -5.7250  -5.6837
    -5.6790  -5.2891  -5.2888  -4.7801  -4.7739  -4.6450  -4.6113  -4.5016
    -4.5013  -4.3939  -4.3934  -4.2674  -4.2670  -4.2663  -4.2292  -4.2288
    -4.1943  -4.1931  -4.0708  -4.0602  -4.0599  -4.0167  -4.0164  -3.9137
    -3.8200  -3.8036  -3.7368  -3.6441  -3.6440  -3.6257  -3.6255  -3.6101
    -3.4952  -3.4951  -3.4022  -3.4020  -3.2281  -3.2197  -3.1595  -3.0586
    -3.0586  -3.0078  -3.0075  -2.8995  -2.8497  -2.8004  -2.8001  -2.7794
    -2.7347  -2.7344  -2.7039  -2.5978  -2.5975  -2.5676  -2.5672  -2.5585
    -2.5584  -2.5582  -2.4846  -2.4844  -2.3528  -2.3292  -2.2803  -2.2801
    -2.1624  -2.1460  -2.1414  -2.1227  -2.1223  -2.1212  -2.0764  -2.0330
    -2.0329  -1.9439  -1.9192  -1.9183  -1.9130  -1.8798  -1.8468  -1.7994
    -1.7985  -1.7585  -1.6993  -1.6991  -1.6795  -1.6787  -1.5695  -1.5221
    -1.5220  -1.4744  -1.4742  -1.4333  -1.4332  -1.4138  -1.4135  -1.3847
    -1.3845  -1.3331  -1.3324  -1.3007  -1.2850  -1.2848  -1.2831  -1.2827
    -1.2625  -1.2319  -1.1655  -1.1624  -1.1617  -0.9546  -0.9470  -0.8535
    -0.8531  -0.7460  -0.7336  -0.7328  -0.7045  -0.6469  -0.6413  -0.6412
    -0.6176  -0.6167  -0.5327  -0.4981  -0.4979  -0.4295  -0.4088  -0.4068
    -0.3461  -0.3455  -0.2944  -0.1533  -0.0873  -0.0865  -0.0667  -0.0663
     0.0265   0.0334   0.0340   0.0554   0.0688   0.0706   0.1127   0.1132
     0.2310   0.2321   0.2421   0.3001   0.3004   0.3200   0.3303   0.3440
     0.3448   0.5072   0.5578   0.5818   0.6646   0.6658   0.7483   0.7489
     0.8349   0.8762   0.8827   0.8831   0.9900   0.9906   1.0621   1.0933
     1.1024   1.1135   1.1139   1.1579   1.1589   1.1937   1.2705   1.2708
     1.2945   1.3234   1.3241   1.3285   1.3307   1.3875   1.5290   1.5357
     1.5359   1.5366   1.5368   1.6120   1.6781   1.7259   1.8667   2.6854
     2.6854   2.9235   2.9338   2.9595   3.0910   3.0911   3.0990   3.5381
     3.6983   3.6983   4.1604   4.1890   4.1908   4.3052   4.3052   4.5200
     4.6030   4.6724   4.7129   5.0470   5.1420   5.1428   5.6268   5.7810
     5.7814   5.9635

          k = 0.4000-0.4619 0.0000 ( 94052 PWs)   bands (ev):

   -22.3753 -21.3684  -6.9286  -6.5514  -6.5509  -5.9435  -5.7250  -5.6837
    -5.6790  -5.2891  -5.2888  -4.7800  -4.7739  -4.6450  -4.6114  -4.5017
    -4.5014  -4.3938  -4.3934  -4.2673  -4.2670  -4.2664  -4.2292  -4.2289
    -4.1942  -4.1931  -4.0706  -4.0602  -4.0599  -4.0167  -4.0163  -3.9136
    -3.8200  -3.8037  -3.7370  -3.6441  -3.6439  -3.6257  -3.6255  -3.6102
    -3.4952  -3.4951  -3.4023  -3.4021  -3.2279  -3.2198  -3.1595  -3.0587
    -3.0586  -3.0077  -3.0076  -2.8993  -2.8497  -2.8003  -2.8001  -2.7795
    -2.7350  -2.7347  -2.7039  -2.5978  -2.5976  -2.5676  -2.5673  -2.5585
    -2.5583  -2.5582  -2.4846  -2.4842  -2.3528  -2.3292  -2.2804  -2.2801
    -2.1623  -2.1459  -2.1414  -2.1230  -2.1222  -2.1212  -2.0764  -2.0327
    -2.0326  -1.9438  -1.9193  -1.9183  -1.9131  -1.8797  -1.8469  -1.7996
    -1.7984  -1.7582  -1.6996  -1.6995  -1.6795  -1.6785  -1.5692  -1.5223
    -1.5220  -1.4746  -1.4744  -1.4332  -1.4330  -1.4138  -1.4135  -1.3846
    -1.3842  -1.3329  -1.3321  -1.3014  -1.2848  -1.2847  -1.2831  -1.2826
    -1.2622  -1.2321  -1.1655  -1.1623  -1.1616  -0.9546  -0.9467  -0.8535
    -0.8531  -0.7460  -0.7335  -0.7328  -0.7048  -0.6466  -0.6413  -0.6411
    -0.6180  -0.6168  -0.5328  -0.4980  -0.4977  -0.4297  -0.4088  -0.4068
    -0.3462  -0.3452  -0.2941  -0.1533  -0.0873  -0.0865  -0.0668  -0.0664
     0.0265   0.0333   0.0340   0.0555   0.0688   0.0705   0.1127   0.1131
     0.2310   0.2320   0.2420   0.3001   0.3005   0.3198   0.3303   0.3442
     0.3449   0.5071   0.5580   0.5819   0.6646   0.6658   0.7482   0.7488
     0.8348   0.8762   0.8827   0.8830   0.9900   0.9906   1.0621   1.0936
     1.1023   1.1136   1.1140   1.1578   1.1588   1.1935   1.2704   1.2708
     1.2948   1.3234   1.3241   1.3284   1.3307   1.3875   1.5290   1.5355
     1.5358   1.5365   1.5366   1.6120   1.6779   1.7259   1.8667   2.6854
     2.6854   2.9236   2.9340   2.9593   3.0909   3.0911   3.0992   3.5379
     3.6982   3.6983   4.1603   4.1890   4.1909   4.3051   4.3053   4.5193
     4.6028   4.6726   4.7132   5.0468   5.1422   5.1429   5.6266   5.7812
     5.7831   5.9638

     the Fermi energy is     1.3017 ev

!    total energy              =  -27858.27858588 Ry

     total all-electron energy =  -1327020.501894 Ry
     estimated scf accuracy    <       0.00000057 Ry
     smearing contrib. (-TS)   =       0.00228243 Ry
     internal energy E=F+TS    =  -27858.28086831 Ry

     The total energy is F=E-TS. E is the sum of the following terms:
     one-electron contribution =  -29205.68819780 Ry
     hartree contribution      =   14900.52283810 Ry
     xc contribution           =    -910.05918984 Ry
     ewald contribution        =   12857.73603585 Ry
     one-center paw contrib.   =  -25500.79235462 Ry

     convergence has been achieved in  21 iterations

     negative rho (up, down):  1.301E-02 0.000E+00

     Forces acting on atoms (cartesian axes, Ry/au):

     atom    1 type  1   force =    -0.00003794   -0.00000832   -0.00333658
     atom    2 type  1   force =     0.00004036    0.00000418   -0.00342437
     atom    3 type  1   force =    -0.00002063   -0.00001269   -0.00342674
     atom    4 type  1   force =     0.00001988    0.00000172   -0.00341353
     atom    5 type  1   force =    -0.00000949   -0.00003343   -0.00341562
     atom    6 type  1   force =    -0.00003155   -0.00003562   -0.00343034
     atom    7 type  1   force =    -0.00002870   -0.00000764   -0.00340647
     atom    8 type  1   force =    -0.00000601   -0.00001524   -0.00344088
     atom    9 type  1   force =     0.00002400    0.00002729   -0.00346664
     atom   10 type  1   force =    -0.00005443   -0.00000956    0.00309772
     atom   11 type  1   force =     0.00002287   -0.00005308    0.00307877
     atom   12 type  1   force =     0.00007538   -0.00005077    0.00303260
     atom   13 type  1   force =    -0.00003211    0.00003490    0.00304593
     atom   14 type  1   force =     0.00002485   -0.00000090    0.00304250
     atom   15 type  1   force =     0.00004194   -0.00002155    0.00314723
     atom   16 type  1   force =    -0.00001490    0.00008344    0.00298574
     atom   17 type  1   force =     0.00001525    0.00002205    0.00316717
     atom   18 type  1   force =     0.00003000    0.00000793    0.00311949
     atom   19 type  1   force =    -0.00002247   -0.00000207    0.00016152
     atom   20 type  1   force =    -0.00007487   -0.00004686    0.00023457
     atom   21 type  1   force =     0.00008391   -0.00001119    0.00032569
     atom   22 type  1   force =    -0.00006306   -0.00002362    0.00005344
     atom   23 type  1   force =     0.00000634    0.00001145    0.00028808
     atom   24 type  1   force =     0.00004476   -0.00002930    0.00019224
     atom   25 type  1   force =     0.00003893    0.00004850    0.00018548
     atom   26 type  1   force =    -0.00004250   -0.00001802    0.00016371
     atom   27 type  1   force =     0.00001427   -0.00003249    0.00006342
     atom   28 type  1   force =    -0.00004795    0.00000763    0.00050419
     atom   29 type  1   force =    -0.00006108   -0.00010453    0.00059012
     atom   30 type  1   force =     0.00002950   -0.00015364    0.00063334
     atom   31 type  1   force =    -0.00007726   -0.00001037    0.00062179
     atom   32 type  1   force =     0.00004159    0.00004248    0.00086414
     atom   33 type  1   force =     0.00009127    0.00001514    0.00057613
     atom   34 type  1   force =    -0.00010809    0.00006420    0.00058748
     atom   35 type  1   force =     0.00007009    0.00006242    0.00052699
     atom   36 type  1   force =     0.00000803    0.00000687    0.00046041
     atom   37 type  2   force =     0.00006223    0.00034502   -0.00173352
     atom   38 type  3   force =    -0.00021193   -0.00004021   -0.00114198
     atom   39 type  3   force =     0.00015949   -0.00006410   -0.00111321

     Total force =     0.003089     Total SCF correction =     0.001340
     SCF correction compared to forces is large: reduce conv_thr to get better values

     negative rho (up, down):  1.301E-02 0.000E+00

     negative rho (up, down):  1.301E-02 0.000E+00

     negative rho (up, down):  1.301E-02 0.000E+00

     negative rho (up, down):  1.301E-02 0.000E+00

     negative rho (up, down):  1.301E-02 0.000E+00

     negative rho (up, down):  1.301E-02 0.000E+00

     negative rho (up, down):  1.301E-02 0.000E+00

     negative rho (up, down):  1.301E-02 0.000E+00

     negative rho (up, down):  1.301E-02 0.000E+00

     negative rho (up, down):  1.301E-02 0.000E+00

     negative rho (up, down):  1.301E-02 0.000E+00

     negative rho (up, down):  1.301E-02 0.000E+00

     negative rho (up, down):  1.301E-02 0.000E+00

     negative rho (up, down):  1.301E-02 0.000E+00

     negative rho (up, down):  1.301E-02 0.000E+00

     negative rho (up, down):  1.301E-02 0.000E+00

     negative rho (up, down):  1.301E-02 0.000E+00

     negative rho (up, down):  1.301E-02 0.000E+00

     negative rho (up, down):  1.301E-02 0.000E+00

     negative rho (up, down):  1.301E-02 0.000E+00

     negative rho (up, down):  1.301E-02 0.000E+00

     negative rho (up, down):  1.301E-02 0.000E+00

     negative rho (up, down):  1.301E-02 0.000E+00

     negative rho (up, down):  1.301E-02 0.000E+00

     negative rho (up, down):  1.301E-02 0.000E+00

     negative rho (up, down):  1.301E-02 0.000E+00

     negative rho (up, down):  1.301E-02 0.000E+00

     negative rho (up, down):  1.301E-02 0.000E+00

     negative rho (up, down):  1.301E-02 0.000E+00

     negative rho (up, down):  1.301E-02 0.000E+00

     negative rho (up, down):  1.301E-02 0.000E+00

     negative rho (up, down):  1.301E-02 0.000E+00

     negative rho (up, down):  1.301E-02 0.000E+00

     negative rho (up, down):  1.301E-02 0.000E+00
 BEEFens 2000 ensemble energies
             -0.608972570627976E+02
             -0.361842465787137E+01
             -0.158963304355174E+02
              0.431257065616902E+02
             -0.222233497535447E+02
             -0.206256739550175E+02
             -0.353724127223328E+02
             -0.868549719677921E+02
             -0.467571202508206E+02
             -0.475423803908626E+02
             -0.370617560887823E+02
              0.226267461543451E+01
              0.405042558253427E+01
              0.769674497543562E+01
              0.266428474510764E+01
              0.476831584723527E+02
             -0.210042973773067E+02
             -0.231632755415900E+02
              0.193353359068262E+02
             -0.112872648583679E+03
              0.538605016423537E+02
             -0.291186216640997E+02
             -0.336197562412187E+01
             -0.114874325952250E+02
             -0.889571431644970E+01
             -0.469884094214217E+01
              0.886766794558602E+02
             -0.187143735163259E+02
             -0.905659833318509E+01
             -0.520271939561507E+02
              0.819645179203826E+02
             -0.188559736619335E+02
             -0.376543676296045E+02
              0.250640736184362E+02
             -0.286670691295836E+01
              0.164204816772801E+02
             -0.490757333174025E+01
              0.108931152196723E+02
              0.288708670219705E+02
             -0.103755166525424E+03
              0.560784910211529E+02
              0.142755707595497E+02
             -0.169521186787142E+01
             -0.363125884705114E+02
              0.123644148479925E+02
             -0.147173787360074E+02
              0.399902053616669E+02
              0.366633344988765E+02
             -0.309849826501545E+02
             -0.276169421539357E+02
             -0.329350848096570E+02
             -0.353481010305365E+02
              0.136302655526928E+02
             -0.493040847945031E+02
              0.115987945783368E+02
              0.625610424535808E+02
              0.637581408025559E+02
              0.357634890596155E+02
              0.155107823195790E+02
              0.271294303223216E+02
              0.895269267906592E+02
              0.214106727702507E+02
             -0.551067764538534E+02
             -0.158020899429906E+02
             -0.236823020750996E+02
              0.632432746389672E+02
             -0.777357908791886E+02
             -0.674582375777222E+02
             -0.260132903995646E+02
             -0.644641996418818E+01
             -0.473175791065645E+02
              0.271900964974946E+02
              0.805890034893321E+01
              0.870805821973335E+01
             -0.398940271775050E+02
             -0.348239832398481E+02
             -0.543846141803649E+02
              0.392371033321468E+02
             -0.297068685087005E+02
              0.266052730418490E+02
             -0.716524073527243E+01
             -0.319590754852838E+02
             -0.579289185208776E+02
             -0.177386003563282E+02
             -0.908174578367573E+01
             -0.125651000608708E+02
              0.414032755319260E+02
              0.685149150844255E+02
             -0.387129641893952E+02
             -0.798143119869847E+02
             -0.220612202525078E+02
              0.112017865269190E+03
             -0.594807205274335E+02
              0.357614516260354E+02
             -0.958428230203151E+01
             -0.666387648184079E+02
              0.255679411469857E+02
              0.400219827528118E+02
             -0.199327382423400E+02
              0.402025042897861E+02
             -0.297473507656227E+02
             -0.479651005323452E+02
              0.869005710394986E+02
              0.455741511205459E+02
              0.338393046031919E+02
              0.146925043867952E+02
              0.206012739654453E+02
              0.860145097323412E+02
             -0.257978803767992E+02
              0.790677918197487E+01
             -0.143028422136107E+03
              0.182410277994421E+02
             -0.719343303944004E+02
              0.151609465675139E+02
              0.205427812688508E+02
             -0.334012927759477E+02
             -0.559750145358115E+02
              0.658587742092266E+01
             -0.305295160510893E+02
              0.308898320928965E+02
             -0.531975766830750E+02
              0.173916499815812E+01
             -0.358490081639025E+02
             -0.423945743177865E+01
             -0.110320751329311E+01
              0.181183428811790E+02
              0.143254207612222E+01
             -0.656856609864815E+01
              0.592501372951205E+02
              0.912054752068187E+02
              0.485989314947707E+02
              0.834513099361524E+02
             -0.115852699157180E+02
              0.143624961469249E+02
              0.543606133953469E+02
             -0.111989921750338E+02
             -0.739038059752581E+02
             -0.385359126087060E+02
             -0.523942296799391E+02
             -0.278030474156876E+02
              0.328431563357411E+02
             -0.117262069067646E+03
             -0.188071670789661E+02
              0.415498587873478E+02
             -0.387963933364198E+02
             -0.367307865159344E+02
              0.545794867009325E+02
              0.402722150296823E+02
             -0.355616925219987E+02
              0.137622262036932E+02
             -0.274237830695356E+02
              0.344681183463584E+02
              0.449600260885961E+01
              0.212277690840980E+02
             -0.888841657849554E+02
             -0.482481042727054E+02
             -0.100052599585553E+02
              0.322229588239336E+01
             -0.368191862768413E+02
              0.106450354019348E+03
             -0.232201689394317E+02
             -0.400445609512727E+02
              0.390656888506389E+02
             -0.496434874702741E+02
             -0.364330587870108E+02
              0.325922506679427E+02
              0.124676849596129E+02
              0.165033148151476E+02
              0.116567487142120E+02
             -0.133276567345953E+02
              0.226476584596011E+02
              0.592842834649963E+02
             -0.313232553563892E+02
              0.162999617521297E+02
              0.938473235429634E+02
              0.342016453976536E+02
             -0.733486655526485E+01
             -0.189027521856824E+02
              0.153969836262946E+03
             -0.164394551849917E+02
              0.364627677888786E+02
              0.194983813304502E+02
              0.363630532989194E+02
              0.895881684929028E+02
              0.545061661013392E+02
             -0.240285988706650E+01
              0.228306281401710E+02
              0.486547286772767E+02
              0.365015585549849E+02
             -0.527706458746220E+02
              0.939943888756887E+02
             -0.829403454291926E+02
             -0.199277696509836E+02
              0.585445327355971E+02
              0.671416882539186E+01
              0.789205070567436E+01
              0.342641388939844E+02
              0.300509164044594E+02
              0.355207907191266E+02
             -0.640258038739661E+02
              0.290526029290777E+01
             -0.298782150961562E+02
             -0.875768473244737E+01
             -0.144295212648501E+01
             -0.723193839114057E+01
             -0.416607652760064E+01
              0.863036037740392E+02
             -0.101539752695340E+02
             -0.277682284402518E+02
             -0.499445351974792E+01
              0.140239287907144E+02
             -0.566176475939063E+02
             -0.408332996734579E+02
             -0.383616465164627E+02
             -0.632719284490032E+02
             -0.170150295777764E+02
             -0.449202675783508E+02
              0.164262030114196E+02
             -0.243224854358077E+01
             -0.104772270452592E+02
             -0.938378919488588E+01
              0.812190169208765E+01
             -0.244551734087843E+02
              0.692106698740090E+02
             -0.810317051959665E+02
             -0.141600030485857E+02
             -0.175020779851418E+02
              0.182933606523636E+02
              0.214639827582303E+02
             -0.465529982624021E+02
             -0.202797732432164E+02
              0.442661771330632E+02
             -0.277545216485461E+02
              0.187492240569388E+02
              0.384857184936157E+02
             -0.322670532754080E+01
              0.114609903207250E+03
             -0.231400215165304E+02
             -0.342638418996878E+02
              0.582382069172837E+01
             -0.229066480768143E+02
              0.529377151761217E+02
             -0.338322055958569E+02
              0.106737972493347E+02
              0.643560276242010E+02
             -0.127115092976453E+02
              0.120733543515403E+03
              0.126398107267453E+03
             -0.652743845960806E+02
              0.592908517008394E+02
              0.166695244226163E+02
             -0.519790164512677E+02
              0.217280791892803E+02
              0.354910692851375E+02
              0.363850651215154E+02
              0.136904686832020E+01
              0.159976433461750E+02
              0.698515424259625E+02
             -0.247855517827498E+02
              0.182171074550159E+02
              0.742599923041552E+02
             -0.374235394950217E+02
             -0.129816056634779E+02
              0.510440367967408E+02
              0.298465110948164E+02
              0.783556520631329E+02
              0.223513208193641E+02
              0.624633566044582E+01
              0.281461191828404E+02
              0.384861646543059E+02
             -0.473215252034829E+02
              0.328853166103590E+01
              0.129837783147605E+02
              0.113834659603378E+02
              0.221300103793412E+02
             -0.577234551582797E+02
              0.367691236573495E+02
             -0.445789005587527E+02
             -0.348648345930462E+02
              0.178372715948943E+02
             -0.182510337708404E+02
              0.556850329246925E+02
             -0.257894155633301E+02
              0.267729180463900E+02
              0.369563267237842E+02
              0.832683070048956E+02
              0.577246761058601E+02
              0.463828296757254E+02
             -0.106804507381771E+02
             -0.389769080515066E+01
             -0.333618654993290E+02
              0.753540987479482E+02
              0.800399023749916E+02
              0.363123543841269E+02
             -0.192649058099312E+02
              0.513962120741884E+02
             -0.163849915195260E+02
              0.216272902239853E+02
              0.616852020162447E+02
              0.213310495034278E+01
             -0.104862380544870E+02
             -0.284572835379781E+02
             -0.513335358340651E+02
              0.949333872259554E+02
              0.441056242799867E+02
             -0.561004492113308E+02
             -0.965793322422107E+01
              0.251209794045348E+02
             -0.100476978736531E+02
              0.594438582284437E+02
              0.152707952877574E+02
              0.802358177224528E+02
              0.280304848898126E+02
             -0.265408901822015E+02
              0.250184270433934E+02
             -0.502825061032212E+01
             -0.325242720001654E+02
              0.133989732994488E+02
              0.206858010859886E+02
              0.936361027089981E+02
              0.800758451288631E+02
              0.553076933114183E+02
              0.734131249409211E+02
              0.804650659521417E+01
             -0.275042358510590E+02
              0.163707996078905E+02
             -0.369601546944406E+02
             -0.478068300818987E+02
             -0.566229640798711E+02
             -0.267553443211656E+02
             -0.110175500456094E+03
             -0.292321116168824E+02
             -0.840685086797188E+02
              0.210632628161536E+02
             -0.479163273926828E+02
              0.398136359617728E+02
             -0.944902170704503E+02
             -0.331425872982438E+02
              0.551307653118342E+02
              0.208547522636866E+02
             -0.833792981725067E+02
              0.634005653984365E+02
             -0.257709153701609E+02
              0.514623339688578E+02
             -0.244086509062525E+02
             -0.754437275168924E+02
              0.112514724681918E+02
             -0.613772475499226E+02
             -0.169476115705249E+02
             -0.146904593296577E+01
              0.420296431969291E+02
              0.127520538248931E+03
             -0.463846267388580E+02
             -0.363965121627914E+02
             -0.977762078449530E+00
             -0.131273397993749E+02
             -0.825838418418402E+02
             -0.599469451576608E+02
              0.519640144635717E+02
             -0.290418211386500E+02
              0.169381801129260E+02
             -0.491433413181460E+02
             -0.132232323829780E+02
             -0.439038220124664E+02
              0.567825704859229E+02
              0.152080290304775E+02
             -0.232575826061275E+02
             -0.127096895245395E+02
              0.670018586057711E+01
             -0.624571548307892E+01
              0.443382813375578E+02
             -0.253207980871975E+02
              0.274513259702690E+01
              0.340636101399458E+02
              0.172319644201643E+02
             -0.160228737587533E+02
              0.156930484349929E+03
              0.539952257162603E+02
              0.115097561762506E+01
              0.162094588476492E+02
             -0.617458052604736E+02
              0.316110215000728E+02
             -0.724484330435357E+02
             -0.252858839424447E+02
             -0.524971269120037E+02
             -0.220780403474084E+02
              0.571322420972301E+02
             -0.539412876751588E+02
              0.161103318696598E+02
             -0.408596304242474E+01
              0.389845013999872E+01
             -0.435716403309152E+02
             -0.480276664002523E+02
             -0.399011549386353E+01
             -0.427496627235994E+02
             -0.218189240530380E+02
             -0.439988913569090E+02
             -0.119817829339898E+02
             -0.360491205311610E+02
             -0.518764343013226E+02
              0.214155976143484E+02
             -0.210396274514097E+02
              0.188445927701397E+02
              0.982164918208991E+01
             -0.740903266571044E+02
             -0.550688242583545E+02
             -0.399359796377369E+02
              0.356152430732097E+02
              0.274130024718954E+01
             -0.629614162313895E+02
              0.588075728097973E+02
             -0.402885843189086E+02
              0.546586418044179E+02
             -0.290688018743566E+02
             -0.448149749534056E+02
              0.299868591339722E+02
             -0.660379476528320E+02
             -0.381965400944858E+02
              0.676045412297125E+02
              0.204851445042815E+02
             -0.361305326441426E+02
              0.491801843108686E+02
             -0.174735872062038E+02
             -0.324249312707400E+02
             -0.303276521315847E+02
             -0.502705249618756E+02
              0.250166686342465E+02
             -0.937069136525722E+02
             -0.844251072242000E+02
             -0.735974548462809E+01
             -0.307994393450123E+02
             -0.577911745000252E+02
              0.724664192524073E+02
              0.132067467236086E+03
             -0.362929855301211E+02
             -0.253705813617694E+01
             -0.640268635952583E+02
              0.653131541594477E+02
              0.171428517333243E+02
             -0.182194544734618E+02
             -0.411871237351626E+02
              0.149280113600309E+02
             -0.588879279124402E+02
             -0.198716121824818E+02
             -0.908802057975334E+02
              0.338238023146279E+02
              0.170055647859786E+02
              0.187098099273157E+01
             -0.704717810023340E+01
             -0.330647154514470E+02
             -0.760561798248762E+01
              0.126042001660536E+03
             -0.199739526618939E+02
             -0.439184614152465E+02
             -0.686586812778039E+02
              0.109734507875156E+02
             -0.343343552381416E+02
              0.591058456751983E+01
              0.262572805291522E+02
              0.102452111189051E+02
              0.278976027619573E+02
              0.120212634530635E+02
              0.632215205101459E+02
              0.318480222242801E+02
             -0.327760813799494E+02
              0.356468157980249E+02
              0.381163580341717E+02
              0.121379062629227E+02
              0.489411639335532E+02
             -0.225191820475100E+02
              0.768910696627904E+02
              0.172649843225476E+02
             -0.273271699732800E+02
             -0.728506792500090E+01
             -0.187184331662651E+02
              0.263184111351878E+02
             -0.235799892513278E+02
             -0.857155177571087E-01
             -0.853398155286493E+01
              0.813073654594284E+02
              0.502312454674928E+02
             -0.690542959707713E+02
             -0.475407790481046E+01
             -0.558148830971056E+02
             -0.160421536571690E+02
             -0.269495451234106E+02
              0.377244682656612E+01
              0.578402169341073E+00
             -0.258597651106550E+02
              0.814179347498890E+01
             -0.605375575138018E+01
             -0.129446888773983E+02
              0.862502552962167E+02
              0.182832366876021E+02
             -0.810071499636237E+02
             -0.460767294185363E+02
              0.948456849314365E+02
              0.278894402335447E+02
             -0.107151905216689E+02
              0.105008727175740E+03
             -0.195961788435422E+02
             -0.123656597959444E+02
             -0.540743908929403E+01
              0.107978434955434E+02
              0.273230264927977E+02
              0.784009439351559E+01
              0.306552531182465E+02
             -0.188876979117244E+02
             -0.304630021915526E+02
             -0.419577933993123E+02
             -0.479135618872227E+02
              0.466384287901565E+02
              0.127465921875525E+02
              0.389294514154468E+02
              0.134179496058799E+02
              0.859218780588325E+02
              0.156875604773617E+02
             -0.849437190074846E+02
             -0.336029740836195E+02
              0.134603896441791E+02
             -0.304112139330694E+02
              0.629037369227759E+02
             -0.890372828028126E+01
              0.149435652522591E+02
              0.499040117597854E+02
             -0.710181287942507E+02
              0.150377997854883E+03
              0.209570596764136E+02
              0.272312359947719E+02
              0.349020973502110E+02
              0.104366807246656E+02
             -0.158515483467983E+01
              0.360160652832797E+02
             -0.358657502236770E+02
              0.776369586388421E+02
              0.687600127792942E+02
             -0.407703018377106E+02
              0.150430968463747E+02
              0.672995186396444E+02
             -0.224936479904430E+02
              0.154762848126109E+02
              0.437466963980254E+02
              0.424342518853115E+02
             -0.788300112205408E+02
             -0.153648556211295E+02
             -0.358010203152537E+02
             -0.151737347928503E+01
             -0.768629312347481E+01
             -0.550144809498101E+01
             -0.181984258626964E+02
             -0.294838272605955E+02
              0.633046194659440E+01
              0.112493776302719E+02
              0.538024365405388E+02
             -0.391828247677883E+02
              0.375408421353920E+02
              0.440494382275082E+02
             -0.187839471336167E+02
              0.876341795504591E+02
             -0.700692413614003E+02
             -0.103631780648425E+03
             -0.657672886151278E+01
             -0.271814677396321E+01
              0.390121911556162E+01
              0.792589089290944E+02
             -0.107736437408972E+02
              0.418248007647619E+02
              0.445240946838888E+02
              0.386980490240097E+02
             -0.996224644366009E+01
              0.630725274153128E+02
             -0.134334369179435E+02
             -0.308498785170135E+02
             -0.482311048955692E+02
              0.585414656190420E+01
              0.371818135424462E+02
             -0.607720819984010E+01
              0.395052863046803E+02
             -0.175744181804134E+01
              0.658185439048679E+02
              0.188468011281183E+02
              0.100135050616956E+02
             -0.122566048220087E+02
              0.333784004814392E+02
              0.364044599052734E+02
              0.233870374795820E+02
             -0.506730027562725E+00
             -0.552665055099830E+02
              0.261792164223273E+02
              0.175897928394455E+02
              0.404619222513898E+02
              0.273619326581534E+02
              0.373785127375756E+02
             -0.603906274985081E+01
              0.251797990471539E+02
             -0.299602072654527E+02
             -0.199751811224087E+01
             -0.571858095546257E+02
             -0.309136133472107E+02
              0.380433625614319E+02
             -0.939755263202591E+02
              0.296033367618602E+02
              0.184920639919719E+02
              0.843731838050559E+02
             -0.302486044506251E+02
              0.330667182648923E+02
             -0.138408376235019E+02
             -0.465903809605164E+02
             -0.765199179895767E+02
             -0.525731465656986E+01
             -0.863810066628092E+02
              0.200995496629047E+02
             -0.248548332901565E+02
              0.306901149690415E+02
              0.237578139591843E+02
             -0.241953356242630E+02
             -0.266313949706346E+02
              0.392653762492581E+02
             -0.590516423613520E+02
             -0.117167436687506E+02
             -0.197000281806141E+02
              0.213338202402680E+02
             -0.900943454443478E+01
              0.365113632947345E+01
             -0.201831761747711E+02
              0.561221272065382E+02
             -0.440912106759587E+02
              0.795468142222978E+01
              0.587873677321616E+02
             -0.324401824438451E+02
              0.359866960099757E+01
             -0.888914511336338E+01
             -0.672856811357443E+02
             -0.485324011068944E+02
             -0.867587890544627E+01
              0.241721815528890E+02
              0.303376025149590E+02
              0.863868605862820E+01
             -0.413547995627596E+01
              0.153098521891590E+02
             -0.442235285136144E+02
              0.335129906215843E+01
             -0.533339512104411E+02
             -0.325872819432379E+02
              0.476540130908317E+02
             -0.296407072443923E+02
              0.624852462470508E+02
             -0.215504349163997E+02
              0.355469459869149E+02
              0.242950781316342E+02
             -0.646739931777099E+02
             -0.282021933672723E+02
              0.933549341529590E+01
             -0.372992575633987E+02
             -0.341230505530498E+02
             -0.833259942292573E+02
             -0.541952914404992E+02
             -0.512757262656631E+02
             -0.417186300058417E+02
             -0.968822454466107E+00
              0.996941551861067E+01
              0.100161024060122E+01
              0.153572887549075E+02
             -0.551864653924016E+02
              0.142364311068487E+02
              0.257297261849430E+02
             -0.669706268231441E+02
             -0.705015174469054E+02
             -0.432956756260004E+02
             -0.172418061479802E+02
              0.179636323763068E+02
              0.458680286346521E+01
             -0.427942850367340E+02
              0.368243626660155E+02
             -0.216668895745491E+02
              0.519776117788185E+02
             -0.890769276597417E+02
              0.599777761320971E+02
             -0.207714236413891E+01
             -0.370189872958017E+02
             -0.217441238391246E+02
              0.471115556174422E+01
              0.375944207051925E+02
             -0.759681236858594E+02
             -0.121339837187202E+02
             -0.217624990304924E+02
              0.513629910065899E+02
              0.868350507995169E+02
             -0.969229221127163E+02
              0.948152236098839E+02
              0.469957013832217E+02
             -0.728657869630459E+02
             -0.368370725802097E+02
              0.755036973650805E+02
              0.634823760448819E+02
             -0.181961866380738E+02
             -0.464981558109343E+01
              0.734226289679377E+01
              0.651741397133529E+02
             -0.510401420764701E+02
              0.159478935200187E+02
             -0.472793921696933E+01
              0.349519319604499E+02
             -0.750261973209573E+02
             -0.653292363684938E+01
             -0.352998122242691E+02
              0.462567232444584E+02
              0.470650235013054E+02
             -0.865401452432995E+02
             -0.489257765447927E+02
             -0.257409803898919E+02
             -0.340518880507034E+02
             -0.110078981108552E+02
             -0.244207455403073E+02
              0.429312627468295E+02
              0.402894095892896E+02
             -0.572518597260665E+01
             -0.417928768500467E+02
             -0.853937064234323E+02
              0.444677196244745E+02
             -0.525759649299133E+02
             -0.313907841189700E+02
              0.549071077710673E+01
             -0.323779907020552E+02
             -0.399725777134123E+02
             -0.241196457181632E+02
             -0.386887605709722E+02
             -0.271877445640380E+02
             -0.484687671705835E+02
[...]
              0.284604345314987E+02
              0.142415057678585E+03
              0.243346755082997E+02
              0.123107291601281E+02
             -0.466550858596594E+02
             -0.640863949140831E+02
             -0.189972023974974E+02
              0.330918801194737E+02
             -0.429911216442599E+01
              0.190641157500086E+02
              0.337522168477979E+02
             -0.589187540904838E+02
              0.223430558683864E+02
              0.585043069801187E+02
              0.555522233319265E+02
             -0.420448367785150E+01
             -0.140683020659060E+01
             -0.998627796625155E+01
             -0.484784287827667E+02
             -0.677576487445178E+02
              0.789193650593112E+02
             -0.523451174466615E+01
             -0.590571842281077E+02
              0.167138014833776E+01
             -0.206078014456057E+02
              0.942508635720791E+02
             -0.217311350173286E+02
             -0.354786114230586E+02
              0.336331470872831E+02
             -0.146101005143088E+02
              0.391243549254410E+02
             -0.244482453046447E+01
              0.101529923033886E+03
              0.491076298675737E+02
             -0.518726875789133E+01
             -0.323169297431378E+02
              0.233091733685234E+02
             -0.530800863499852E+02
             -0.128538787039411E+02
              0.588262016094761E+02
             -0.288821544050339E+02
             -0.440374019077405E+02
             -0.223829439265396E+02
              0.520934497697333E+02
              0.125510688158570E+02
             -0.852507750926195E+02
              0.305251801622250E+02
              0.153294882361220E+02
              0.578069507010690E+01
             -0.515637325235160E+02
             -0.378293862733216E+01
              0.324622660756494E+02
              0.515455715290450E+02
              0.634846771716803E+02
              0.229868432862560E+02
              0.763799797012524E+00
             -0.499791406140979E+02
             -0.512065846794343E+02
             -0.751508726550553E+02
             -0.614184923453979E+01
              0.310378005121033E+02
             -0.384124100866018E+01
              0.549252828539090E+02
             -0.319208670910418E+02
              0.167109834819527E+02
             -0.102778428010606E+02
             -0.290721250623342E+02
              0.587959167101777E+02
              0.796793852892193E+01
              0.606434256175095E+02
              0.510551166443713E+01
              0.266365764124378E+02
             -0.193399371236256E+02
              0.588677538430851E+02
             -0.111590820237859E+02
             -0.133578346302404E+00
             -0.793330381403354E+02
             -0.129025848515897E+02
              0.722271109741080E+02
              0.676335519708885E+02
              0.252504221851539E+02
             -0.130506310498540E+02
              0.341994656013784E+01
             -0.173865471096400E+02
             -0.199065698293157E+01
              0.911088233153720E+02
              0.121960057926344E+01
             -0.190902057028546E+02
             -0.111223581503663E+03
             -0.555531662250247E+02
             -0.376469959582172E+02
             -0.661449835401556E+02
             -0.557791373207160E+02
             -0.685690900588013E+02
             -0.448977480903179E+02
             -0.412944801928667E+02
             -0.453429163441844E+02
              0.485529684471611E+02
             -0.295798112999878E+02
             -0.100054795806575E+03
              0.420800766104875E+02
             -0.261081507417786E+02
             -0.794082652300422E+02
              0.947845074087764E+02
             -0.220458198879675E+02
              0.229204210945784E+02
              0.457241065885898E+02
             -0.140014645348276E+01
              0.255110317625606E+02
              0.470151292918158E+01
              0.400875144502685E+00
             -0.151208327323685E+02
             -0.718473480265395E+02
              0.133708889154852E+02
             -0.129978189670050E+03
              0.626189815523419E+02
             -0.442390561195672E+02
             -0.162949814380222E+02
             -0.158471405810253E+02
              0.714629424341565E+01
             -0.228847969678662E+02
              0.298455252686229E+02
             -0.522322463331736E+02
              0.369182730299853E+02
              0.372195687865594E+02
              0.169555883301616E+02
              0.100969192335073E+02
              0.198516302760531E+02
              0.620797040539202E+01
              0.311911678381405E+02
             -0.806266665425238E+01
             -0.593795633097260E+02
              0.762451015310359E+01
             -0.153322446155904E+02
             -0.193320205560974E+01
              0.507732334934882E+02
             -0.830503230319736E+02
             -0.149120672730106E+01
              0.560047525599316E+00
              0.998541269924385E+01
              0.319845474214306E+02
             -0.124347937485849E+02
              0.839075001802211E+02
              0.490250341734271E+02
             -0.184098029485059E+02
             -0.963190416489067E+01
              0.105012406512009E+01
              0.772809765269578E+02
             -0.588634413209942E+02
             -0.106208433562835E+03
              0.310535140765602E+02
             -0.163492806040677E+02
             -0.139920294107776E+02
              0.131019557223037E+02
              0.771816446887451E+02
              0.466269730562004E+02
             -0.154324224157553E+02
             -0.504761064082977E+02
             -0.548655573962552E+01
              0.307662814325143E+02
             -0.111872864330717E+02
             -0.758617350361731E+02
             -0.269042377113965E+01
             -0.893164547274250E+02
             -0.477061025638261E+02
              0.771246863711916E+02
             -0.485458003135680E+02
             -0.638888811090071E+02
             -0.516736944133889E+02
             -0.350959481078013E+02
              0.342295678211565E+02
              0.824701394482489E+02
             -0.356087337995382E+01
              0.277715118066160E+02
             -0.184179825513723E+02
             -0.696473162031050E+02
              0.467168510144029E+02
             -0.446636083484491E+02
              0.323379908881860E+02
              0.377963716922254E+02
             -0.655516267007704E+01
              0.392570839848916E+02
              0.440351133898159E+02
              0.101009958059322E+03
             -0.157096223215960E+02
             -0.457091843315445E+02
             -0.615280386505467E+02
             -0.124043383818060E+02
             -0.233361847671168E+02
              0.103495384999963E+03
             -0.451043379613715E+02
              0.105304232648313E+02
              0.977803013494093E+01
             -0.265983954147004E+02
             -0.801559795528299E+02
             -0.702760315800862E+01
              0.983682265020804E+02
              0.935948067769672E+01
              0.812698418034449E+01
             -0.528427357844267E+02
             -0.607659097562994E+02
             -0.561065793819887E+01
              0.502394874251884E+02
             -0.222722065192606E+02
              0.108419452855510E+03
             -0.436942241165822E+02
              0.146720423393109E+02
             -0.225560736236937E+02
             -0.721324521743543E+02
              0.167400741021356E+01
             -0.503490460307676E+02
             -0.763498342687661E+02
              0.614851074436058E+01
              0.235859917238315E+01
              0.516084910864876E+02
              0.187740295645960E+02
             -0.324940644132457E+02
              0.231109907567778E+02
             -0.813588779611336E+02
             -0.524091171495780E+02
              0.905474489033782E+02
              0.143101923334210E+02
             -0.189177299384156E+02
             -0.353938255053814E+02
             -0.270803064511915E+01
             -0.586876463634155E+01
              0.833242641654795E+02
              0.419375422067102E+02
             -0.166998570553420E+02
             -0.122742496545728E+02
             -0.429468939130906E+02
             -0.201815569186447E+02
             -0.672906803988396E+02
              0.461629053095335E+02
              0.550301535927983E+01
              0.145761525001203E+02
              0.156302089570857E+02
             -0.560032929154616E+00
             -0.168928808009146E+02
             -0.316892519076988E+01
             -0.100791884441717E+03
             -0.231025080341637E+02
             -0.765960528156330E+01
             -0.952779879909232E+01
              0.548971672090647E+02
              0.626019747193687E+02
              0.165270965314415E+02
             -0.974376830924646E+02
              0.650077678324496E+02
             -0.215782789486874E+02
             -0.378454910019345E+02
             -0.867461106281441E+02
             -0.388892565023643E+02
              0.566250782262848E+02
              0.245185983573846E+02
              0.517765383331744E+01
              0.293145497932224E+02
             -0.567130507491502E+02
             -0.423547393385662E+02
              0.517354163876314E+02
              0.388599241068104E+02
              0.521101158332992E+02
             -0.128209195457455E+01
              0.687162178923109E+01
              0.571654224303892E+02
              0.966638966942689E+02
             -0.301732421489371E+02
              0.324017742877807E+02
             -0.118105853510492E+02
             -0.413738773735554E+02
             -0.315464860291976E+02
             -0.300971419029752E+02
             -0.131830783363947E+02
             -0.525411821495135E+02
             -0.218463468223925E+02
             -0.141734166666687E+03
              0.370571181013088E+02
              0.207317073300719E+02
             -0.393388358027251E+01
             -0.381635582910947E+02
             -0.205277399885643E+02
             -0.528538943481115E+02
              0.152183144556234E+02
              0.823374040767729E+02
             -0.253033969751745E+02
             -0.163605785411797E+02
              0.238677623217742E+02
             -0.491215195419055E+02
              0.884219836964889E+02
              0.155325237328960E+02
              0.227485750746249E+02
              0.492308036456103E+02
              0.324918218563840E+01
              0.544137688829020E+02
              0.143353378959659E+02
             -0.107435682435412E+02
              0.734744351972699E+01
              0.802446151813967E+00
              0.730472984865606E+02
              0.101635054488451E+02
              0.120787886259799E+02
             -0.130474431124817E+02
              0.132890977746971E+02
             -0.914781977909902E+02
             -0.327453740211951E+02
             -0.458841142448744E+02
              0.487568897692879E+02
             -0.292076930447916E+02
             -0.661432722352283E+02
              0.540451761304259E+02
             -0.122664678408731E+02
              0.442056645141366E+02
             -0.902320002125964E+02
              0.233682399028723E+02
              0.861264757276456E+01
              0.582062548134547E+01
             -0.832420288637661E+01
             -0.904944400275394E+01
              0.481405530542008E+02
              0.200185605099733E+01
             -0.476467168392763E+02
             -0.176724326664579E+02
              0.277927384907066E+02
             -0.118423559688452E+03
             -0.933830428170075E+02
              0.398539674997386E+01
              0.117702090368031E+02
             -0.414652687502918E+02
             -0.393780344606370E+01
              0.112582243561087E+03
              0.308096078126673E+02
             -0.574036639223494E+02
              0.927742105655256E+01
             -0.965735349991492E+01
              0.106118366905376E+02
             -0.338755056620702E+02
              0.195813017235314E+02
              0.285713272886342E+02
             -0.299392309867068E+01
              0.108586154861071E+03
             -0.141230832110795E+02
             -0.317310884420089E+02
              0.143067744470883E+02
              0.468355920638006E+02
             -0.357685512454240E+02
             -0.318678801676536E+01
              0.968576197965753E+02
             -0.467182030335198E+01
              0.623835555736323E+02
              0.136034551866026E+02
             -0.908047506812019E+01
             -0.306629269102763E+02
              0.569074634318094E+02
             -0.516060135352999E+02
             -0.224602670804308E+01
             -0.170438759657904E+02
             -0.407175081079990E+02
              0.185610114242021E+02
              0.239945250809578E+02
              0.116858968398298E+02
              0.706452837003440E+00
             -0.385592630387629E+02
              0.216193011644342E+02
             -0.677564461831611E+01
             -0.247625822234431E+02
             -0.211625727097062E+02
              0.204589713441553E+02
             -0.602695154518631E+01
             -0.350513490083270E+02
             -0.107030802879523E+03
              0.102954344877676E+02
              0.250380124055585E+02
             -0.388624708486896E+02
             -0.211710086999954E+02
              0.810187611440977E+02
              0.649921208651995E+01
              0.311520772812199E+02
              0.388864641963067E+01
              0.322817733649958E+02
              0.649716262380116E+01
             -0.374445155049209E+02
             -0.227118538166840E+01
              0.881235621928215E+01
              0.274492442905153E+02
              0.785431464777544E+02
              0.509339563985877E+02
              0.171802377766483E+00
              0.169791869507009E+02
              0.615601251111213E+02
              0.236666065140054E+02
             -0.756174949865754E+02
             -0.274790200141244E+02
              0.152137857394555E+02
              0.563895187054987E+01
              0.255973492416574E+02
             -0.550054359391454E+02
              0.905439811165814E+01
              0.387208332209888E+02
              0.499917042767283E+02
             -0.436621470900178E+02
             -0.698476131072567E+01
             -0.207659066276545E+01
             -0.134106695040149E+02
             -0.367114529222829E+02
             -0.216340328104208E+02
             -0.197322891557221E+01
              0.794671377957906E+01
              0.422931800111467E+02
             -0.309199702746890E+02
              0.829390229942860E+02
              0.328769336087365E+02
              0.220539288744292E+02
              0.334330858596622E+02
              0.324806123046374E+02
              0.347130508814299E+02
              0.539272780122856E+02
             -0.435593263648012E+02
              0.622148947219167E+02
             -0.112682395447410E+03
              0.308627597010036E+02
             -0.106957425943606E+03
              0.857940003475206E+02
              0.693280919090213E+02
             -0.110348838448645E+02
             -0.495394450090365E+02
             -0.431227724338080E+02
             -0.626159056411341E+02
             -0.631001237589203E+02
              0.553988308931854E+02
              0.407178080821347E+02
              0.237704439728496E+02
              0.375631432719543E+02
              0.404088604930457E+02
             -0.383557510695299E+02
             -0.198724797070025E+02
              0.589111758905375E+02
             -0.116588109322659E+02
              0.553907421253812E+02
              0.701925099306962E+02
             -0.554880324028888E+01
             -0.708982756903426E+02
             -0.912891781147778E+00
             -0.245872783129271E+01
             -0.885267079563084E+01
             -0.180779553767314E+01
             -0.655850873108567E+02
             -0.212136022815856E+02
              0.540138358398560E+01
              0.898854701274257E+01
              0.470537296151342E+02
             -0.398876085915566E+02
              0.660778052049941E+02
             -0.426970856483341E+02
              0.210882056937978E+02
              0.351716372929135E+02
 
 BEEF-vdW xc energy contributions
           1 :   -785.901093069279     
           2 :    721.788228176100     
           3 :   -611.108673532611     
           4 :    481.111387289974     
           5 :   -359.130283098122     
           6 :    264.789808919934     
           7 :   -205.677057643211     
           8 :    177.320386140394     
           9 :   -167.157225580702     
          10 :    160.628674716433     
          11 :   -146.923707946026     
          12 :    122.200617765274     
          13 :   -89.4427995668980     
          14 :    55.5924118803132     
          15 :   -27.6309087784994     
          16 :    9.34276185419697     
          17 :  -3.712957220727731E-003
          18 :   -4.71268414543829     
          19 :    10.2853950694943     
          20 :   -20.6491288177461     
          21 :    36.4848173118929     
          22 :   -55.1795493441286     
          23 :    72.3243974456323     
          24 :   -83.9267725227600     
          25 :    88.2297506804088     
          26 :   -86.3489086881716     
          27 :    81.5410673666659     
          28 :   -77.5330127582508     
          29 :    76.7458035655889     
          30 :   -79.2639060647866     
          31 :   -86.0399188625187     
          32 :   -65.8853606716252     

     Writing output data file ./pwscf.save/
 
     init_run     :    349.44s CPU    354.03s WALL (       1 calls)
     electrons    :  16233.99s CPU  16390.42s WALL (       1 calls)
     forces       :    105.96s CPU    107.31s WALL (       1 calls)

     Called by init_run:
     wfcinit      :    301.71s CPU    305.24s WALL (       1 calls)
     potinit      :     44.33s CPU     44.66s WALL (       1 calls)
     hinit0       :      1.37s CPU      1.41s WALL (       1 calls)

     Called by electrons:
     c_bands      :  13422.85s CPU  13543.33s WALL (      22 calls)
     sum_band     :   1971.11s CPU   1987.60s WALL (      22 calls)
     v_of_rho     :    118.92s CPU    123.84s WALL (      22 calls)
     newd         :     37.93s CPU     52.24s WALL (      22 calls)
     PAW_pot      :    148.00s CPU    148.01s WALL (      22 calls)
     mix_rho      :    580.35s CPU    581.45s WALL (      22 calls)
     vdW_kernel   :     33.46s CPU     33.46s WALL (       1 calls)

     Called by c_bands:
     init_us_2    :     89.92s CPU     90.24s WALL (     598 calls)
     cegterg      :  12497.13s CPU  12615.23s WALL (     286 calls)

     Called by *egterg:
     cdiaghg      :     92.31s CPU     92.37s WALL (    1679 calls)
     h_psi        :   8248.46s CPU   8290.02s WALL (    1705 calls)
     s_psi        :   1255.94s CPU   1256.11s WALL (    1705 calls)
     g_psi        :     18.78s CPU     18.85s WALL (    1406 calls)

     Called by h_psi:
     h_psi:calbec :   1165.06s CPU   1166.33s WALL (    1705 calls)
     vloc_psi     :   5796.69s CPU   5798.66s WALL (    1705 calls)
     add_vuspsi   :   1255.79s CPU   1256.41s WALL (    1705 calls)

     General routines
     calbec       :   1704.00s CPU   1705.34s WALL (    2043 calls)
     fft          :     54.92s CPU     54.94s WALL (    3342 calls)
     ffts         :    191.49s CPU    191.53s WALL (   11614 calls)
     fftw         :   5889.77s CPU   5890.96s WALL (  366532 calls)
 
     Parallel routines
 
     PWSCF        :      4h40m CPU      4h42m WALL

 
   This run was terminated on:  14:19:19  16May2022            

=------------------------------------------------------------------------------=
   JOB DONE.
=------------------------------------------------------------------------------=
