
     Program PWSCF v.6.7MaX starts on 20May2022 at 14:56:21 

     This program is part of the open-source Quantum ESPRESSO suite
     for quantum simulation of materials; please cite
         "P. Giannozzi et al., J. Phys.:Condens. Matter 21 395502 (2009);
         "P. Giannozzi et al., J. Phys.:Condens. Matter 29 465901 (2017);
          URL http://www.quantum-espresso.org", 
     in publications or presentations arising from this work. More details at
     http://www.quantum-espresso.org/quote

     Parallel version (MPI), running on     1 processors

     MPI processes distributed on     1 nodes
     Reading input from co3-ensemble.in
Warning: card &CELL ignored
Warning: card / ignored

     Current dimensions of program PWSCF are:
     Max number of different atomic species (ntypx) = 10
     Max number of k-points (npk) =  40000
     Max angular momentum in pseudopotentials (lmaxx) =  3
     file Pt.pbe-n-kjpaw_psl.1.0.0.UPF: wavefunction(s)  6S 5D renormalized
     file O.pbe-nl-kjpaw_psl.1.0.0.UPF: wavefunction(s)  2S 2P renormalized
     file C.pbe-n-kjpaw_psl.1.0.0.UPF: wavefunction(s)  2S 2P renormalized

     **************************************************************************
     Initializing libbeef V0.1.2 with the BEEF-vdW functional.
     Citation: Wellendorff et al., PRB 85, 235149 (2012).
     **************************************************************************


     IMPORTANT: XC functional enforced from input :
     Exchange-correlation= BEEF-VDW
                           (   1   4  43  14   2   0   0)
     Any further DFT definition will be discarded
     Please, verify this is what you really want


     Subspace diagonalization in iterative solution of the eigenvalue problem:
     a serial algorithm will be used

 
     G-vector sticks info
     --------------------
     sticks:   dense  smooth     PW     G-vecs:    dense   smooth      PW
     Sum        4267    4267   1159               737053   737053  103881
 


     bravais-lattice index     =            0
     lattice parameter (alat)  =      16.0349  a.u.
     unit-cell volume          =   11738.2026 (a.u.)^3
     number of atoms/cell      =           40
     number of atomic types    =            3
     number of electrons       =       382.00
     number of Kohn-Sham states=          229
     kinetic-energy cutoff     =      60.0000  Ry
     charge density cutoff     =     240.0000  Ry
     scf convergence threshold =      1.0E-06
     mixing beta               =       0.7000
     number of iterations used =            8  local-TF  mixing
     Exchange-correlation= BEEF-VDW
                           (   1   4  43  14   2   0   0)

     celldm(1)=  16.034858  celldm(2)=   0.000000  celldm(3)=   0.000000
     celldm(4)=   0.000000  celldm(5)=   0.000000  celldm(6)=   0.000000

     crystal axes: (cart. coord. in units of alat)
               a(1) = (   1.000000   0.000000   0.000000 )  
               a(2) = (   0.500000   0.866025   0.000000 )  
               a(3) = (   0.000000   0.000000   3.287575 )  

     reciprocal axes: (cart. coord. in units 2 pi/alat)
               b(1) = (  1.000000 -0.577350  0.000000 )  
               b(2) = (  0.000000  1.154701  0.000000 )  
               b(3) = (  0.000000  0.000000  0.304176 )  


     PseudoPot. # 1 for Pt read from file:
     /users/bkreitz1/quantum-espresso/potentials/Pt.pbe-n-kjpaw_psl.1.0.0.UPF
     MD5 check sum: 04dc8a03c51ece93fc7b5889c2958091
     Pseudo is Projector augmented-wave + core cor, Zval = 10.0
     Generated using 'atomic' code by A. Dal Corso  v.6.7MaX
     Shape of augmentation charge: PSQ
     Using radial grid of 1277 points,  6 beta functions with: 
                l(1) =   0
                l(2) =   0
                l(3) =   1
                l(4) =   1
                l(5) =   2
                l(6) =   2
     Q(r) pseudized with 0 coefficients 


     PseudoPot. # 2 for O  read from file:
     /users/bkreitz1/quantum-espresso/potentials/O.pbe-nl-kjpaw_psl.1.0.0.UPF
     MD5 check sum: eef08af8b58d9ec80f8fdb78829eb7cf
     Pseudo is Projector augmented-wave + core cor, Zval =  6.0
     Generated using 'atomic' code by A. Dal Corso  v.6.7MaX
     Shape of augmentation charge: PSQ
     Using radial grid of 1095 points,  4 beta functions with: 
                l(1) =   0
                l(2) =   0
                l(3) =   1
                l(4) =   1
     Q(r) pseudized with 0 coefficients 


     PseudoPot. # 3 for C  read from file:
     /users/bkreitz1/quantum-espresso/potentials/C.pbe-n-kjpaw_psl.1.0.0.UPF
     MD5 check sum: a169b0ebad56f5ec0d79c4633f80bf22
     Pseudo is Projector augmented-wave + core cor, Zval =  4.0
     Generated using 'atomic' code by A. Dal Corso  v.6.7MaX
     Shape of augmentation charge: PSQ
     Using radial grid of 1073 points,  4 beta functions with: 
                l(1) =   0
                l(2) =   0
                l(3) =   1
                l(4) =   1
     Q(r) pseudized with 0 coefficients 


     atomic species   valence    mass     pseudopotential
        Pt            10.00   195.08400     Pt( 1.00)
        O              6.00    15.99900     O ( 1.00)
        C              4.00    12.01100     C ( 1.00)

     No symmetry found



   Cartesian axes

     site n.     atom                  positions (alat units)
         1           Pt  tau(   1) = (   0.0000000   0.0000000   1.0017346  )
         2           Pt  tau(   2) = (   0.3333333   0.0000000   1.0017346  )
         3           Pt  tau(   3) = (   0.6666667   0.0000000   1.0017346  )
         4           Pt  tau(   4) = (   0.1666667   0.2886751   1.0017346  )
         5           Pt  tau(   5) = (   0.5000000   0.2886751   1.0017346  )
         6           Pt  tau(   6) = (   0.8333333   0.2886751   1.0017346  )
         7           Pt  tau(   7) = (   0.3333333   0.5773503   1.0017346  )
         8           Pt  tau(   8) = (   0.6666667   0.5773503   1.0017346  )
         9           Pt  tau(   9) = (   1.0000000   0.5773503   1.0017346  )
        10           Pt  tau(  10) = (   0.1666667   0.0962250   1.2739001  )
        11           Pt  tau(  11) = (   0.5000000   0.0962250   1.2739001  )
        12           Pt  tau(  12) = (   0.8333333   0.0962250   1.2739001  )
        13           Pt  tau(  13) = (   0.3333333   0.3849002   1.2739001  )
        14           Pt  tau(  14) = (   0.6666667   0.3849002   1.2739001  )
        15           Pt  tau(  15) = (   1.0000000   0.3849002   1.2739001  )
        16           Pt  tau(  16) = (   0.5000000   0.6735753   1.2739001  )
        17           Pt  tau(  17) = (   0.8333333   0.6735753   1.2739001  )
        18           Pt  tau(  18) = (   1.1666667   0.6735753   1.2739001  )
        19           Pt  tau(  19) = (  -0.0020767   0.1940284   1.5464725  )
        20           Pt  tau(  20) = (   0.3357121   0.1940807   1.5467110  )
        21           Pt  tau(  21) = (   0.6667485   0.1922730   1.5439728  )
        22           Pt  tau(  22) = (   0.1667096   0.4809553   1.5421785  )
        23           Pt  tau(  23) = (   0.5002520   0.4797616   1.5452101  )
        24           Pt  tau(  24) = (   0.8331444   0.4798780   1.5450127  )
        25           Pt  tau(  25) = (   0.3339761   0.7693403   1.5407702  )
        26           Pt  tau(  26) = (   0.6667282   0.7709405   1.5398331  )
        27           Pt  tau(  27) = (   0.9994351   0.7694222   1.5407557  )
        28           Pt  tau(  28) = (   0.0008234  -0.0004455   1.8157696  )
        29           Pt  tau(  29) = (   0.3328549  -0.0003819   1.8159038  )
        30           Pt  tau(  30) = (   0.6668642  -0.0044453   1.8123923  )
        31           Pt  tau(  31) = (   0.1670359   0.2889944   1.8158505  )
        32           Pt  tau(  32) = (   0.5026201   0.2890613   1.8259087  )
        33           Pt  tau(  33) = (   0.8317451   0.2891914   1.8249689  )
        34           Pt  tau(  34) = (   0.3328866   0.5783510   1.8157637  )
        35           Pt  tau(  35) = (   0.6667900   0.5834626   1.8133984  )
        36           Pt  tau(  36) = (   1.0008505   0.5785202   1.8156096  )
        37           O   tau(  37) = (   0.5308820   0.2883160   2.0668990  )
        38           C   tau(  38) = (   0.6690478   0.2888920   2.1407693  )
        39           O   tau(  39) = (   0.8065624   0.2895548   2.0660199  )
        40           O   tau(  40) = (   0.6693752   0.2888635   2.2870186  )

     number of k points=    13  Marzari-Vanderbilt smearing, width (Ry)=  0.0200
                       cart. coord. in units 2pi/alat
        k(    1) = (   0.0000000   0.0000000   0.0000000), wk =   0.0800000
        k(    2) = (   0.0000000   0.2309401   0.0000000), wk =   0.1600000
        k(    3) = (   0.0000000   0.4618802   0.0000000), wk =   0.1600000
        k(    4) = (   0.2000000  -0.1154701   0.0000000), wk =   0.1600000
        k(    5) = (   0.2000000   0.1154701   0.0000000), wk =   0.1600000
        k(    6) = (   0.2000000   0.3464102   0.0000000), wk =   0.1600000
        k(    7) = (   0.2000000  -0.5773503   0.0000000), wk =   0.1600000
        k(    8) = (   0.2000000  -0.3464102   0.0000000), wk =   0.1600000
        k(    9) = (   0.4000000  -0.2309401   0.0000000), wk =   0.1600000
        k(   10) = (   0.4000000  -0.0000000   0.0000000), wk =   0.1600000
        k(   11) = (   0.4000000   0.2309401   0.0000000), wk =   0.1600000
        k(   12) = (   0.4000000  -0.6928203   0.0000000), wk =   0.1600000
        k(   13) = (   0.4000000  -0.4618802   0.0000000), wk =   0.1600000

     Dense  grid:   737053 G-vectors     FFT dimensions: (  80,  80, 270)

     Estimated max dynamical RAM per process >       9.01 GB

     Check: negative core charge=   -0.000002

     Initial potential from superposition of free atoms

     starting charge  381.99385, renormalised to  382.00000

     negative rho (up, down):  1.403E-02 0.000E+00


     %%%%%%%%%%%%%%%%%%%%%%%%%%%%%%%%%%%%%%%%%%%%%%%%%%%%%%%%%%%%%%%%%%%%%%%%
     %                                                                      %
     % You are using vdW-DF, which was implemented by the Thonhauser group. %
     % Please cite the following two papers that made this development      %
     % possible and the two reviews that describe the various versions:     %
     %                                                                      %
     %   T. Thonhauser et al., PRL 115, 136402 (2015).                      %
     %   T. Thonhauser et al., PRB 76, 125112 (2007).                       %
     %   K. Berland et al., Rep. Prog. Phys. 78, 066501 (2015).             %
     %   D.C. Langreth et al., J. Phys.: Condens. Matter 21, 084203 (2009). %
     %                                                                      %
     %                                                                      %
     % If you are calculating the stress with vdW-DF, please also cite:     %
     %                                                                      %
     %   R. Sabatini et al., J. Phys.: Condens. Matter 24, 424209 (2012).   %
     %                                                                      %
     %%%%%%%%%%%%%%%%%%%%%%%%%%%%%%%%%%%%%%%%%%%%%%%%%%%%%%%%%%%%%%%%%%%%%%%%


     Starting wfcs are  340 randomized atomic wfcs
     Checking if some PAW data can be deallocated... 

     total cpu time spent up to now is      394.2 secs

     Self-consistent Calculation

     iteration #  1     ecut=    60.00 Ry     beta= 0.70
     Davidson diagonalization with overlap
     ethr =  1.00E-02,  avg # of iterations =  2.0

     Threshold (ethr) on eigenvalues was too large:
     Diagonalizing with lowered threshold

     Davidson diagonalization with overlap
     ethr =  9.25E-04,  avg # of iterations =  2.5

     negative rho (up, down):  2.258E-02 0.000E+00

     total cpu time spent up to now is     1899.3 secs

     total energy              =  -27900.28894499 Ry
     estimated scf accuracy    <       3.65468679 Ry

     iteration #  2     ecut=    60.00 Ry     beta= 0.70
     Davidson diagonalization with overlap
     ethr =  9.57E-04,  avg # of iterations =  3.0

     negative rho (up, down):  3.056E-02 0.000E+00

     total cpu time spent up to now is     2610.6 secs

     total energy              =  -27900.54950343 Ry
     estimated scf accuracy    <       1.39454303 Ry

     iteration #  3     ecut=    60.00 Ry     beta= 0.70
     Davidson diagonalization with overlap
     ethr =  3.65E-04,  avg # of iterations =  2.0

     negative rho (up, down):  4.996E-02 0.000E+00

     total cpu time spent up to now is     3319.9 secs

     total energy              =  -27900.60187925 Ry
     estimated scf accuracy    <       0.60381639 Ry

     iteration #  4     ecut=    60.00 Ry     beta= 0.70
     Davidson diagonalization with overlap
     ethr =  1.58E-04,  avg # of iterations =  6.1

     negative rho (up, down):  6.043E-02 0.000E+00

     total cpu time spent up to now is     4061.8 secs

     total energy              =  -27900.65237657 Ry
     estimated scf accuracy    <       0.37283000 Ry

     iteration #  5     ecut=    60.00 Ry     beta= 0.70
     Davidson diagonalization with overlap
     ethr =  9.76E-05,  avg # of iterations =  2.8

     negative rho (up, down):  7.697E-02 0.000E+00

     total cpu time spent up to now is     4716.7 secs

     total energy              =  -27900.65647679 Ry
     estimated scf accuracy    <       0.06370842 Ry

     iteration #  6     ecut=    60.00 Ry     beta= 0.70
     Davidson diagonalization with overlap
     c_bands:  1 eigenvalues not converged
     c_bands:  1 eigenvalues not converged
     c_bands:  1 eigenvalues not converged
     c_bands:  2 eigenvalues not converged
     c_bands:  2 eigenvalues not converged
     c_bands:  1 eigenvalues not converged
     c_bands:  1 eigenvalues not converged
     c_bands:  2 eigenvalues not converged
     c_bands:  1 eigenvalues not converged
     c_bands:  2 eigenvalues not converged
     c_bands:  2 eigenvalues not converged
     ethr =  1.67E-05,  avg # of iterations = 19.7

     negative rho (up, down):  8.166E-02 0.000E+00

     total cpu time spent up to now is     5792.6 secs

     total energy              =  -27900.67188193 Ry
     estimated scf accuracy    <       0.09423183 Ry

     iteration #  7     ecut=    60.00 Ry     beta= 0.70
     Davidson diagonalization with overlap
     c_bands:  1 eigenvalues not converged
     c_bands:  1 eigenvalues not converged
     ethr =  1.67E-05,  avg # of iterations =  8.6

     negative rho (up, down):  8.119E-02 0.000E+00

     total cpu time spent up to now is     6435.8 secs

     total energy              =  -27900.67072432 Ry
     estimated scf accuracy    <       0.05186316 Ry

     iteration #  8     ecut=    60.00 Ry     beta= 0.70
     Davidson diagonalization with overlap
     c_bands:  2 eigenvalues not converged
     ethr =  1.36E-05,  avg # of iterations =  3.3

     negative rho (up, down):  7.595E-02 0.000E+00

     total cpu time spent up to now is     7023.8 secs

     total energy              =  -27900.67124157 Ry
     estimated scf accuracy    <       0.01270253 Ry

     iteration #  9     ecut=    60.00 Ry     beta= 0.70
     Davidson diagonalization with overlap
     c_bands:  2 eigenvalues not converged
     c_bands:  1 eigenvalues not converged
     c_bands:  1 eigenvalues not converged
     c_bands:  1 eigenvalues not converged
     c_bands:  1 eigenvalues not converged
     c_bands:  1 eigenvalues not converged
     ethr =  3.33E-06,  avg # of iterations = 12.5

     negative rho (up, down):  6.296E-02 0.000E+00

     total cpu time spent up to now is     7720.4 secs

     total energy              =  -27900.67054057 Ry
     estimated scf accuracy    <       0.00639982 Ry

     iteration # 10     ecut=    60.00 Ry     beta= 0.70
     Davidson diagonalization with overlap
     ethr =  1.68E-06,  avg # of iterations = 11.3

     negative rho (up, down):  5.472E-02 0.000E+00

     total cpu time spent up to now is     8420.8 secs

     total energy              =  -27900.67010854 Ry
     estimated scf accuracy    <       0.00315790 Ry

     iteration # 11     ecut=    60.00 Ry     beta= 0.70
     Davidson diagonalization with overlap
     ethr =  8.27E-07,  avg # of iterations =  2.5

     negative rho (up, down):  4.436E-02 0.000E+00

     total cpu time spent up to now is     9011.8 secs

     total energy              =  -27900.66968980 Ry
     estimated scf accuracy    <       0.00095257 Ry

     iteration # 12     ecut=    60.00 Ry     beta= 0.70
     Davidson diagonalization with overlap
     c_bands:  1 eigenvalues not converged
     ethr =  2.49E-07,  avg # of iterations =  6.8

     negative rho (up, down):  3.859E-02 0.000E+00

     total cpu time spent up to now is     9670.5 secs

     total energy              =  -27900.66950401 Ry
     estimated scf accuracy    <       0.00066315 Ry

     iteration # 13     ecut=    60.00 Ry     beta= 0.70
     Davidson diagonalization with overlap
     c_bands:  1 eigenvalues not converged
     ethr =  1.74E-07,  avg # of iterations =  4.2

     negative rho (up, down):  3.011E-02 0.000E+00

     total cpu time spent up to now is    10274.1 secs

     total energy              =  -27900.66924542 Ry
     estimated scf accuracy    <       0.00074064 Ry

     iteration # 14     ecut=    60.00 Ry     beta= 0.70
     Davidson diagonalization with overlap
     c_bands:  1 eigenvalues not converged
     ethr =  1.74E-07,  avg # of iterations =  5.2

     negative rho (up, down):  2.556E-02 0.000E+00

     total cpu time spent up to now is    10870.7 secs

     total energy              =  -27900.66914613 Ry
     estimated scf accuracy    <       0.00039023 Ry

     iteration # 15     ecut=    60.00 Ry     beta= 0.70
     Davidson diagonalization with overlap
     c_bands:  1 eigenvalues not converged
     c_bands:  1 eigenvalues not converged
     c_bands:  1 eigenvalues not converged
     ethr =  1.02E-07,  avg # of iterations =  5.5

     negative rho (up, down):  2.153E-02 0.000E+00

     total cpu time spent up to now is    11467.7 secs

     total energy              =  -27900.66907710 Ry
     estimated scf accuracy    <       0.00024558 Ry

     iteration # 16     ecut=    60.00 Ry     beta= 0.70
     Davidson diagonalization with overlap
     ethr =  6.43E-08,  avg # of iterations =  5.8

     negative rho (up, down):  1.793E-02 0.000E+00

     total cpu time spent up to now is    12088.1 secs

     total energy              =  -27900.66904450 Ry
     estimated scf accuracy    <       0.00018402 Ry

     iteration # 17     ecut=    60.00 Ry     beta= 0.70
     Davidson diagonalization with overlap
     ethr =  4.82E-08,  avg # of iterations =  1.8

     negative rho (up, down):  1.606E-02 0.000E+00

     total cpu time spent up to now is    12653.8 secs

     total energy              =  -27900.66903811 Ry
     estimated scf accuracy    <       0.00005324 Ry

     iteration # 18     ecut=    60.00 Ry     beta= 0.70
     Davidson diagonalization with overlap
     ethr =  1.39E-08,  avg # of iterations =  5.5

     negative rho (up, down):  1.559E-02 0.000E+00

     total cpu time spent up to now is    13318.8 secs

     total energy              =  -27900.66904236 Ry
     estimated scf accuracy    <       0.00002110 Ry

     iteration # 19     ecut=    60.00 Ry     beta= 0.70
     Davidson diagonalization with overlap
     ethr =  5.52E-09,  avg # of iterations =  3.8

     negative rho (up, down):  1.549E-02 0.000E+00

     total cpu time spent up to now is    13997.9 secs

     total energy              =  -27900.66904548 Ry
     estimated scf accuracy    <       0.00000628 Ry

     iteration # 20     ecut=    60.00 Ry     beta= 0.70
     Davidson diagonalization with overlap
     ethr =  1.65E-09,  avg # of iterations =  4.5

     negative rho (up, down):  1.543E-02 0.000E+00

     total cpu time spent up to now is    14816.4 secs

     total energy              =  -27900.66904739 Ry
     estimated scf accuracy    <       0.00000143 Ry

     iteration # 21     ecut=    60.00 Ry     beta= 0.70
     Davidson diagonalization with overlap
     ethr =  3.75E-10,  avg # of iterations =  3.7

     negative rho (up, down):  1.536E-02 0.000E+00

     total cpu time spent up to now is    15523.8 secs

     End of self-consistent calculation

          k = 0.0000 0.0000 0.0000 ( 92217 PWs)   bands (ev):

   -21.1969 -18.4493 -18.0382  -7.8726  -7.5321  -6.6770  -6.5056  -5.4673
    -5.4236  -5.4122  -5.4101  -5.3997  -5.3866  -5.3779  -5.3703  -4.8728
    -4.8654  -4.8566  -4.8434  -4.8358  -4.8336  -4.7459  -4.5840  -4.3926
    -4.3842  -4.3823  -4.3759  -4.3598  -4.3545  -4.1723  -4.1593  -4.1581
    -4.1480  -4.1392  -4.1248  -3.9486  -3.9477  -3.9397  -3.9362  -3.9304
    -3.9216  -3.9207  -3.9145  -3.9109  -3.9035  -3.8794  -3.8660  -3.3612
    -3.3492  -3.3139  -3.3088  -3.2958  -3.2823  -3.2502  -3.2375  -3.2364
    -3.2336  -3.1140  -3.0725  -3.0345  -2.9784  -2.8667  -2.5656  -2.5484
    -2.5200  -2.4919  -2.4898  -2.4679  -2.4097  -2.3735  -2.3227  -2.3220
    -2.3185  -2.3016  -2.2910  -2.2901  -2.2802  -2.2612  -2.2552  -2.2459
    -2.2374  -2.2231  -2.2167  -2.1597  -2.1591  -2.0877  -2.0828  -2.0611
    -2.0506  -2.0247  -1.9769  -1.9457  -1.9245  -1.9089  -1.8948  -1.8933
    -1.8575  -1.8401  -1.8338  -1.8122  -1.7846  -1.7383  -1.7360  -1.6395
    -1.6384  -1.6079  -1.5993  -1.5937  -1.5778  -1.5052  -1.4521  -1.4357
    -1.4349  -1.4177  -1.3100  -1.1892  -1.1453  -1.0179  -0.9874  -0.9740
    -0.9733  -0.9555  -0.9527  -0.9292  -0.9181  -0.8840  -0.8192  -0.8109
    -0.7901  -0.7683  -0.7501  -0.6974  -0.6680  -0.6239  -0.6028  -0.5497
    -0.5489  -0.4827  -0.4707  -0.4687  -0.4591  -0.4522  -0.3440  -0.2487
    -0.2230  -0.2215  -0.2141  -0.1963  -0.1642  -0.1406  -0.1260  -0.0871
     0.0042   0.0457   0.0509   0.0568   0.0894   0.1004   0.1363   0.1777
     0.1905   0.2093   0.2226   0.2313   0.2326   0.2613   0.2764   0.2870
     0.3323   0.3362   0.3608   0.3754   0.3784   0.3952   0.4106   0.4357
     0.4494   0.4618   0.4730   0.4940   0.4954   0.5024   0.5215   0.5335
     0.5489   0.5729   0.6045   0.6113   0.6154   0.6259   0.6443   0.6512
     0.6521   0.7261   0.7300   0.7357   0.7505   0.7547   0.9230   0.9389
     1.0306   1.0316   1.0549   1.0655   1.0706   1.0776   1.2296   1.2336
     1.9502   1.9732   1.9994   2.0031   2.0364   2.5277   3.0081   4.2902
     4.3188   4.3323   4.3403   4.7412   4.9839   5.8331   5.8393   5.8740
     5.8749   5.8938   5.8946   6.2938   6.6010

          k = 0.0000 0.2309 0.0000 ( 92102 PWs)   bands (ev):

   -21.1969 -18.4493 -18.0382  -7.7563  -7.5002  -6.6769  -6.3651  -5.9132
    -5.5154  -5.5048  -5.3226  -5.2640  -5.2123  -5.1682  -5.1567  -4.9844
    -4.9483  -4.7979  -4.7923  -4.7707  -4.7528  -4.7338  -4.5781  -4.4757
    -4.3538  -4.3520  -4.3311  -4.3083  -4.2647  -4.2523  -4.1979  -4.1923
    -4.1780  -4.1647  -4.1146  -4.0741  -4.0685  -3.9663  -3.9518  -3.9354
    -3.9147  -3.9136  -3.7446  -3.7270  -3.7233  -3.7146  -3.6885  -3.4567
    -3.4435  -3.4266  -3.3832  -3.3769  -3.3454  -3.3388  -3.1774  -3.1573
    -3.0926  -3.0861  -3.0535  -3.0182  -2.9868  -2.9074  -2.7569  -2.6888
    -2.6682  -2.6583  -2.5943  -2.5748  -2.5240  -2.5099  -2.4726  -2.4664
    -2.4553  -2.4258  -2.3950  -2.3398  -2.3317  -2.3095  -2.2979  -2.2456
    -2.2182  -2.1988  -2.1856  -2.1448  -2.1160  -2.0573  -2.0470  -2.0306
    -2.0265  -1.9994  -1.9969  -1.9749  -1.9244  -1.9130  -1.8937  -1.8736
    -1.8576  -1.8292  -1.7930  -1.7664  -1.7507  -1.7356  -1.7133  -1.7101
    -1.6881  -1.6413  -1.6400  -1.6131  -1.5439  -1.5109  -1.4939  -1.4634
    -1.4443  -1.4207  -1.4041  -1.3734  -1.3650  -1.3398  -1.3391  -1.2999
    -1.2003  -1.1135  -1.0521  -1.0290  -0.9513  -0.9490  -0.9226  -0.9175
    -0.8841  -0.8825  -0.7833  -0.7185  -0.6787  -0.6380  -0.6330  -0.5604
    -0.5584  -0.5448  -0.5386  -0.4801  -0.4541  -0.4241  -0.3955  -0.3677
    -0.3615  -0.3257  -0.3213  -0.2751  -0.2312  -0.1320  -0.1129  -0.0924
    -0.0914  -0.0814  -0.0160  -0.0010   0.0376   0.0590   0.0813   0.1229
     0.1261   0.1476   0.1531   0.1765   0.2002   0.2182   0.2933   0.3007
     0.3780   0.3979   0.4251   0.4401   0.4580   0.4775   0.5075   0.5140
     0.5604   0.5841   0.5907   0.6311   0.6654   0.6809   0.6815   0.7093
     0.7133   0.7205   0.7371   0.7748   0.7850   0.8997   0.9178   0.9307
     0.9529   0.9685   0.9770   1.0050   1.0191   1.0547   1.0637   1.0663
     1.1640   1.1714   1.1956   1.3409   1.3517   1.3745   1.4134   1.4383
     1.7332   2.0749   2.1011   2.5936   2.7052   2.8243   3.1313   3.8195
     4.2268   4.2584   4.6899   4.6949   4.9455   5.0962   5.3708   5.6992
     5.7115   6.0574   6.0641   6.2127   6.3995

          k = 0.0000 0.4619 0.0000 ( 92076 PWs)   bands (ev):

   -21.1969 -18.4493 -18.0382  -7.6178  -7.2191  -6.6767  -6.6059  -5.9673
    -5.5481  -5.5362  -5.4218  -5.1887  -5.0417  -4.9477  -4.8792  -4.8337
    -4.8185  -4.7500  -4.6724  -4.6391  -4.6329  -4.5996  -4.5957  -4.5391
    -4.4737  -4.4401  -4.4255  -4.3904  -4.3786  -4.3351  -4.3019  -4.2498
    -4.2480  -4.2290  -3.9929  -3.9894  -3.9820  -3.9768  -3.9571  -3.9556
    -3.7422  -3.7242  -3.7054  -3.7032  -3.6800  -3.6753  -3.5082  -3.4331
    -3.4017  -3.3913  -3.3862  -3.3457  -3.3450  -3.2886  -3.2502  -3.2385
    -3.2015  -3.1885  -3.0915  -3.0675  -3.0119  -3.0066  -2.9441  -2.8755
    -2.8486  -2.8346  -2.8131  -2.7145  -2.6531  -2.6129  -2.5907  -2.5769
    -2.5512  -2.5293  -2.4827  -2.4555  -2.4338  -2.3549  -2.3435  -2.3266
    -2.2518  -2.2336  -2.2050  -2.1979  -2.1903  -2.1736  -2.1381  -2.1172
    -2.1000  -2.0842  -2.0822  -2.0728  -2.0441  -2.0351  -1.9948  -1.9512
    -1.9281  -1.9237  -1.9029  -1.8922  -1.8078  -1.7855  -1.7442  -1.7183
    -1.6882  -1.6573  -1.6340  -1.6068  -1.5992  -1.5416  -1.5317  -1.4859
    -1.4535  -1.4344  -1.4163  -1.3632  -1.3483  -1.3124  -1.2380  -1.1842
    -1.1356  -1.1071  -1.0509  -1.0470  -1.0037  -0.9938  -0.9887  -0.9534
    -0.9160  -0.9078  -0.8847  -0.8660  -0.8364  -0.8232  -0.8150  -0.7624
    -0.7561  -0.7041  -0.6984  -0.6431  -0.6080  -0.6029  -0.5425  -0.4831
    -0.4400  -0.4184  -0.3335  -0.2780  -0.2623  -0.1645  -0.1319  -0.1151
    -0.0981  -0.0863  -0.0808  -0.0617   0.0095   0.0240   0.0344   0.0373
     0.0804   0.0903   0.1157   0.1948   0.2053   0.2209   0.2215   0.2683
     0.3143   0.3981   0.4441   0.4852   0.4864   0.5002   0.5168   0.5472
     0.6078   0.6163   0.6635   0.7357   0.7533   0.7937   0.7986   0.8175
     0.8179   0.8893   0.9131   0.9501   0.9560   0.9657   0.9766   0.9904
     1.0090   1.1567   1.1713   1.1930   1.2063   1.2192   1.3773   1.4123
     1.4412   1.4988   1.9044   1.9668   2.1649   2.2589   2.2930   2.4113
     2.6671   2.6873   3.0031   3.1088   3.4725   3.4756   3.5573   3.7592
     3.8388   3.8606   4.1055   4.1473   4.2637   4.2723   4.8167   5.0861
     5.4216   5.4506   5.9517   5.9794   6.5576

          k = 0.2000-0.1155 0.0000 ( 92102 PWs)   bands (ev):

   -21.1969 -18.4493 -18.0382  -7.7538  -7.5020  -6.6851  -6.3593  -5.9053
    -5.5200  -5.5066  -5.3211  -5.2632  -5.2094  -5.1677  -5.1596  -4.9661
    -4.9447  -4.8158  -4.7977  -4.7716  -4.7674  -4.7244  -4.5717  -4.4698
    -4.3566  -4.3475  -4.3299  -4.3245  -4.2599  -4.2525  -4.1966  -4.1916
    -4.1765  -4.1667  -4.1184  -4.0780  -4.0594  -3.9640  -3.9534  -3.9434
    -3.9165  -3.9124  -3.7416  -3.7341  -3.7233  -3.7155  -3.6843  -3.4657
    -3.4466  -3.4271  -3.3799  -3.3759  -3.3419  -3.3239  -3.1853  -3.1436
    -3.1025  -3.0806  -3.0467  -3.0185  -2.9921  -2.9053  -2.7557  -2.6841
    -2.6693  -2.6340  -2.6133  -2.5805  -2.5205  -2.5103  -2.4784  -2.4649
    -2.4617  -2.4214  -2.3931  -2.3637  -2.3362  -2.2962  -2.2883  -2.2266
    -2.2116  -2.2014  -2.1712  -2.1382  -2.1183  -2.0985  -2.0652  -2.0371
    -2.0149  -2.0094  -1.9960  -1.9679  -1.9319  -1.9118  -1.9078  -1.8990
    -1.8523  -1.7913  -1.7859  -1.7688  -1.7573  -1.7358  -1.7113  -1.7002
    -1.6783  -1.6593  -1.6369  -1.6123  -1.5457  -1.5153  -1.4815  -1.4669
    -1.4395  -1.4212  -1.4152  -1.3851  -1.3610  -1.3440  -1.3364  -1.3148
    -1.1629  -1.1242  -1.0525  -1.0323  -0.9683  -0.9307  -0.9243  -0.9121
    -0.8815  -0.8380  -0.8145  -0.7874  -0.7279  -0.6496  -0.5960  -0.5770
    -0.5479  -0.5398  -0.5251  -0.4937  -0.4453  -0.4249  -0.3778  -0.3725
    -0.3388  -0.3235  -0.3108  -0.2560  -0.1940  -0.1290  -0.1182  -0.1051
    -0.0785  -0.0628  -0.0381  -0.0087   0.0259   0.0664   0.0803   0.1137
     0.1204   0.1498   0.1661   0.1707   0.2050   0.2257   0.3048   0.3188
     0.3578   0.4140   0.4275   0.4472   0.4657   0.4809   0.5027   0.5237
     0.5536   0.5803   0.5992   0.6210   0.6615   0.6698   0.6866   0.6980
     0.7176   0.7215   0.7275   0.7736   0.7812   0.8853   0.9140   0.9432
     0.9598   0.9632   0.9786   0.9902   1.0216   1.0433   1.0686   1.0797
     1.1570   1.1809   1.1989   1.2459   1.3547   1.3731   1.3852   1.6293
     1.6551   1.9731   2.2172   2.5954   2.6369   2.8131   3.2524   3.7226
     4.1193   4.4066   4.6897   4.6924   4.9493   5.0872   5.3848   5.6914
     5.7098   6.0498   6.0726   6.1559   6.3960

          k = 0.2000 0.1155 0.0000 ( 92102 PWs)   bands (ev):

   -21.1969 -18.4493 -18.0382  -7.7538  -7.5020  -6.6851  -6.3593  -5.9057
    -5.5198  -5.5063  -5.3212  -5.2633  -5.2101  -5.1677  -5.1589  -4.9658
    -4.9449  -4.8161  -4.7977  -4.7716  -4.7676  -4.7243  -4.5712  -4.4701
    -4.3566  -4.3475  -4.3306  -4.3244  -4.2599  -4.2522  -4.1966  -4.1918
    -4.1763  -4.1672  -4.1186  -4.0780  -4.0588  -3.9642  -3.9537  -3.9436
    -3.9164  -3.9121  -3.7414  -3.7340  -3.7243  -3.7147  -3.6836  -3.4654
    -3.4458  -3.4271  -3.3801  -3.3768  -3.3424  -3.3239  -3.1857  -3.1435
    -3.1023  -3.0802  -3.0466  -3.0191  -2.9921  -2.9046  -2.7554  -2.6834
    -2.6688  -2.6335  -2.6130  -2.5796  -2.5220  -2.5111  -2.4783  -2.4651
    -2.4616  -2.4215  -2.3930  -2.3629  -2.3348  -2.2957  -2.2883  -2.2288
    -2.2122  -2.2030  -2.1713  -2.1381  -2.1189  -2.0977  -2.0653  -2.0369
    -2.0150  -2.0082  -1.9953  -1.9683  -1.9313  -1.9119  -1.9071  -1.9002
    -1.8520  -1.7917  -1.7864  -1.7688  -1.7566  -1.7359  -1.7110  -1.7002
    -1.6780  -1.6598  -1.6364  -1.6131  -1.5454  -1.5144  -1.4817  -1.4673
    -1.4407  -1.4209  -1.4152  -1.3857  -1.3612  -1.3444  -1.3367  -1.3167
    -1.1611  -1.1240  -1.0519  -1.0322  -0.9687  -0.9309  -0.9244  -0.9123
    -0.8808  -0.8394  -0.8145  -0.7861  -0.7280  -0.6493  -0.5961  -0.5776
    -0.5470  -0.5405  -0.5248  -0.4942  -0.4456  -0.4262  -0.3769  -0.3725
    -0.3397  -0.3230  -0.3105  -0.2536  -0.1939  -0.1302  -0.1185  -0.1059
    -0.0785  -0.0627  -0.0402  -0.0093   0.0276   0.0671   0.0799   0.1140
     0.1210   0.1500   0.1659   0.1713   0.2043   0.2265   0.3048   0.3195
     0.3578   0.4138   0.4274   0.4470   0.4657   0.4807   0.5026   0.5237
     0.5535   0.5802   0.5996   0.6205   0.6614   0.6696   0.6857   0.6985
     0.7179   0.7213   0.7265   0.7733   0.7809   0.8844   0.9144   0.9435
     0.9595   0.9634   0.9790   0.9909   1.0222   1.0435   1.0689   1.0800
     1.1578   1.1809   1.1988   1.2459   1.3547   1.3735   1.3851   1.6296
     1.6553   1.9726   2.2180   2.5949   2.6368   2.8137   3.2518   3.7218
     4.1197   4.4078   4.6896   4.6924   4.9495   5.0869   5.3846   5.6910
     5.7096   6.0500   6.0728   6.1544   6.3960

          k = 0.2000 0.3464 0.0000 ( 92140 PWs)   bands (ev):

   -21.1969 -18.4493 -18.0382  -7.6317  -7.3390  -6.6871  -6.1610  -6.1427
    -6.0887  -5.0988  -5.0918  -5.0808  -5.0626  -5.0459  -5.0144  -5.0018
    -4.9981  -4.9185  -4.8995  -4.7321  -4.5894  -4.5208  -4.5120  -4.4955
    -4.4859  -4.4191  -4.4003  -4.2774  -4.2570  -4.2509  -4.2398  -4.2280
    -4.1574  -4.1095  -4.0988  -4.0865  -4.0740  -4.0139  -3.9836  -3.9750
    -3.9369  -3.9166  -3.8552  -3.6070  -3.5217  -3.5048  -3.4863  -3.4721
    -3.4530  -3.4467  -3.4379  -3.3825  -3.3676  -3.2622  -3.2129  -3.2033
    -3.1338  -3.1156  -3.0763  -3.0328  -3.0214  -2.9753  -2.9365  -2.8604
    -2.7865  -2.7597  -2.7131  -2.6771  -2.6507  -2.6194  -2.6161  -2.5769
    -2.5472  -2.5241  -2.4343  -2.3920  -2.3805  -2.3659  -2.3293  -2.3202
    -2.2825  -2.2654  -2.2482  -2.2189  -2.1736  -2.1109  -2.0921  -2.0733
    -2.0643  -2.0470  -2.0326  -2.0094  -1.9948  -1.9753  -1.9582  -1.9163
    -1.8863  -1.8489  -1.8262  -1.8063  -1.7902  -1.7442  -1.7221  -1.7038
    -1.6756  -1.6576  -1.6478  -1.6372  -1.6185  -1.6018  -1.5778  -1.5467
    -1.5350  -1.5243  -1.4718  -1.4275  -1.4139  -1.3672  -1.3408  -1.2838
    -1.2363  -1.1989  -1.1457  -1.0955  -1.0756  -0.9698  -0.9468  -0.9282
    -0.9003  -0.8867  -0.8495  -0.8396  -0.8248  -0.7734  -0.7618  -0.7261
    -0.6903  -0.6365  -0.5987  -0.5383  -0.5070  -0.4924  -0.4566  -0.4225
    -0.3944  -0.3743  -0.3089  -0.2682  -0.2587  -0.2312  -0.1935  -0.1629
    -0.0985  -0.0843  -0.0545  -0.0305  -0.0094   0.0125   0.0431   0.0487
     0.0668   0.0761   0.0870   0.1197   0.1338   0.1867   0.2589   0.3000
     0.3380   0.4114   0.4385   0.4750   0.5134   0.6027   0.6101   0.6520
     0.6848   0.7270   0.7398   0.7500   0.7754   0.7946   0.8030   0.8091
     0.8355   0.8639   0.8699   0.8873   0.9344   0.9800   0.9909   1.0105
     1.0287   1.0653   1.0941   1.1763   1.2375   1.2724   1.3090   1.3366
     1.3543   1.4758   1.5010   1.5916   1.7705   2.0306   2.0488   2.2788
     2.5689   2.5762   2.7395   2.7927   3.3349   3.4358   3.4912   3.5621
     3.6606   4.0404   4.2479   4.6709   4.8635   4.9376   4.9475   5.4605
     5.5250   5.5603   5.6177   5.7436   5.9461

          k = 0.2000-0.5774 0.0000 ( 92130 PWs)   bands (ev):

   -21.1969 -18.4493 -18.0382  -7.6009  -6.8703  -6.8228  -6.6765  -6.2223
    -5.6208  -5.5915  -5.0902  -5.0846  -4.9662  -4.9156  -4.8208  -4.7997
    -4.7697  -4.7296  -4.6950  -4.6304  -4.5818  -4.5643  -4.5465  -4.5302
    -4.5181  -4.4997  -4.4441  -4.3851  -4.3590  -4.3418  -4.3214  -4.3181
    -4.2360  -4.1454  -4.1111  -4.0579  -3.9724  -3.9534  -3.9516  -3.9473
    -3.9117  -3.8310  -3.8157  -3.7244  -3.7092  -3.5347  -3.5240  -3.4937
    -3.4229  -3.4054  -3.3481  -3.3173  -3.2457  -3.1896  -3.1520  -3.1370
    -3.1105  -3.0769  -3.0366  -3.0225  -2.9695  -2.9539  -2.9089  -2.8956
    -2.8862  -2.8756  -2.8564  -2.8198  -2.7860  -2.7258  -2.6682  -2.6528
    -2.6207  -2.5575  -2.5053  -2.4800  -2.4522  -2.4381  -2.4091  -2.3844
    -2.3550  -2.3460  -2.3009  -2.2355  -2.2323  -2.2177  -2.1824  -2.1708
    -2.1378  -2.1190  -2.0936  -2.0157  -2.0100  -1.9879  -1.9534  -1.8939
    -1.8599  -1.8435  -1.8264  -1.7952  -1.7669  -1.7447  -1.7407  -1.7134
    -1.7060  -1.6970  -1.6672  -1.6254  -1.6125  -1.6086  -1.5974  -1.5844
    -1.5623  -1.5490  -1.5456  -1.4916  -1.4657  -1.3788  -1.3000  -1.2314
    -1.1985  -1.1842  -1.1769  -1.0919  -1.0663  -1.0470  -1.0247  -0.9934
    -0.9492  -0.9284  -0.9111  -0.9024  -0.8413  -0.8304  -0.7894  -0.7246
    -0.7159  -0.6881  -0.6463  -0.5940  -0.5424  -0.4651  -0.4506  -0.4099
    -0.3858  -0.3750  -0.3341  -0.3050  -0.2663  -0.2638  -0.2465  -0.2020
    -0.1792  -0.1423  -0.1082  -0.0673  -0.0657  -0.0375  -0.0144   0.0059
     0.0113   0.0584   0.0682   0.1451   0.1949   0.2093   0.3142   0.3282
     0.3621   0.4253   0.4489   0.4783   0.5638   0.5713   0.5772   0.6527
     0.7193   0.7403   0.7606   0.7814   0.7953   0.8175   0.8293   0.8652
     0.9207   0.9400   0.9496   0.9726   0.9948   0.9989   1.0154   1.0738
     1.1633   1.1879   1.2028   1.2061   1.2237   1.2718   1.3030   1.4007
     1.5088   1.6759   1.8359   2.3653   2.3717   2.6112   2.7098   2.7756
     2.7930   2.8074   3.1444   3.3719   3.4060   3.4457   3.8646   3.9078
     3.9892   4.0178   4.0907   4.2109   4.3006   4.4683   4.7665   4.8026
     4.8707   5.0979   5.4735   5.5010   5.5614

          k = 0.2000-0.3464 0.0000 ( 92140 PWs)   bands (ev):

   -21.1969 -18.4493 -18.0382  -7.6318  -7.3389  -6.6871  -6.1606  -6.1429
    -6.0887  -5.0988  -5.0914  -5.0803  -5.0621  -5.0464  -5.0147  -5.0020
    -4.9987  -4.9181  -4.8997  -4.7322  -4.5894  -4.5208  -4.5120  -4.4956
    -4.4855  -4.4190  -4.4001  -4.2773  -4.2565  -4.2507  -4.2406  -4.2278
    -4.1582  -4.1086  -4.1002  -4.0861  -4.0742  -4.0138  -3.9827  -3.9756
    -3.9371  -3.9163  -3.8547  -3.6068  -3.5232  -3.5039  -3.4883  -3.4732
    -3.4528  -3.4464  -3.4379  -3.3824  -3.3669  -3.2606  -3.2129  -3.2036
    -3.1347  -3.1156  -3.0763  -3.0325  -3.0213  -2.9757  -2.9368  -2.8603
    -2.7864  -2.7599  -2.7149  -2.6780  -2.6515  -2.6197  -2.6155  -2.5769
    -2.5469  -2.5250  -2.4351  -2.3899  -2.3812  -2.3653  -2.3292  -2.3200
    -2.2822  -2.2650  -2.2490  -2.2190  -2.1728  -2.1105  -2.0923  -2.0735
    -2.0650  -2.0472  -2.0320  -2.0093  -1.9949  -1.9751  -1.9575  -1.9145
    -1.8868  -1.8481  -1.8269  -1.8062  -1.7906  -1.7438  -1.7213  -1.7044
    -1.6750  -1.6568  -1.6482  -1.6372  -1.6182  -1.6019  -1.5783  -1.5471
    -1.5349  -1.5240  -1.4722  -1.4274  -1.4134  -1.3662  -1.3405  -1.2832
    -1.2368  -1.2001  -1.1449  -1.0964  -1.0754  -0.9691  -0.9454  -0.9283
    -0.9000  -0.8867  -0.8499  -0.8402  -0.8254  -0.7729  -0.7625  -0.7278
    -0.6918  -0.6355  -0.5975  -0.5382  -0.5070  -0.4924  -0.4569  -0.4224
    -0.3947  -0.3745  -0.3090  -0.2676  -0.2587  -0.2309  -0.1934  -0.1625
    -0.1000  -0.0837  -0.0538  -0.0305  -0.0100   0.0113   0.0428   0.0483
     0.0680   0.0758   0.0865   0.1193   0.1343   0.1873   0.2607   0.2993
     0.3381   0.4113   0.4385   0.4747   0.5135   0.6029   0.6102   0.6516
     0.6855   0.7269   0.7397   0.7499   0.7753   0.7946   0.8032   0.8092
     0.8358   0.8633   0.8701   0.8868   0.9349   0.9796   0.9913   1.0105
     1.0287   1.0655   1.0941   1.1756   1.2367   1.2716   1.3087   1.3358
     1.3544   1.4766   1.5012   1.5915   1.7709   2.0307   2.0489   2.2787
     2.5687   2.5759   2.7394   2.7922   3.3352   3.4356   3.4911   3.5622
     3.6601   4.0402   4.2486   4.6710   4.8631   4.9376   4.9469   5.4607
     5.5253   5.5595   5.6179   5.7437   5.9494

          k = 0.4000-0.2309 0.0000 ( 92076 PWs)   bands (ev):

   -21.1969 -18.4493 -18.0382  -7.6084  -7.2295  -6.7265  -6.5561  -5.9583
    -5.5541  -5.5393  -5.4089  -5.1804  -5.0370  -4.9367  -4.8787  -4.8438
    -4.8258  -4.7628  -4.6900  -4.6507  -4.6206  -4.6001  -4.5890  -4.5351
    -4.4724  -4.4396  -4.4239  -4.3845  -4.3683  -4.3466  -4.3084  -4.2539
    -4.2479  -4.2314  -3.9897  -3.9876  -3.9820  -3.9732  -3.9675  -3.9530
    -3.7446  -3.7293  -3.7056  -3.7027  -3.6870  -3.6739  -3.5283  -3.4347
    -3.4064  -3.3917  -3.3833  -3.3434  -3.3256  -3.2778  -3.2576  -3.2362
    -3.2049  -3.1821  -3.0797  -3.0491  -3.0218  -2.9958  -2.9493  -2.8749
    -2.8401  -2.8297  -2.8026  -2.7296  -2.6567  -2.6267  -2.5932  -2.5719
    -2.5474  -2.5001  -2.4647  -2.4526  -2.4047  -2.3825  -2.3408  -2.3355
    -2.2830  -2.2340  -2.2115  -2.1898  -2.1843  -2.1633  -2.1476  -2.1167
    -2.1096  -2.0862  -2.0841  -2.0764  -2.0422  -2.0286  -1.9800  -1.9625
    -1.9410  -1.9277  -1.9060  -1.8925  -1.8002  -1.7801  -1.7563  -1.7454
    -1.7177  -1.6641  -1.6525  -1.6213  -1.6046  -1.5713  -1.5150  -1.4730
    -1.4514  -1.4333  -1.3997  -1.3924  -1.3477  -1.2850  -1.2154  -1.1925
    -1.1295  -1.0973  -1.0805  -1.0365  -1.0104  -0.9887  -0.9823  -0.9682
    -0.9447  -0.9113  -0.8880  -0.8738  -0.8660  -0.8363  -0.8133  -0.7963
    -0.7235  -0.6857  -0.6625  -0.6480  -0.6048  -0.5676  -0.4939  -0.4683
    -0.4166  -0.3962  -0.3114  -0.2701  -0.2464  -0.1759  -0.1576  -0.1335
    -0.1137  -0.0857  -0.0751  -0.0602  -0.0339  -0.0047   0.0314   0.0587
     0.0858   0.1083   0.1205   0.1978   0.2064   0.2215   0.2421   0.2604
     0.3152   0.4122   0.4612   0.4749   0.4883   0.5044   0.5394   0.5475
     0.6049   0.6249   0.6654   0.7284   0.7429   0.7855   0.7909   0.8134
     0.8282   0.8669   0.9207   0.9410   0.9622   0.9754   0.9807   0.9912
     1.0003   1.1392   1.1717   1.1861   1.2122   1.2302   1.3602   1.3812
     1.4420   1.5424   1.9090   1.9593   2.1017   2.2568   2.2705   2.4976
     2.6700   2.6988   3.0015   3.1160   3.4701   3.4789   3.5548   3.7415
     3.8158   3.8675   4.0474   4.1557   4.1742   4.4440   4.8274   5.0453
     5.3810   5.4715   5.9193   6.0186   6.5624

          k = 0.4000-0.0000 0.0000 ( 92140 PWs)   bands (ev):

   -21.1969 -18.4493 -18.0382  -7.6244  -7.3481  -6.6909  -6.1782  -6.1226
    -6.0816  -5.1046  -5.0843  -5.0744  -5.0534  -5.0394  -5.0297  -5.0021
    -4.9956  -4.9140  -4.8948  -4.7553  -4.5995  -4.5167  -4.5072  -4.5016
    -4.4589  -4.4289  -4.4129  -4.2732  -4.2598  -4.2489  -4.2457  -4.2348
    -4.1442  -4.1183  -4.0916  -4.0818  -4.0741  -4.0175  -3.9837  -3.9733
    -3.9406  -3.9289  -3.8496  -3.6051  -3.5230  -3.5021  -3.4950  -3.4860
    -3.4612  -3.4439  -3.4360  -3.3823  -3.3533  -3.2357  -3.2218  -3.2104
    -3.1322  -3.1034  -3.0610  -3.0325  -3.0175  -2.9809  -2.9437  -2.8577
    -2.7900  -2.7725  -2.7159  -2.6829  -2.6377  -2.6315  -2.6168  -2.5697
    -2.5446  -2.5092  -2.4310  -2.3867  -2.3775  -2.3560  -2.3465  -2.3113
    -2.2857  -2.2722  -2.2459  -2.2234  -2.1756  -2.1257  -2.0938  -2.0771
    -2.0622  -2.0389  -2.0345  -2.0239  -1.9934  -1.9702  -1.9651  -1.9500
    -1.8909  -1.8298  -1.8239  -1.8111  -1.7691  -1.7400  -1.7114  -1.7091
    -1.6662  -1.6564  -1.6399  -1.6284  -1.6152  -1.6004  -1.5945  -1.5545
    -1.5185  -1.4830  -1.4773  -1.4429  -1.4221  -1.4013  -1.3749  -1.2925
    -1.2649  -1.1790  -1.1450  -1.0986  -1.0727  -0.9817  -0.9587  -0.9232
    -0.9087  -0.8778  -0.8512  -0.8359  -0.8193  -0.7879  -0.7625  -0.7410
    -0.7061  -0.6651  -0.5792  -0.5331  -0.5057  -0.4713  -0.4595  -0.3879
    -0.3810  -0.3388  -0.2987  -0.2867  -0.2322  -0.1956  -0.1944  -0.1236
    -0.1031  -0.0890  -0.0628  -0.0460   0.0076   0.0181   0.0300   0.0432
     0.0645   0.0722   0.0878   0.1110   0.1262   0.1871   0.2562   0.2799
     0.3564   0.3980   0.4296   0.4650   0.5417   0.5979   0.6384   0.6469
     0.6693   0.7253   0.7334   0.7590   0.7620   0.7898   0.8104   0.8180
     0.8218   0.8619   0.8799   0.8907   0.9338   0.9688   0.9858   1.0157
     1.0328   1.0478   1.1203   1.1565   1.2345   1.2757   1.3202   1.3449
     1.3706   1.4378   1.4998   1.5245   1.8796   2.0234   2.0868   2.2105
     2.5502   2.5856   2.6532   2.8810   3.3266   3.4457   3.4832   3.5774
     3.7747   3.9067   4.2234   4.6711   4.7945   4.9324   5.1136   5.4420
     5.5093   5.5548   5.6240   5.7700   5.8693

          k = 0.4000 0.2309 0.0000 ( 92076 PWs)   bands (ev):

   -21.1969 -18.4493 -18.0382  -7.6084  -7.2296  -6.7265  -6.5562  -5.9583
    -5.5539  -5.5392  -5.4089  -5.1811  -5.0370  -4.9372  -4.8789  -4.8439
    -4.8248  -4.7630  -4.6901  -4.6504  -4.6204  -4.6001  -4.5889  -4.5356
    -4.4724  -4.4396  -4.4241  -4.3842  -4.3687  -4.3467  -4.3085  -4.2540
    -4.2479  -4.2316  -3.9897  -3.9875  -3.9817  -3.9721  -3.9675  -3.9534
    -3.7446  -3.7290  -3.7054  -3.7022  -3.6868  -3.6738  -3.5273  -3.4347
    -3.4066  -3.3912  -3.3838  -3.3437  -3.3257  -3.2777  -3.2571  -3.2363
    -3.2057  -3.1822  -3.0786  -3.0492  -3.0217  -2.9959  -2.9485  -2.8743
    -2.8402  -2.8281  -2.8032  -2.7292  -2.6566  -2.6258  -2.5935  -2.5724
    -2.5478  -2.5002  -2.4634  -2.4534  -2.4035  -2.3851  -2.3421  -2.3361
    -2.2826  -2.2348  -2.2104  -2.1896  -2.1843  -2.1629  -2.1484  -2.1167
    -2.1094  -2.0865  -2.0844  -2.0758  -2.0409  -2.0283  -1.9788  -1.9615
    -1.9431  -1.9283  -1.9058  -1.8918  -1.8007  -1.7813  -1.7561  -1.7461
    -1.7174  -1.6643  -1.6529  -1.6216  -1.6053  -1.5727  -1.5162  -1.4729
    -1.4514  -1.4328  -1.4009  -1.3929  -1.3475  -1.2866  -1.2158  -1.1924
    -1.1293  -1.0971  -1.0809  -1.0365  -1.0096  -0.9882  -0.9834  -0.9679
    -0.9437  -0.9114  -0.8883  -0.8729  -0.8663  -0.8346  -0.8140  -0.7963
    -0.7220  -0.6855  -0.6625  -0.6480  -0.6049  -0.5679  -0.4938  -0.4695
    -0.4166  -0.3962  -0.3119  -0.2702  -0.2446  -0.1754  -0.1589  -0.1344
    -0.1145  -0.0862  -0.0744  -0.0600  -0.0357  -0.0043   0.0324   0.0591
     0.0857   0.1085   0.1209   0.1982   0.2063   0.2221   0.2418   0.2598
     0.3128   0.4125   0.4610   0.4763   0.4877   0.5053   0.5392   0.5475
     0.6052   0.6251   0.6653   0.7282   0.7419   0.7865   0.7908   0.8129
     0.8278   0.8667   0.9204   0.9415   0.9623   0.9757   0.9809   0.9915
     1.0011   1.1394   1.1719   1.1863   1.2132   1.2303   1.3599   1.3812
     1.4420   1.5422   1.9080   1.9591   2.1032   2.2566   2.2703   2.4976
     2.6700   2.6994   3.0022   3.1157   3.4702   3.4788   3.5561   3.7409
     3.8152   3.8672   4.0476   4.1560   4.1743   4.4446   4.8282   5.0445
     5.3805   5.4715   5.9191   6.0188   6.5614

          k = 0.4000-0.6928 0.0000 ( 92130 PWs)   bands (ev):

   -21.1969 -18.4493 -18.0382  -7.5953  -6.8992  -6.8348  -6.6339  -6.2338
    -5.6051  -5.5905  -5.1051  -5.0756  -4.9573  -4.9157  -4.8383  -4.8028
    -4.7748  -4.7163  -4.6722  -4.6367  -4.5804  -4.5728  -4.5506  -4.5321
    -4.5198  -4.5019  -4.4544  -4.3775  -4.3629  -4.3588  -4.3197  -4.2990
    -4.2398  -4.1480  -4.1096  -4.0554  -3.9718  -3.9597  -3.9516  -3.9380
    -3.9156  -3.8295  -3.8206  -3.7204  -3.7072  -3.5498  -3.5273  -3.5047
    -3.4201  -3.3878  -3.3390  -3.3259  -3.2461  -3.1892  -3.1466  -3.1284
    -3.1155  -3.0760  -3.0389  -3.0216  -2.9775  -2.9331  -2.9089  -2.8889
    -2.8816  -2.8725  -2.8613  -2.8048  -2.7969  -2.7557  -2.6661  -2.6375
    -2.6025  -2.5707  -2.5086  -2.4621  -2.4441  -2.4350  -2.3973  -2.3880
    -2.3537  -2.3242  -2.3123  -2.2772  -2.2529  -2.2179  -2.1822  -2.1710
    -2.1506  -2.1212  -2.0494  -2.0232  -2.0059  -1.9812  -1.9692  -1.9087
    -1.8761  -1.8256  -1.8199  -1.7885  -1.7710  -1.7559  -1.7331  -1.7186
    -1.7035  -1.6982  -1.6659  -1.6414  -1.6249  -1.6122  -1.5957  -1.5887
    -1.5554  -1.5439  -1.5414  -1.5007  -1.4847  -1.4135  -1.3322  -1.2421
    -1.1865  -1.1813  -1.1668  -1.0828  -1.0647  -1.0431  -1.0108  -0.9829
    -0.9475  -0.9367  -0.9123  -0.8950  -0.8516  -0.8107  -0.7737  -0.7155
    -0.6984  -0.6788  -0.6342  -0.6055  -0.5559  -0.4937  -0.4728  -0.4051
    -0.3818  -0.3406  -0.3177  -0.2878  -0.2762  -0.2597  -0.2369  -0.2143
    -0.1961  -0.1641  -0.1025  -0.0843  -0.0571  -0.0329  -0.0129   0.0114
     0.0302   0.0679   0.1002   0.1307   0.1801   0.2052   0.3186   0.3552
     0.3876   0.4113   0.4399   0.4568   0.5375   0.5772   0.6092   0.6556
     0.7255   0.7391   0.7493   0.7756   0.7902   0.8191   0.8396   0.8517
     0.9078   0.9362   0.9519   0.9672   0.9828   1.0087   1.0202   1.0699
     1.1605   1.1792   1.1985   1.2236   1.2307   1.2777   1.2951   1.3980
     1.5367   1.6793   1.7934   2.3650   2.3686   2.6608   2.7328   2.7568
     2.7833   2.8554   3.0190   3.3794   3.3911   3.5248   3.8566   3.9624
     3.9939   4.0015   4.0151   4.2194   4.3082   4.5413   4.6337   4.8320
     4.8878   5.0796   5.4729   5.4769   5.6456

          k = 0.4000-0.4619 0.0000 ( 92130 PWs)   bands (ev):

   -21.1969 -18.4493 -18.0382  -7.5954  -6.8988  -6.8351  -6.6338  -6.2339
    -5.6051  -5.5904  -5.1050  -5.0750  -4.9573  -4.9158  -4.8380  -4.8039
    -4.7747  -4.7156  -4.6722  -4.6366  -4.5819  -4.5729  -4.5500  -4.5319
    -4.5199  -4.5016  -4.4537  -4.3774  -4.3629  -4.3585  -4.3200  -4.2989
    -4.2399  -4.1475  -4.1100  -4.0559  -3.9718  -3.9595  -3.9513  -3.9380
    -3.9161  -3.8301  -3.8208  -3.7210  -3.7071  -3.5496  -3.5276  -3.5053
    -3.4196  -3.3871  -3.3392  -3.3261  -3.2459  -3.1883  -3.1462  -3.1283
    -3.1164  -3.0773  -3.0391  -3.0218  -2.9782  -2.9326  -2.9095  -2.8886
    -2.8814  -2.8722  -2.8617  -2.8041  -2.7979  -2.7564  -2.6662  -2.6373
    -2.6027  -2.5719  -2.5088  -2.4619  -2.4437  -2.4347  -2.3970  -2.3862
    -2.3530  -2.3233  -2.3131  -2.2772  -2.2532  -2.2179  -2.1839  -2.1711
    -2.1508  -2.1204  -2.0499  -2.0228  -2.0060  -1.9823  -1.9685  -1.9095
    -1.8749  -1.8254  -1.8195  -1.7879  -1.7717  -1.7560  -1.7323  -1.7180
    -1.7023  -1.6973  -1.6661  -1.6415  -1.6254  -1.6128  -1.5959  -1.5882
    -1.5555  -1.5435  -1.5419  -1.4996  -1.4835  -1.4132  -1.3326  -1.2424
    -1.1860  -1.1807  -1.1677  -1.0825  -1.0652  -1.0432  -1.0105  -0.9838
    -0.9475  -0.9366  -0.9128  -0.8955  -0.8511  -0.8102  -0.7741  -0.7163
    -0.6992  -0.6794  -0.6343  -0.6038  -0.5549  -0.4936  -0.4729  -0.4044
    -0.3830  -0.3403  -0.3182  -0.2879  -0.2759  -0.2592  -0.2362  -0.2146
    -0.1966  -0.1648  -0.1021  -0.0848  -0.0571  -0.0330  -0.0127   0.0116
     0.0301   0.0666   0.0999   0.1314   0.1810   0.2067   0.3186   0.3553
     0.3864   0.4110   0.4394   0.4573   0.5380   0.5768   0.6094   0.6559
     0.7253   0.7395   0.7493   0.7762   0.7904   0.8195   0.8387   0.8511
     0.9077   0.9365   0.9519   0.9676   0.9831   1.0086   1.0200   1.0699
     1.1604   1.1789   1.1981   1.2228   1.2306   1.2777   1.2946   1.3978
     1.5368   1.6796   1.7932   2.3651   2.3687   2.6607   2.7332   2.7580
     2.7846   2.8531   3.0188   3.3798   3.3909   3.5243   3.8572   3.9607
     3.9939   4.0018   4.0152   4.2172   4.3068   4.5421   4.6348   4.8329
     4.8879   5.0796   5.4734   5.4775   5.6444

     the Fermi energy is     0.9935 ev

!    total energy              =  -27900.66904748 Ry

     total all-electron energy =  -1327171.739251 Ry
     estimated scf accuracy    <       0.00000045 Ry
     smearing contrib. (-TS)   =       0.00064320 Ry
     internal energy E=F+TS    =  -27900.66969068 Ry

     The total energy is F=E-TS. E is the sum of the following terms:
     one-electron contribution =  -29223.60369794 Ry
     hartree contribution      =   14909.22416731 Ry
     xc contribution           =    -917.89564278 Ry
     ewald contribution        =   12842.54130386 Ry
     one-center paw contrib.   =  -25510.93582113 Ry

     convergence has been achieved in  21 iterations

     negative rho (up, down):  1.536E-02 0.000E+00

     Forces acting on atoms (cartesian axes, Ry/au):

     atom    1 type  1   force =    -0.00059019    0.00001100   -0.00692825
     atom    2 type  1   force =     0.00051793   -0.00001210   -0.00689919
     atom    3 type  1   force =     0.00000989   -0.00028464   -0.00374867
     atom    4 type  1   force =    -0.00001171   -0.00118552   -0.00249766
     atom    5 type  1   force =    -0.00072788   -0.00052057   -0.00354563
     atom    6 type  1   force =     0.00070250   -0.00053950   -0.00360100
     atom    7 type  1   force =     0.00020519    0.00079960   -0.00319179
     atom    8 type  1   force =    -0.00002475    0.00069648   -0.00263373
     atom    9 type  1   force =    -0.00020570    0.00079254   -0.00318045
     atom   10 type  1   force =     0.00012589    0.00231643    0.00397441
     atom   11 type  1   force =    -0.00265386    0.00156883    0.00425015
     atom   12 type  1   force =     0.00262448    0.00148228    0.00405297
     atom   13 type  1   force =     0.00134294   -0.00168409    0.00830779
     atom   14 type  1   force =    -0.00007671   -0.00032114    0.00963088
     atom   15 type  1   force =    -0.00124813   -0.00164342    0.00803095
     atom   16 type  1   force =     0.00000513   -0.00097090    0.00084198
     atom   17 type  1   force =     0.00001228   -0.00087082    0.00075799
     atom   18 type  1   force =     0.00001410   -0.00085307    0.00063940
     atom   19 type  1   force =     0.00017070   -0.00007271   -0.00026376
     atom   20 type  1   force =    -0.00005302   -0.00005478   -0.00022522
     atom   21 type  1   force =     0.00005984   -0.00004656    0.00014478
     atom   22 type  1   force =     0.00006046    0.00015993   -0.00007625
     atom   23 type  1   force =     0.00001681    0.00011567    0.00006203
     atom   24 type  1   force =     0.00007639    0.00009792    0.00006726
     atom   25 type  1   force =     0.00006063   -0.00009881    0.00000165
     atom   26 type  1   force =     0.00005822    0.00020973   -0.00016219
     atom   27 type  1   force =     0.00004039   -0.00010109   -0.00002851
     atom   28 type  1   force =     0.00004698   -0.00022574   -0.00020883
     atom   29 type  1   force =     0.00010916   -0.00024635   -0.00021724
     atom   30 type  1   force =     0.00006544    0.00013891   -0.00078520
     atom   31 type  1   force =     0.00003870    0.00033414   -0.00046050
     atom   32 type  1   force =    -0.00002572    0.00000118   -0.00089189
     atom   33 type  1   force =     0.00012395   -0.00003053   -0.00088874
     atom   34 type  1   force =    -0.00005944    0.00007649   -0.00020637
     atom   35 type  1   force =     0.00009673    0.00028162   -0.00063950
     atom   36 type  1   force =     0.00017597    0.00004291   -0.00022724
     atom   37 type  2   force =     0.00289583    0.00013558    0.00381544
     atom   38 type  3   force =    -0.00145116    0.00062756    0.01841165
     atom   39 type  2   force =    -0.00257433   -0.00009043    0.00403096
     atom   40 type  2   force =     0.00004607   -0.00003603   -0.02551248

     Total force =     0.032280     Total SCF correction =     0.002327

     negative rho (up, down):  1.536E-02 0.000E+00

     negative rho (up, down):  1.536E-02 0.000E+00

     negative rho (up, down):  1.536E-02 0.000E+00

     negative rho (up, down):  1.536E-02 0.000E+00

     negative rho (up, down):  1.536E-02 0.000E+00

     negative rho (up, down):  1.536E-02 0.000E+00

     negative rho (up, down):  1.536E-02 0.000E+00

     negative rho (up, down):  1.536E-02 0.000E+00

     negative rho (up, down):  1.536E-02 0.000E+00

     negative rho (up, down):  1.536E-02 0.000E+00

     negative rho (up, down):  1.536E-02 0.000E+00

     negative rho (up, down):  1.536E-02 0.000E+00

     negative rho (up, down):  1.536E-02 0.000E+00

     negative rho (up, down):  1.536E-02 0.000E+00

     negative rho (up, down):  1.536E-02 0.000E+00

     negative rho (up, down):  1.536E-02 0.000E+00

     negative rho (up, down):  1.536E-02 0.000E+00

     negative rho (up, down):  1.536E-02 0.000E+00

     negative rho (up, down):  1.536E-02 0.000E+00

     negative rho (up, down):  1.536E-02 0.000E+00

     negative rho (up, down):  1.536E-02 0.000E+00

     negative rho (up, down):  1.536E-02 0.000E+00

     negative rho (up, down):  1.536E-02 0.000E+00

     negative rho (up, down):  1.536E-02 0.000E+00

     negative rho (up, down):  1.536E-02 0.000E+00

     negative rho (up, down):  1.536E-02 0.000E+00

     negative rho (up, down):  1.536E-02 0.000E+00

     negative rho (up, down):  1.536E-02 0.000E+00

     negative rho (up, down):  1.536E-02 0.000E+00

     negative rho (up, down):  1.536E-02 0.000E+00

     negative rho (up, down):  1.536E-02 0.000E+00

     negative rho (up, down):  1.536E-02 0.000E+00

     negative rho (up, down):  1.536E-02 0.000E+00

     negative rho (up, down):  1.536E-02 0.000E+00
 BEEFens 2000 ensemble energies
             -0.614762810124195E+02
             -0.365829135033641E+01
             -0.160278006094444E+02
              0.435088651342809E+02
             -0.223876550708647E+02
             -0.207754571396918E+02
             -0.357945349182191E+02
             -0.877173242490435E+02
             -0.470854105493189E+02
             -0.478576878920114E+02
             -0.373953990845445E+02
              0.232674639808759E+01
              0.410971500564301E+01
              0.763224407318941E+01
              0.270974636441923E+01
              0.481024777125983E+02
             -0.211767262773637E+02
             -0.232693404691370E+02
              0.195304052865561E+02
             -0.113855947035621E+03
              0.543776223603886E+02
             -0.292708049302288E+02
             -0.341191543363013E+01
             -0.115523123259189E+02
             -0.888449471372485E+01
             -0.476329234261098E+01
              0.894400627531841E+02
             -0.189235672955513E+02
             -0.915668788955259E+01
             -0.525469714689365E+02
              0.825655580347723E+02
             -0.189076687454184E+02
             -0.380258952447941E+02
              0.252465058762774E+02
             -0.287950373809207E+01
              0.166702917526816E+02
             -0.487652389990848E+01
              0.108865017185589E+02
              0.291836804405952E+02
             -0.104650310707041E+03
              0.565477425071170E+02
              0.143998047200178E+02
             -0.179141393777894E+01
             -0.366146632068724E+02
              0.124583677220405E+02
             -0.148700608534919E+02
              0.404361952648082E+02
              0.369697520000371E+02
             -0.311436095923295E+02
             -0.279058789582136E+02
             -0.331978636894466E+02
             -0.356667495764165E+02
              0.137946879733473E+02
             -0.497841070547236E+02
              0.117443573316170E+02
              0.631177269126443E+02
              0.644350074819771E+02
              0.360230761947125E+02
              0.156681330409106E+02
              0.274198004598994E+02
              0.903025859647967E+02
              0.215571377889147E+02
             -0.555875537035503E+02
             -0.158806402174491E+02
             -0.239275608570296E+02
              0.638129521881013E+02
             -0.783776494408052E+02
             -0.679528561896072E+02
             -0.262834835706794E+02
             -0.660631036899872E+01
             -0.476989665481143E+02
              0.274206750034524E+02
              0.814889273457334E+01
              0.885989566368460E+01
             -0.401992000104853E+02
             -0.351471500109930E+02
             -0.549172283271778E+02
              0.395124098885763E+02
             -0.300042903049206E+02
              0.268535422672797E+02
             -0.721699301311752E+01
             -0.321999211154126E+02
             -0.583912638243950E+02
             -0.178797225574453E+02
             -0.923408779620252E+01
             -0.127142290248351E+02
              0.417303101150050E+02
              0.691919308473879E+02
             -0.391337911291103E+02
             -0.805469733579776E+02
             -0.222238360009281E+02
              0.112979240539825E+03
             -0.599482053820425E+02
              0.360251829497836E+02
             -0.972376066087668E+01
             -0.671642407907165E+02
              0.258079227786048E+02
              0.403011936019076E+02
             -0.200642308341611E+02
              0.404444147467594E+02
             -0.299530850953770E+02
             -0.485189311413227E+02
              0.877774836942124E+02
              0.460048232902819E+02
              0.340254230667362E+02
              0.148330060946887E+02
              0.208376171630971E+02
              0.867427658681512E+02
             -0.260128276558248E+02
              0.792664429738507E+01
             -0.144251847555278E+03
              0.183912789284998E+02
             -0.725158165041939E+02
              0.152649629837467E+02
              0.207408656574020E+02
             -0.337446026439324E+02
             -0.564079146014146E+02
              0.660414189935943E+01
             -0.307860599790421E+02
              0.312939730198315E+02
             -0.536112045168832E+02
              0.167675040213248E+01
             -0.361849947927292E+02
             -0.430235178631739E+01
             -0.104716838461627E+01
              0.183241017616841E+02
              0.141044676194861E+01
             -0.661689743645707E+01
              0.598349914306362E+02
              0.920148985628281E+02
              0.490303560232902E+02
              0.840364702047826E+02
             -0.116923839208228E+02
              0.144600232100412E+02
              0.548273751583611E+02
             -0.111532591778076E+02
             -0.745615265462646E+02
             -0.389007333720469E+02
             -0.528014205397196E+02
             -0.280503799673634E+02
              0.330599915947527E+02
             -0.118346925365889E+03
             -0.188995211925102E+02
              0.419813159102492E+02
             -0.391381126755990E+02
             -0.369475039966742E+02
              0.551071494156572E+02
              0.406854453534877E+02
             -0.357926321915510E+02
              0.140394306279036E+02
             -0.276260873534211E+02
              0.347944230495583E+02
              0.456754472632429E+01
              0.213297899394762E+02
             -0.895896877742093E+02
             -0.486701773448005E+02
             -0.100673808748355E+02
              0.324779836922169E+01
             -0.372143269136718E+02
              0.107411004560955E+03
             -0.233366685663001E+02
             -0.402613963085632E+02
              0.394226948824805E+02
             -0.500566264680627E+02
             -0.367729382278301E+02
              0.328869376891604E+02
              0.125861066516543E+02
              0.166120222015028E+02
              0.118002044135752E+02
             -0.134250111840155E+02
              0.227311541229936E+02
              0.598111001313992E+02
             -0.315701996089368E+02
              0.165086619169636E+02
              0.946173804574779E+02
              0.344733232507329E+02
             -0.739335921146687E+01
             -0.190868698809548E+02
              0.155365279740534E+03
             -0.166549587045282E+02
              0.367854991458829E+02
              0.197660465840580E+02
              0.366115285073997E+02
              0.904140531066481E+02
              0.549288402949510E+02
             -0.248460568791570E+01
              0.230624247469466E+02
              0.491049845335367E+02
              0.368676073637140E+02
             -0.533169246550591E+02
              0.948099325864833E+02
             -0.836634092204995E+02
             -0.200216199838467E+02
              0.590471037356768E+02
              0.686558789514254E+01
              0.796597110613993E+01
              0.345199830608719E+02
              0.301732970705712E+02
              0.358259758353420E+02
             -0.645941222497058E+02
              0.293181720247003E+01
             -0.300849566619856E+02
             -0.883813846288577E+01
             -0.147155766176184E+01
             -0.733174326964254E+01
             -0.421845115521603E+01
              0.870211433428091E+02
             -0.102089090668873E+02
             -0.280150251346604E+02
             -0.499669180838234E+01
              0.141593124141887E+02
             -0.571915648720520E+02
             -0.413128143763616E+02
             -0.386777655720131E+02
             -0.638211216724354E+02
             -0.171967345428260E+02
             -0.452867966348152E+02
              0.166044288535903E+02
             -0.240013295134906E+01
             -0.105987211395361E+02
             -0.945928106405719E+01
              0.815725802624837E+01
             -0.245529783682818E+02
              0.697710941188562E+02
             -0.818008191270330E+02
             -0.142937898931569E+02
             -0.176237053122143E+02
              0.184162867253716E+02
              0.216501983730951E+02
             -0.470063898175056E+02
             -0.204007900241594E+02
              0.446561433848278E+02
             -0.279088119681076E+02
              0.188668060951288E+02
              0.387684049778947E+02
             -0.323752871182069E+01
              0.115636803810831E+03
             -0.232578059634632E+02
             -0.345470880428105E+02
              0.585248256141097E+01
             -0.231289712163635E+02
              0.534708556858045E+02
             -0.342314916879523E+02
              0.107761230913850E+02
              0.648456857504590E+02
             -0.128239117393251E+02
              0.121764601969485E+03
              0.127538910694432E+03
             -0.658549861823669E+02
              0.597881880398677E+02
              0.168862313929010E+02
             -0.524804972026861E+02
              0.218792205282454E+02
              0.358562738030870E+02
              0.368074457982801E+02
              0.140679528747839E+01
              0.161155721156721E+02
              0.704976619907750E+02
             -0.249888273354195E+02
              0.182894207504877E+02
              0.748812094116196E+02
             -0.377581136839690E+02
             -0.131860854905415E+02
              0.515468884050014E+02
              0.301117340970346E+02
              0.790562825637945E+02
              0.226294710175223E+02
              0.635914594028833E+01
              0.284000695986988E+02
              0.388430151747143E+02
             -0.477700891132669E+02
              0.336875921645748E+01
              0.131986870377340E+02
              0.115037969705149E+02
              0.223329131904872E+02
             -0.582422681881630E+02
              0.370465425922163E+02
             -0.449637726335018E+02
             -0.351308442026133E+02
              0.179966442335673E+02
             -0.183196806124548E+02
              0.562096381227965E+02
             -0.259037006111016E+02
              0.270469477643635E+02
              0.372317525850937E+02
              0.839469020624582E+02
              0.581679387695761E+02
              0.468137665500994E+02
             -0.107053285361600E+02
             -0.399523724205977E+01
             -0.336061676980540E+02
              0.760650117676225E+02
              0.807713693065203E+02
              0.366795390750375E+02
             -0.195130102470071E+02
              0.518360681431144E+02
             -0.163848047149340E+02
              0.217698875645374E+02
              0.622898765216602E+02
              0.212040660060916E+01
             -0.105691531809222E+02
             -0.286177846670257E+02
             -0.518473505396275E+02
              0.957702965700424E+02
              0.445549534762939E+02
             -0.566659828812193E+02
             -0.985423049151939E+01
              0.253629396462896E+02
             -0.101271550814300E+02
              0.600384185964801E+02
              0.154106989958621E+02
              0.809655587218911E+02
              0.283071048910133E+02
             -0.267702994266070E+02
              0.252030492653903E+02
             -0.510043701380425E+01
             -0.327685031620881E+02
              0.135445507794959E+02
              0.208187754975896E+02
              0.944137761985846E+02
              0.807578946524737E+02
              0.557976522351340E+02
              0.739850048091939E+02
              0.807810383180711E+01
             -0.277007526943365E+02
              0.164922547143480E+02
             -0.372668159551740E+02
             -0.482992417431068E+02
             -0.571394332082057E+02
             -0.270473479515318E+02
             -0.111111576012771E+03
             -0.295514547106436E+02
             -0.848392182719301E+02
              0.212553475567436E+02
             -0.483082665453593E+02
              0.402556312553692E+02
             -0.953677866990951E+02
             -0.333925214940167E+02
              0.554881865492509E+02
              0.210539834273183E+02
             -0.841815066811228E+02
              0.638796142252459E+02
             -0.260220416484822E+02
              0.519554271929664E+02
             -0.246652285741297E+02
             -0.761646157157626E+02
              0.114229284542248E+02
             -0.619981218008797E+02
             -0.169779599376081E+02
             -0.147121675181203E+01
              0.424097761442029E+02
              0.128635924037035E+03
             -0.467635460960728E+02
             -0.367497343507198E+02
             -0.101152689507319E+01
             -0.131971881781888E+02
             -0.833070061455234E+02
             -0.604367700100313E+02
              0.523869619846869E+02
             -0.292189175340974E+02
              0.171405798436537E+02
             -0.495961888674177E+02
             -0.133825917665934E+02
             -0.442733000853860E+02
              0.572168800915376E+02
              0.153254754624626E+02
             -0.234557105772222E+02
             -0.128726112292443E+02
              0.680286141554036E+01
             -0.632340760170041E+01
              0.447317694794082E+02
             -0.255501248660847E+02
              0.283132459441333E+01
              0.343383534516307E+02
              0.173543097428238E+02
             -0.162145907954632E+02
              0.158295039380551E+03
              0.545009542520736E+02
              0.124816854317250E+01
              0.162875804599962E+02
             -0.622707555780944E+02
              0.319092120785290E+02
             -0.731586445296244E+02
             -0.255927685579235E+02
             -0.529919449705775E+02
             -0.222318286552484E+02
              0.576349006269020E+02
             -0.544393666317984E+02
              0.163505435496276E+02
             -0.409989332827956E+01
              0.392413271739125E+01
             -0.438579930854318E+02
             -0.483928787983717E+02
             -0.400371284205505E+01
             -0.430497098528866E+02
             -0.220432528642833E+02
             -0.443709990939190E+02
             -0.120460952053811E+02
             -0.363458160925769E+02
             -0.523209739077033E+02
              0.216025698909027E+02
             -0.211743836080009E+02
              0.190495046850812E+02
              0.988459387371464E+01
             -0.747607533101762E+02
             -0.555212396997333E+02
             -0.403591150930505E+02
              0.359166883856524E+02
              0.268561213027957E+01
             -0.635286584315658E+02
              0.592911248976631E+02
             -0.406507348724504E+02
              0.551841623989005E+02
             -0.293428884323293E+02
             -0.452492220244488E+02
              0.302249808086640E+02
             -0.666944142354216E+02
             -0.384633676772531E+02
              0.680979857434068E+02
              0.206322205599727E+02
             -0.365056684487976E+02
              0.496323239481251E+02
             -0.176232240162375E+02
             -0.327485453948561E+02
             -0.305946632211433E+02
             -0.507177985115745E+02
              0.252324289249168E+02
             -0.944474551543880E+02
             -0.850935555782515E+02
             -0.744548157466045E+01
             -0.310558575969227E+02
             -0.583084438784145E+02
              0.731542383168314E+02
              0.133274936795980E+03
             -0.364932033697777E+02
             -0.257633452464756E+01
             -0.645385224236575E+02
              0.658976669430278E+02
              0.173452353206036E+02
             -0.184072426872788E+02
             -0.414986095387911E+02
              0.150806479448795E+02
             -0.594286093903220E+02
             -0.199747364995255E+02
             -0.916626286286061E+02
              0.341560845586736E+02
              0.170912833171079E+02
              0.180088713990631E+01
             -0.713195216340125E+01
             -0.334347279396461E+02
             -0.769218255169818E+01
              0.127214143467325E+03
             -0.201262579759948E+02
             -0.443232749131843E+02
             -0.692725752717302E+02
              0.110815067346356E+02
             -0.346677278170149E+02
              0.600652460227796E+01
              0.265550980114483E+02
              0.102737219179846E+02
              0.281951730346783E+02
              0.121643601111146E+02
              0.637281369901499E+02
              0.320728581085492E+02
             -0.330894186059321E+02
              0.361299181866131E+02
              0.384192979851381E+02
              0.122569462049437E+02
              0.492433080934787E+02
             -0.227979936802450E+02
              0.775358857800417E+02
              0.175035998204970E+02
             -0.276366065799141E+02
             -0.730653211996244E+01
             -0.188553745729710E+02
              0.264608303324420E+02
             -0.238254351681478E+02
             -0.183592896889849E+00
             -0.865709404949018E+01
              0.820390912391704E+02
              0.507348224961970E+02
             -0.696449196003303E+02
             -0.482428238071282E+01
             -0.562635069449797E+02
             -0.161697431537259E+02
             -0.271219210913776E+02
              0.387383311163273E+01
              0.532390219923537E+00
             -0.260982140640323E+02
              0.830405289497287E+01
             -0.613409714891930E+01
             -0.130053891326853E+02
              0.870405248886643E+02
              0.184215997167038E+02
             -0.817201532490618E+02
             -0.463783063512170E+02
              0.956877544046390E+02
              0.281109902908177E+02
             -0.107915630537998E+02
              0.105977162756777E+03
             -0.197676529472500E+02
             -0.124292853438905E+02
             -0.548026096624244E+01
              0.109346748779825E+02
              0.276006438888692E+02
              0.785513364475074E+01
              0.309117052438797E+02
             -0.189868172720227E+02
             -0.307952613767053E+02
             -0.422900713588416E+02
             -0.483394691694588E+02
              0.469592014152275E+02
              0.128765974679271E+02
              0.392572237570116E+02
              0.135369104878080E+02
              0.867148392511603E+02
              0.158898816067490E+02
             -0.856201850840647E+02
             -0.338817781370658E+02
              0.135044913464408E+02
             -0.306619535096112E+02
              0.634700848846932E+02
             -0.907422983477659E+01
              0.151258497902835E+02
              0.504088451524196E+02
             -0.717356029285313E+02
              0.151699922270544E+03
              0.211184188278819E+02
              0.274478813665585E+02
              0.352291138234022E+02
              0.104877740127393E+02
             -0.160375928701808E+01
              0.363188205784140E+02
             -0.361555089543568E+02
              0.783889500112153E+02
              0.694099968770233E+02
             -0.411189283208803E+02
              0.151795116862035E+02
              0.679584482856255E+02
             -0.226978738125026E+02
              0.156402405759493E+02
              0.440486208889849E+02
              0.428043339784156E+02
             -0.794943205323749E+02
             -0.154151529904348E+02
             -0.360711534250557E+02
             -0.155896299908841E+01
             -0.772302249500814E+01
             -0.546641331877788E+01
             -0.183018040796042E+02
             -0.297505320559123E+02
              0.646202961965925E+01
              0.112997875797267E+02
              0.542707744109939E+02
             -0.395827839550469E+02
              0.379444149167944E+02
              0.444561379258543E+02
             -0.188986573357719E+02
              0.883355843654790E+02
             -0.706753530319317E+02
             -0.104543685515920E+03
             -0.665405232833339E+01
             -0.278616370554926E+01
              0.387756736986523E+01
              0.799410789487658E+02
             -0.107925051886954E+02
              0.422023561463781E+02
              0.450443356029257E+02
              0.390330900543162E+02
             -0.100265039761146E+02
              0.636046361680610E+02
             -0.135723810418036E+02
             -0.312036559182039E+02
             -0.485379564422163E+02
              0.597196556499544E+01
              0.375031091749336E+02
             -0.608745128135740E+01
              0.398127481600380E+02
             -0.175750503413929E+01
              0.663402437930600E+02
              0.190198775186877E+02
              0.100806852127058E+02
             -0.122193890445163E+02
              0.336496343953073E+02
              0.367823413759597E+02
              0.235284921673630E+02
             -0.545677054682926E+00
             -0.557570590024990E+02
              0.264562767251934E+02
              0.177801244341528E+02
              0.407667387690272E+02
              0.276417409277282E+02
              0.377121440803707E+02
             -0.615449524104056E+01
              0.254699991138297E+02
             -0.301872025599132E+02
             -0.200234345067508E+01
             -0.576463641457677E+02
             -0.312417510071625E+02
              0.384293346140463E+02
             -0.947464340418699E+02
              0.298196894106000E+02
              0.186028343002329E+02
              0.850973324497882E+02
             -0.303837158062197E+02
              0.333373334106727E+02
             -0.139238782335797E+02
             -0.470302899837103E+02
             -0.771195056106375E+02
             -0.537207903250872E+01
             -0.871612427980455E+02
              0.201656867895729E+02
             -0.250346534280418E+02
              0.309808973700541E+02
              0.239299709422897E+02
             -0.244459711060721E+02
             -0.268780661185469E+02
              0.396428882613715E+02
             -0.595547002007713E+02
             -0.118110140328632E+02
             -0.198540016905039E+02
              0.215783259331136E+02
             -0.896575991593926E+01
              0.367899584370704E+01
             -0.203252377817926E+02
              0.565951361727796E+02
             -0.445716015138668E+02
              0.800838557403517E+01
              0.593036609577584E+02
             -0.327842211317476E+02
              0.362579447035455E+01
             -0.885657010964189E+01
             -0.678620395174139E+02
             -0.488758969175457E+02
             -0.870199076606059E+01
              0.244259326344966E+02
              0.306357453935514E+02
              0.865886497417893E+01
             -0.425093760818186E+01
              0.154691595977521E+02
             -0.445867859921225E+02
              0.331468154485560E+01
             -0.537906435604053E+02
             -0.328103886849058E+02
              0.481048347407367E+02
             -0.299060283898932E+02
              0.630958829117690E+02
             -0.217297381798872E+02
              0.358660038813927E+02
              0.245017175767748E+02
             -0.652115320860507E+02
             -0.284368067298986E+02
              0.942140094141206E+01
             -0.376543218455077E+02
             -0.344808901005125E+02
             -0.841047342984393E+02
             -0.546832013797106E+02
             -0.517242200907922E+02
             -0.421429773920578E+02
             -0.958695726038769E+00
              0.101771594873844E+02
              0.107039287054096E+01
              0.155973838293230E+02
             -0.556895792892810E+02
              0.143495681129433E+02
              0.259342602567777E+02
             -0.675844381634781E+02
             -0.710202468173254E+02
             -0.436219656629490E+02
             -0.175199727936506E+02
              0.181037389565950E+02
              0.453935332652122E+01
             -0.432238138588795E+02
              0.370834382068912E+02
             -0.218807725127044E+02
              0.524259691012772E+02
             -0.898696063180769E+02
              0.605356257319640E+02
             -0.217007343531846E+01
             -0.373708918069450E+02
             -0.220141636789078E+02
              0.473343284013990E+01
              0.380672765133448E+02
             -0.765907566436183E+02
             -0.122587673037184E+02
             -0.219016307502197E+02
              0.517203285719312E+02
              0.875421369543284E+02
             -0.977837912837322E+02
              0.956380067462344E+02
              0.473776341015920E+02
             -0.735451055519056E+02
             -0.371219391791338E+02
              0.761996467181397E+02
              0.639736663816220E+02
             -0.183524727195979E+02
             -0.472621449206440E+01
[...]
              0.286537439333391E+02
              0.143614016954172E+03
              0.245994712199725E+02
              0.124794628154679E+02
             -0.470977304901118E+02
             -0.646055665016772E+02
             -0.190856191510478E+02
              0.333313015313680E+02
             -0.435176755809539E+01
              0.192438054594781E+02
              0.340409505950249E+02
             -0.594984900836322E+02
              0.225838456159214E+02
              0.588339784612906E+02
              0.560854319795859E+02
             -0.429649560236101E+01
             -0.135766940795850E+01
             -0.100452812611080E+02
             -0.488655850862822E+02
             -0.684067166549744E+02
              0.796173821710930E+02
             -0.534921453046192E+01
             -0.595462586999988E+02
              0.174094037460668E+01
             -0.208623361992569E+02
              0.949999921120240E+02
             -0.219149418204134E+02
             -0.358111429703811E+02
              0.339266257194166E+02
             -0.147601610492087E+02
              0.395458717848573E+02
             -0.245667794282281E+01
              0.102372665011249E+03
              0.495963660151534E+02
             -0.510091022140252E+01
             -0.326685423047918E+02
              0.235772603085313E+02
             -0.535651495581201E+02
             -0.129017307094275E+02
              0.593739611783439E+02
             -0.291080256085911E+02
             -0.444276234413756E+02
             -0.225907567834959E+02
              0.525449273016701E+02
              0.126769358115711E+02
             -0.859862163815239E+02
              0.308211942858383E+02
              0.153834977662700E+02
              0.587163227611251E+01
             -0.519700681780656E+02
             -0.370946005781065E+01
              0.327658905662451E+02
              0.519598170322299E+02
              0.640459005268062E+02
              0.232735197839727E+02
              0.859484184307803E+00
             -0.504516255410049E+02
             -0.515702762965024E+02
             -0.757427589635714E+02
             -0.625188035659141E+01
              0.313101682476880E+02
             -0.383252441614715E+01
              0.553608365495518E+02
             -0.322085118117183E+02
              0.168790780800488E+02
             -0.104439897144680E+02
             -0.293061832324660E+02
              0.593110432596699E+02
              0.800650080540930E+01
              0.611934468464760E+02
              0.516389388611287E+01
              0.268109539289446E+02
             -0.194812497350990E+02
              0.594196299014911E+02
             -0.112836835883566E+02
             -0.160724891121387E+00
             -0.800180518277992E+02
             -0.129635351077935E+02
              0.728422896380791E+02
              0.682120551051169E+02
              0.254728373358456E+02
             -0.132313502996232E+02
              0.344201618958377E+01
             -0.175789072110501E+02
             -0.215897214303811E+01
              0.919029484887132E+02
              0.126628788568007E+01
             -0.193627382556146E+02
             -0.112183378842244E+03
             -0.559566918575200E+02
             -0.379718329942120E+02
             -0.667332203932806E+02
             -0.562877752459134E+02
             -0.692009614152842E+02
             -0.452884957952314E+02
             -0.415249559989981E+02
             -0.457903990427314E+02
              0.489391642243342E+02
             -0.297326118621165E+02
             -0.100846093601536E+03
              0.424395775908308E+02
             -0.263801189418880E+02
             -0.801238498834631E+02
              0.956761481874413E+02
             -0.222715525350535E+02
              0.230529469287170E+02
              0.460594047421278E+02
             -0.131154999586960E+01
              0.257290095581263E+02
              0.472222349403532E+01
              0.415568155587042E+00
             -0.152030240581485E+02
             -0.724866239077295E+02
              0.134743928551712E+02
             -0.131035435541728E+03
              0.632341233595780E+02
             -0.445935483162426E+02
             -0.164732798216988E+02
             -0.160361530322057E+02
              0.731742504038013E+01
             -0.230101833616623E+02
              0.301212164087332E+02
             -0.527699327052598E+02
              0.372253135236678E+02
              0.375798785733610E+02
              0.170516771112348E+02
              0.101509576671241E+02
              0.200502602181760E+02
              0.630926801492041E+01
              0.314543795543294E+02
             -0.810835289010907E+01
             -0.600276614326284E+02
              0.770807098542622E+01
             -0.156166046409826E+02
             -0.197668230405560E+01
              0.512484578407319E+02
             -0.837388164487999E+02
             -0.150617418107493E+01
              0.582952477219749E+00
              0.100610684829209E+02
              0.322658893194562E+02
             -0.125272167024842E+02
              0.846540029891264E+02
              0.493852403188850E+02
             -0.185651359788011E+02
             -0.973372031330467E+01
              0.110906919031851E+01
              0.779828134323636E+02
             -0.593121923590417E+02
             -0.107105542084876E+03
              0.312839386700045E+02
             -0.164121174143996E+02
             -0.141091768524225E+02
              0.132761832681864E+02
              0.778733495779310E+02
              0.470086657541243E+02
             -0.155700933002892E+02
             -0.509473923064517E+02
             -0.559017025763532E+01
              0.310161261434117E+02
             -0.113457912875412E+02
             -0.765192606886444E+02
             -0.275574766115861E+01
             -0.901789846974617E+02
             -0.481817387627477E+02
              0.778688948600239E+02
             -0.489952378329786E+02
             -0.645294034693020E+02
             -0.521189092609238E+02
             -0.354362291186627E+02
              0.345039396367187E+02
              0.832311502924952E+02
             -0.361296657249744E+01
              0.280024831452187E+02
             -0.185994027444694E+02
             -0.702589741178238E+02
              0.471359924400474E+02
             -0.450908164049180E+02
              0.325626634904155E+02
              0.380777744614626E+02
             -0.670226878298041E+01
              0.396190133319587E+02
              0.443972634004734E+02
              0.102058914244069E+03
             -0.157981995120490E+02
             -0.461876204457340E+02
             -0.621097680605917E+02
             -0.125848057739394E+02
             -0.236884302009188E+02
              0.104304888686127E+03
             -0.454652187001891E+02
              0.106445997390346E+02
              0.980524214859122E+01
             -0.267660071306896E+02
             -0.809119696655994E+02
             -0.707681724100621E+01
              0.992476733142469E+02
              0.956100558199714E+01
              0.820550632633046E+01
             -0.533578085541207E+02
             -0.612602857502704E+02
             -0.577386125709852E+01
              0.506280393243956E+02
             -0.225053026866529E+02
              0.109312317901038E+03
             -0.440843452573743E+02
              0.148643309103371E+02
             -0.226802820224146E+02
             -0.726655998324362E+02
              0.173952541585226E+01
             -0.508389419533410E+02
             -0.770075913547172E+02
              0.625397161141461E+01
              0.238342890547707E+01
              0.520504838665750E+02
              0.190257214301052E+02
             -0.327787577114043E+02
              0.233208334466705E+02
             -0.821331855086177E+02
             -0.528321389471630E+02
              0.913603925296504E+02
              0.143854504833651E+02
             -0.189531382249005E+02
             -0.356351894469294E+02
             -0.271784133065637E+01
             -0.596818608756155E+01
              0.841008160499173E+02
              0.422817982501155E+02
             -0.167857490688594E+02
             -0.122815744911160E+02
             -0.432946630449335E+02
             -0.203270408282750E+02
             -0.678495491838813E+02
              0.465922582583291E+02
              0.554284501204774E+01
              0.146338762685155E+02
              0.157908022337085E+02
             -0.663071738325062E+00
             -0.170896221886372E+02
             -0.311002882293353E+01
             -0.101787304078398E+03
             -0.231858985428612E+02
             -0.772405037701964E+01
             -0.957964653332849E+01
              0.553552428511626E+02
              0.631672733531263E+02
              0.166798649572845E+02
             -0.982696453009073E+02
              0.655752876324566E+02
             -0.217952542453796E+02
             -0.381843787746243E+02
             -0.875438063460987E+02
             -0.391279876766529E+02
              0.571699074778441E+02
              0.247882937735430E+02
              0.530066609528319E+01
              0.296420218895096E+02
             -0.572094224256550E+02
             -0.428114082537343E+02
              0.522632623358627E+02
              0.392389275212528E+02
              0.525399526287995E+02
             -0.125319711701957E+01
              0.694818013043073E+01
              0.576367580816919E+02
              0.975557852610378E+02
             -0.303261840115393E+02
              0.327622807997391E+02
             -0.120522259478370E+02
             -0.417756702621816E+02
             -0.318494676522378E+02
             -0.303890945278869E+02
             -0.133037537062888E+02
             -0.529833768749209E+02
             -0.220232727481448E+02
             -0.142895862068363E+03
              0.373039074647602E+02
              0.209822897772694E+02
             -0.396536750777001E+01
             -0.385131662877471E+02
             -0.207158142980057E+02
             -0.533534002702178E+02
              0.152547216297374E+02
              0.830415844813833E+02
             -0.254654175356641E+02
             -0.165165118634263E+02
              0.240498137893097E+02
             -0.495421241467413E+02
              0.891870955370572E+02
              0.156706729178774E+02
              0.228154526609911E+02
              0.497040812022565E+02
              0.321651497845068E+01
              0.549432389770985E+02
              0.145105286560422E+02
             -0.107481229434726E+02
              0.746024082194268E+01
              0.744395038217533E+00
              0.736401657793675E+02
              0.102154491823455E+02
              0.122542325843581E+02
             -0.131142894449902E+02
              0.133876253808570E+02
             -0.923196021162497E+02
             -0.330789633525987E+02
             -0.463275775004349E+02
              0.492197830879740E+02
             -0.295156997844699E+02
             -0.666528864135091E+02
              0.545945969979933E+02
             -0.123945786824589E+02
              0.445567648220645E+02
             -0.910607914653538E+02
              0.235139514483043E+02
              0.867250936632308E+01
              0.586251629222784E+01
             -0.843926434547700E+01
             -0.911634332693427E+01
              0.485868514997068E+02
              0.203853392033875E+01
             -0.481162459924975E+02
             -0.178373776870565E+02
              0.279949738077353E+02
             -0.119425340773105E+03
             -0.941562184145497E+02
              0.399275486887444E+01
              0.119170611986633E+02
             -0.418739355586666E+02
             -0.393256928317135E+01
              0.113488851037715E+03
              0.311093579222107E+02
             -0.578567672363424E+02
              0.936809538841814E+01
             -0.977192961316052E+01
              0.107002751231648E+02
             -0.341733407698467E+02
              0.197744377755223E+02
              0.287861603114173E+02
             -0.309602710616554E+01
              0.109592167060455E+03
             -0.141432290387694E+02
             -0.320291178690065E+02
              0.146102685620481E+02
              0.472101733898428E+02
             -0.360510070244247E+02
             -0.320143124290862E+01
              0.977045416677776E+02
             -0.469753851679900E+01
              0.628599004138393E+02
              0.137464298092571E+02
             -0.915498350089815E+01
             -0.307998548465877E+02
              0.573608142345223E+02
             -0.521676493899638E+02
             -0.225980442765172E+01
             -0.172268426843435E+02
             -0.410687277759308E+02
              0.186514344984365E+02
              0.241907891829903E+02
              0.116788382766107E+02
              0.694647948780016E+00
             -0.389321807317922E+02
              0.217852731968378E+02
             -0.677382386236999E+01
             -0.249721442494665E+02
             -0.213479533567784E+02
              0.206234574498271E+02
             -0.601641260153838E+01
             -0.353937762294714E+02
             -0.107984092425879E+03
              0.103596255797686E+02
              0.251716256665553E+02
             -0.393030470444272E+02
             -0.213698573636103E+02
              0.817416334315941E+02
              0.660775978004915E+01
              0.315637247187667E+02
              0.398929223117798E+01
              0.326635086891794E+02
              0.651784641369750E+01
             -0.378098191995712E+02
             -0.236274533395681E+01
              0.885245739872960E+01
              0.277474135443948E+02
              0.792366014622947E+02
              0.513739966207869E+02
              0.208581104403436E+00
              0.170621419594082E+02
              0.620810139843146E+02
              0.239252044037197E+02
             -0.762322245542816E+02
             -0.277336082498239E+02
              0.152995259709659E+02
              0.573122245619129E+01
              0.258338633254462E+02
             -0.554689253390106E+02
              0.911533361220870E+01
              0.390819576478713E+02
              0.504402827898731E+02
             -0.440560884763133E+02
             -0.694678081420545E+01
             -0.211571891853271E+01
             -0.136170143860456E+02
             -0.369619370523143E+02
             -0.217425856996292E+02
             -0.206010107072188E+01
              0.804382219886497E+01
              0.426671465817396E+02
             -0.312349043887858E+02
              0.836394405181503E+02
              0.332066535333481E+02
              0.222868344925075E+02
              0.337311563032410E+02
              0.327145071238176E+02
              0.349975317075812E+02
              0.544248992384081E+02
             -0.439825637597380E+02
              0.627561249968221E+02
             -0.113687017847807E+03
              0.311564461358980E+02
             -0.107906623033509E+03
              0.865248705985973E+02
              0.700365581599605E+02
             -0.111141600624347E+02
             -0.499678524471597E+02
             -0.434770086297431E+02
             -0.630980721280404E+02
             -0.636728907601794E+02
              0.558789669513419E+02
              0.410989589433749E+02
              0.239980311765405E+02
              0.377975535834099E+02
              0.408133923119684E+02
             -0.387130570008355E+02
             -0.200079898096910E+02
              0.593484052386896E+02
             -0.117435689554575E+02
              0.558087285176333E+02
              0.708749182699542E+02
             -0.556361999198177E+01
             -0.715563395133153E+02
             -0.902338117687464E+00
             -0.244521198358710E+01
             -0.895955850325799E+01
             -0.175678254636188E+01
             -0.661484239478229E+02
             -0.212994759184450E+02
              0.550447178925733E+01
              0.909786025162958E+01
              0.475015538175235E+02
             -0.402842963149666E+02
              0.665405955239441E+02
             -0.430418229264143E+02
              0.213286870069198E+02
              0.355582711285665E+02
 
 BEEF-vdW xc energy contributions
           1 :   -792.600617921939     
           2 :    727.815012841165     
           3 :   -615.831341674985     
           4 :    484.212600127532     
           5 :   -360.722410105853     
           6 :    265.250464643237     
           7 :   -205.448530055797     
           8 :    176.786033900592     
           9 :   -166.577636481270     
          10 :    160.127917423151     
          11 :   -146.514617082604     
          12 :    121.839669409789     
          13 :   -89.0959891828595     
          14 :    55.2688013192130     
          15 :   -27.3662052424193     
          16 :    9.17051377674056     
          17 :   5.984359912554282E-002
          18 :   -4.67507183200814     
          19 :    10.1743613857410     
          20 :   -20.4962677598995     
          21 :    36.3107429403199     
          22 :   -54.9925682733153     
          23 :    72.1231450901956     
          24 :   -83.6998434527950     
          25 :    87.9657781832383     
          26 :   -86.0542545880289     
          27 :    81.2391773493052     
          28 :   -77.2458160862755     
          29 :    76.4816661815743     
          30 :   -79.0224891720460     
          31 :   -86.8252682207477     
          32 :   -66.4482358986280     

     Writing output data file ./pwscf.save/
 
     init_run     :    389.08s CPU    394.01s WALL (       1 calls)
     electrons    :  14982.55s CPU  15129.70s WALL (       1 calls)
     forces       :    101.12s CPU    102.42s WALL (       1 calls)

     Called by init_run:
     wfcinit      :    339.93s CPU    343.73s WALL (       1 calls)
     potinit      :     45.44s CPU     45.81s WALL (       1 calls)
     hinit0       :      1.40s CPU      1.43s WALL (       1 calls)

     Called by electrons:
     c_bands      :  12339.16s CPU  12452.08s WALL (      22 calls)
     sum_band     :   1805.12s CPU   1820.33s WALL (      22 calls)
     v_of_rho     :    116.54s CPU    121.31s WALL (      22 calls)
     newd         :     35.96s CPU     50.37s WALL (      22 calls)
     PAW_pot      :    154.37s CPU    154.37s WALL (      22 calls)
     mix_rho      :    577.90s CPU    578.66s WALL (      22 calls)
     vdW_kernel   :     33.69s CPU     33.69s WALL (       1 calls)

     Called by c_bands:
     init_us_2    :     86.47s CPU     86.75s WALL (     598 calls)
     cegterg      :  11455.79s CPU  11568.39s WALL (     286 calls)

     Called by *egterg:
     cdiaghg      :    114.53s CPU    114.58s WALL (    1873 calls)
     h_psi        :   7484.00s CPU   7523.14s WALL (    1899 calls)
     s_psi        :   1196.15s CPU   1196.18s WALL (    1899 calls)
     g_psi        :     17.78s CPU     17.79s WALL (    1600 calls)

     Called by h_psi:
     h_psi:calbec :   1125.07s CPU   1125.32s WALL (    1899 calls)
     vloc_psi     :   5133.94s CPU   5135.35s WALL (    1899 calls)
     add_vuspsi   :   1195.92s CPU   1196.00s WALL (    1899 calls)

     General routines
     calbec       :   1647.69s CPU   1647.99s WALL (    2237 calls)
     fft          :     51.96s CPU     51.98s WALL (    3342 calls)
     ffts         :    192.01s CPU    192.02s WALL (   12932 calls)
     fftw         :   5243.19s CPU   5243.99s WALL (  365492 calls)
 
     Parallel routines
 
     PWSCF        :      4h19m CPU      4h22m WALL

 
   This run was terminated on:  19:18:47  20May2022            

=------------------------------------------------------------------------------=
   JOB DONE.
=------------------------------------------------------------------------------=
