
     Program PWSCF v.6.7MaX starts on 20Dec2022 at 15:49:16 

     This program is part of the open-source Quantum ESPRESSO suite
     for quantum simulation of materials; please cite
         "P. Giannozzi et al., J. Phys.:Condens. Matter 21 395502 (2009);
         "P. Giannozzi et al., J. Phys.:Condens. Matter 29 465901 (2017);
          URL http://www.quantum-espresso.org", 
     in publications or presentations arising from this work. More details at
     http://www.quantum-espresso.org/quote

     Parallel version (MPI), running on     1 processors

     MPI processes distributed on     1 nodes
     Reading input from coh-ensemble.in
Warning: card &CELL ignored
Warning: card / ignored

     Current dimensions of program PWSCF are:
     Max number of different atomic species (ntypx) = 10
     Max number of k-points (npk) =  40000
     Max angular momentum in pseudopotentials (lmaxx) =  3
     file Pt.pbe-n-kjpaw_psl.1.0.0.UPF: wavefunction(s)  6S 5D renormalized
     file C.pbe-n-kjpaw_psl.1.0.0.UPF: wavefunction(s)  2S 2P renormalized
     file O.pbe-nl-kjpaw_psl.1.0.0.UPF: wavefunction(s)  2S 2P renormalized
     file H.pbe-kjpaw_psl.1.0.0.UPF: wavefunction(s)  1S renormalized

     **************************************************************************
     Initializing libbeef V0.1.2 with the BEEF-vdW functional.
     Citation: Wellendorff et al., PRB 85, 235149 (2012).
     **************************************************************************


     IMPORTANT: XC functional enforced from input :
     Exchange-correlation= BEEF-VDW
                           (   1   4  43  14   2   0   0)
     Any further DFT definition will be discarded
     Please, verify this is what you really want


     Subspace diagonalization in iterative solution of the eigenvalue problem:
     a serial algorithm will be used

 
     G-vector sticks info
     --------------------
     sticks:   dense  smooth     PW     G-vecs:    dense   smooth      PW
     Sum        4267    4267   1159               709913   709913   99965
 


     bravais-lattice index     =            0
     lattice parameter (alat)  =      16.0349  a.u.
     unit-cell volume          =   11303.8339 (a.u.)^3
     number of atoms/cell      =           39
     number of atomic types    =            4
     number of electrons       =       371.00
     number of Kohn-Sham states=          223
     kinetic-energy cutoff     =      60.0000  Ry
     charge density cutoff     =     240.0000  Ry
     scf convergence threshold =      1.0E-06
     mixing beta               =       0.7000
     number of iterations used =            8  local-TF  mixing
     Exchange-correlation= BEEF-VDW
                           (   1   4  43  14   2   0   0)

     celldm(1)=  16.034858  celldm(2)=   0.000000  celldm(3)=   0.000000
     celldm(4)=   0.000000  celldm(5)=   0.000000  celldm(6)=   0.000000

     crystal axes: (cart. coord. in units of alat)
               a(1) = (   1.000000   0.000000   0.000000 )  
               a(2) = (   0.500000   0.866025   0.000000 )  
               a(3) = (   0.000000   0.000000   3.165919 )  

     reciprocal axes: (cart. coord. in units 2 pi/alat)
               b(1) = (  1.000000 -0.577350  0.000000 )  
               b(2) = (  0.000000  1.154701  0.000000 )  
               b(3) = (  0.000000  0.000000  0.315864 )  


     PseudoPot. # 1 for Pt read from file:
     /users/bkreitz1/quantum-espresso/potentials/Pt.pbe-n-kjpaw_psl.1.0.0.UPF
     MD5 check sum: 04dc8a03c51ece93fc7b5889c2958091
     Pseudo is Projector augmented-wave + core cor, Zval = 10.0
     Generated using 'atomic' code by A. Dal Corso  v.6.7MaX
     Shape of augmentation charge: PSQ
     Using radial grid of 1277 points,  6 beta functions with: 
                l(1) =   0
                l(2) =   0
                l(3) =   1
                l(4) =   1
                l(5) =   2
                l(6) =   2
     Q(r) pseudized with 0 coefficients 


     PseudoPot. # 2 for C  read from file:
     /users/bkreitz1/quantum-espresso/potentials/C.pbe-n-kjpaw_psl.1.0.0.UPF
     MD5 check sum: a169b0ebad56f5ec0d79c4633f80bf22
     Pseudo is Projector augmented-wave + core cor, Zval =  4.0
     Generated using 'atomic' code by A. Dal Corso  v.6.7MaX
     Shape of augmentation charge: PSQ
     Using radial grid of 1073 points,  4 beta functions with: 
                l(1) =   0
                l(2) =   0
                l(3) =   1
                l(4) =   1
     Q(r) pseudized with 0 coefficients 


     PseudoPot. # 3 for O  read from file:
     /users/bkreitz1/quantum-espresso/potentials/O.pbe-nl-kjpaw_psl.1.0.0.UPF
     MD5 check sum: eef08af8b58d9ec80f8fdb78829eb7cf
     Pseudo is Projector augmented-wave + core cor, Zval =  6.0
     Generated using 'atomic' code by A. Dal Corso  v.6.7MaX
     Shape of augmentation charge: PSQ
     Using radial grid of 1095 points,  4 beta functions with: 
                l(1) =   0
                l(2) =   0
                l(3) =   1
                l(4) =   1
     Q(r) pseudized with 0 coefficients 


     PseudoPot. # 4 for H  read from file:
     /users/bkreitz1/quantum-espresso/potentials/H.pbe-kjpaw_psl.1.0.0.UPF
     MD5 check sum: ae98473e6dc62675f0d0baffdab24f65
     Pseudo is Projector augmented-wave, Zval =  1.0
     Generated using 'atomic' code by A. Dal Corso  v.6.7MaX
     Shape of augmentation charge: PSQ
     Using radial grid of  929 points,  2 beta functions with: 
                l(1) =   0
                l(2) =   0
     Q(r) pseudized with 0 coefficients 


     atomic species   valence    mass     pseudopotential
        Pt            10.00   195.08400     Pt( 1.00)
        C              4.00    12.01100     C ( 1.00)
        O              6.00    15.99900     O ( 1.00)
        H              1.00     1.00800     H ( 1.00)

     No symmetry found



   Cartesian axes

     site n.     atom                  positions (alat units)
         1           Pt  tau(   1) = (   0.0000000   0.0000000   1.0017346  )
         2           Pt  tau(   2) = (   0.3333333   0.0000000   1.0017346  )
         3           Pt  tau(   3) = (   0.6666667   0.0000000   1.0017346  )
         4           Pt  tau(   4) = (   0.1666667   0.2886751   1.0017346  )
         5           Pt  tau(   5) = (   0.5000000   0.2886751   1.0017346  )
         6           Pt  tau(   6) = (   0.8333333   0.2886751   1.0017346  )
         7           Pt  tau(   7) = (   0.3333333   0.5773503   1.0017346  )
         8           Pt  tau(   8) = (   0.6666667   0.5773503   1.0017346  )
         9           Pt  tau(   9) = (   1.0000000   0.5773503   1.0017346  )
        10           Pt  tau(  10) = (   0.1666667   0.0962250   1.2739001  )
        11           Pt  tau(  11) = (   0.5000000   0.0962250   1.2739001  )
        12           Pt  tau(  12) = (   0.8333333   0.0962250   1.2739001  )
        13           Pt  tau(  13) = (   0.3333333   0.3849002   1.2739001  )
        14           Pt  tau(  14) = (   0.6666667   0.3849002   1.2739001  )
        15           Pt  tau(  15) = (   1.0000000   0.3849002   1.2739001  )
        16           Pt  tau(  16) = (   0.5000000   0.6735753   1.2739001  )
        17           Pt  tau(  17) = (   0.8333333   0.6735753   1.2739001  )
        18           Pt  tau(  18) = (   1.1666667   0.6735753   1.2739001  )
        19           Pt  tau(  19) = (   0.0010655   0.1920541   1.5458993  )
        20           Pt  tau(  20) = (   0.3326883   0.1920805   1.5459774  )
        21           Pt  tau(  21) = (   0.6668643   0.1922285   1.5424479  )
        22           Pt  tau(  22) = (   0.1668345   0.4793861   1.5451017  )
        23           Pt  tau(  23) = (   0.4999050   0.4814031   1.5424386  )
        24           Pt  tau(  24) = (   0.8336514   0.4813038   1.5422623  )
        25           Pt  tau(  25) = (   0.3351488   0.7708412   1.5458243  )
        26           Pt  tau(  26) = (   0.6668549   0.7709158   1.5458990  )
        27           Pt  tau(  27) = (   0.9985813   0.7708060   1.5451081  )
        28           Pt  tau(  28) = (  -0.0063006  -0.0036445   1.8335825  )
        29           Pt  tau(  29) = (   0.3374454  -0.0016955   1.8329538  )
        30           Pt  tau(  30) = (   0.6658484   0.0000053   1.8176664  )
        31           Pt  tau(  31) = (   0.1672585   0.2930822   1.8329543  )
        32           Pt  tau(  32) = (   0.5033269   0.2905937   1.8171146  )
        33           Pt  tau(  33) = (   0.8306602   0.2904224   1.8165097  )
        34           Pt  tau(  34) = (   0.3329341   0.5766259   1.8176600  )
        35           Pt  tau(  35) = (   0.6668444   0.5741524   1.8165017  )
        36           Pt  tau(  36) = (   0.9998551   0.5772581   1.8171623  )
        37           C   tau(  37) = (   0.1617851   0.0934032   1.9649019  )
        38           O   tau(  38) = (   0.1599303   0.0923284   2.1228243  )
        39           H   tau(  39) = (   0.2528583   0.1459867   2.1649458  )

     number of k points=    13  Marzari-Vanderbilt smearing, width (Ry)=  0.0200
                       cart. coord. in units 2pi/alat
        k(    1) = (   0.0000000   0.0000000   0.0000000), wk =   0.0800000
        k(    2) = (   0.0000000   0.2309401   0.0000000), wk =   0.1600000
        k(    3) = (   0.0000000   0.4618802   0.0000000), wk =   0.1600000
        k(    4) = (   0.2000000  -0.1154701   0.0000000), wk =   0.1600000
        k(    5) = (   0.2000000   0.1154701   0.0000000), wk =   0.1600000
        k(    6) = (   0.2000000   0.3464102   0.0000000), wk =   0.1600000
        k(    7) = (   0.2000000  -0.5773503   0.0000000), wk =   0.1600000
        k(    8) = (   0.2000000  -0.3464102   0.0000000), wk =   0.1600000
        k(    9) = (   0.4000000  -0.2309401   0.0000000), wk =   0.1600000
        k(   10) = (   0.4000000  -0.0000000   0.0000000), wk =   0.1600000
        k(   11) = (   0.4000000   0.2309401   0.0000000), wk =   0.1600000
        k(   12) = (   0.4000000  -0.6928203   0.0000000), wk =   0.1600000
        k(   13) = (   0.4000000  -0.4618802   0.0000000), wk =   0.1600000

     Dense  grid:   709913 G-vectors     FFT dimensions: (  80,  80, 256)

     Estimated max dynamical RAM per process >       8.57 GB

     Check: negative core charge=   -0.000001

     Initial potential from superposition of free atoms

     starting charge  370.99384, renormalised to  371.00000

     negative rho (up, down):  1.234E-02 0.000E+00


     %%%%%%%%%%%%%%%%%%%%%%%%%%%%%%%%%%%%%%%%%%%%%%%%%%%%%%%%%%%%%%%%%%%%%%%%
     %                                                                      %
     % You are using vdW-DF, which was implemented by the Thonhauser group. %
     % Please cite the following two papers that made this development      %
     % possible and the two reviews that describe the various versions:     %
     %                                                                      %
     %   T. Thonhauser et al., PRL 115, 136402 (2015).                      %
     %   T. Thonhauser et al., PRB 76, 125112 (2007).                       %
     %   K. Berland et al., Rep. Prog. Phys. 78, 066501 (2015).             %
     %   D.C. Langreth et al., J. Phys.: Condens. Matter 21, 084203 (2009). %
     %                                                                      %
     %                                                                      %
     % If you are calculating the stress with vdW-DF, please also cite:     %
     %                                                                      %
     %   R. Sabatini et al., J. Phys.: Condens. Matter 24, 424209 (2012).   %
     %                                                                      %
     %%%%%%%%%%%%%%%%%%%%%%%%%%%%%%%%%%%%%%%%%%%%%%%%%%%%%%%%%%%%%%%%%%%%%%%%


     Starting wfcs are  333 randomized atomic wfcs
     Checking if some PAW data can be deallocated... 

     total cpu time spent up to now is      316.8 secs

     Self-consistent Calculation

     iteration #  1     ecut=    60.00 Ry     beta= 0.70
     Davidson diagonalization with overlap
     ethr =  1.00E-02,  avg # of iterations =  2.4

     Threshold (ethr) on eigenvalues was too large:
     Diagonalizing with lowered threshold

     Davidson diagonalization with overlap
     ethr =  5.14E-04,  avg # of iterations =  4.0

     negative rho (up, down):  1.459E-02 0.000E+00

     total cpu time spent up to now is     1630.3 secs

     total energy              =  -27816.68461686 Ry
     estimated scf accuracy    <       2.13334425 Ry

     iteration #  2     ecut=    60.00 Ry     beta= 0.70
     Davidson diagonalization with overlap
     ethr =  5.75E-04,  avg # of iterations =  2.0

     negative rho (up, down):  1.290E-02 0.000E+00

     total cpu time spent up to now is     2226.7 secs

     total energy              =  -27816.87219200 Ry
     estimated scf accuracy    <       0.94911081 Ry

     iteration #  3     ecut=    60.00 Ry     beta= 0.70
     Davidson diagonalization with overlap
     ethr =  2.56E-04,  avg # of iterations =  4.2

     negative rho (up, down):  1.075E-02 0.000E+00

     total cpu time spent up to now is     2813.8 secs

     total energy              =  -27816.94064371 Ry
     estimated scf accuracy    <       0.31594674 Ry

     iteration #  4     ecut=    60.00 Ry     beta= 0.70
     Davidson diagonalization with overlap
     ethr =  8.52E-05,  avg # of iterations =  9.8

     negative rho (up, down):  8.760E-03 0.000E+00

     total cpu time spent up to now is     3551.2 secs

     total energy              =  -27816.97455157 Ry
     estimated scf accuracy    <       0.10381094 Ry

     iteration #  5     ecut=    60.00 Ry     beta= 0.70
     Davidson diagonalization with overlap
     ethr =  2.80E-05,  avg # of iterations =  6.2

     negative rho (up, down):  6.845E-03 0.000E+00

     total cpu time spent up to now is     4269.6 secs

     total energy              =  -27816.99017875 Ry
     estimated scf accuracy    <       0.06457197 Ry

     iteration #  6     ecut=    60.00 Ry     beta= 0.70
     Davidson diagonalization with overlap
     ethr =  1.74E-05,  avg # of iterations =  2.5

     negative rho (up, down):  5.690E-03 0.000E+00

     total cpu time spent up to now is     4839.8 secs

     total energy              =  -27816.99311513 Ry
     estimated scf accuracy    <       0.00854121 Ry

     iteration #  7     ecut=    60.00 Ry     beta= 0.70
     Davidson diagonalization with overlap
     c_bands:  1 eigenvalues not converged
     c_bands:  2 eigenvalues not converged
     c_bands:  2 eigenvalues not converged
     ethr =  2.30E-06,  avg # of iterations = 16.5

     negative rho (up, down):  5.400E-03 0.000E+00

     total cpu time spent up to now is     5859.7 secs

     total energy              =  -27816.99610036 Ry
     estimated scf accuracy    <       0.00276658 Ry

     iteration #  8     ecut=    60.00 Ry     beta= 0.70
     Davidson diagonalization with overlap
     c_bands:  2 eigenvalues not converged
     c_bands:  2 eigenvalues not converged
     ethr =  7.46E-07,  avg # of iterations =  5.8

     negative rho (up, down):  5.412E-03 0.000E+00

     total cpu time spent up to now is     6517.9 secs

     total energy              =  -27816.99643838 Ry
     estimated scf accuracy    <       0.00120870 Ry

     iteration #  9     ecut=    60.00 Ry     beta= 0.70
     Davidson diagonalization with overlap
     ethr =  3.26E-07,  avg # of iterations =  5.1

     negative rho (up, down):  5.736E-03 0.000E+00

     total cpu time spent up to now is     7106.7 secs

     total energy              =  -27816.99652463 Ry
     estimated scf accuracy    <       0.00078362 Ry

     iteration # 10     ecut=    60.00 Ry     beta= 0.70
     Davidson diagonalization with overlap
     ethr =  2.11E-07,  avg # of iterations =  2.8

     negative rho (up, down):  6.385E-03 0.000E+00

     total cpu time spent up to now is     7657.3 secs

     total energy              =  -27816.99654217 Ry
     estimated scf accuracy    <       0.00055731 Ry

     iteration # 11     ecut=    60.00 Ry     beta= 0.70
     Davidson diagonalization with overlap
     ethr =  1.50E-07,  avg # of iterations =  2.9

     negative rho (up, down):  8.727E-03 0.000E+00

     total cpu time spent up to now is     8216.6 secs

     total energy              =  -27816.99652019 Ry
     estimated scf accuracy    <       0.00034237 Ry

     iteration # 12     ecut=    60.00 Ry     beta= 0.70
     Davidson diagonalization with overlap
     c_bands:  1 eigenvalues not converged
     ethr =  9.23E-08,  avg # of iterations =  5.1

     negative rho (up, down):  9.260E-03 0.000E+00

     total cpu time spent up to now is     8854.2 secs

     total energy              =  -27816.99654221 Ry
     estimated scf accuracy    <       0.00014896 Ry

     iteration # 13     ecut=    60.00 Ry     beta= 0.70
     Davidson diagonalization with overlap
     ethr =  4.01E-08,  avg # of iterations =  2.0

     negative rho (up, down):  1.116E-02 0.000E+00

     total cpu time spent up to now is     9420.3 secs

     total energy              =  -27816.99655441 Ry
     estimated scf accuracy    <       0.00007567 Ry

     iteration # 14     ecut=    60.00 Ry     beta= 0.70
     Davidson diagonalization with overlap
     ethr =  2.04E-08,  avg # of iterations =  2.0

     negative rho (up, down):  1.103E-02 0.000E+00

     total cpu time spent up to now is    10018.0 secs

     total energy              =  -27816.99656536 Ry
     estimated scf accuracy    <       0.00003953 Ry

     iteration # 15     ecut=    60.00 Ry     beta= 0.70
     Davidson diagonalization with overlap
     ethr =  1.07E-08,  avg # of iterations =  2.0

     negative rho (up, down):  1.238E-02 0.000E+00

     total cpu time spent up to now is    10572.1 secs

     total energy              =  -27816.99656333 Ry
     estimated scf accuracy    <       0.00001985 Ry

     iteration # 16     ecut=    60.00 Ry     beta= 0.70
     Davidson diagonalization with overlap
     ethr =  5.35E-09,  avg # of iterations =  2.0

     negative rho (up, down):  1.293E-02 0.000E+00

     total cpu time spent up to now is    11135.9 secs

     total energy              =  -27816.99656396 Ry
     estimated scf accuracy    <       0.00000705 Ry

     iteration # 17     ecut=    60.00 Ry     beta= 0.70
     Davidson diagonalization with overlap
     ethr =  1.90E-09,  avg # of iterations =  4.1

     negative rho (up, down):  1.321E-02 0.000E+00

     total cpu time spent up to now is    11815.2 secs

     total energy              =  -27816.99656496 Ry
     estimated scf accuracy    <       0.00000129 Ry

     iteration # 18     ecut=    60.00 Ry     beta= 0.70
     Davidson diagonalization with overlap
     ethr =  3.47E-10,  avg # of iterations =  5.3

     negative rho (up, down):  1.332E-02 0.000E+00

     total cpu time spent up to now is    12668.9 secs

     End of self-consistent calculation

          k = 0.0000 0.0000 0.0000 ( 88781 PWs)   bands (ev):

   -21.0753 -10.6867  -7.5637  -6.8078  -5.5300  -5.1901  -4.9149  -4.4995
    -4.4695  -4.4611  -4.4549  -4.4222  -4.4169  -4.3779  -4.3084  -3.9275
    -3.9136  -3.9033  -3.8963  -3.8530  -3.8437  -3.5649  -3.4637  -3.4571
    -3.4495  -3.3636  -3.3483  -3.2475  -3.2364  -3.2345  -3.2260  -3.1622
    -3.1246  -3.0949  -3.0332  -3.0299  -3.0122  -3.0108  -2.9718  -2.9518
    -2.9481  -2.9442  -2.9107  -2.8978  -2.6959  -2.4361  -2.3943  -2.3755
    -2.3731  -2.3617  -2.3615  -2.3047  -2.3031  -2.2935  -2.1732  -2.1379
    -2.1367  -2.0728  -2.0328  -1.9063  -1.6581  -1.6531  -1.6315  -1.5747
    -1.5716  -1.5245  -1.5242  -1.5193  -1.4084  -1.4020  -1.3984  -1.3722
    -1.3688  -1.3683  -1.3524  -1.3315  -1.3197  -1.3190  -1.2759  -1.2706
    -1.2609  -1.2569  -1.2553  -1.1988  -1.1812  -1.1675  -1.1571  -1.1501
    -1.0950  -0.9741  -0.9570  -0.9477  -0.9241  -0.9194  -0.9181  -0.9076
    -0.8842  -0.8467  -0.8399  -0.8347  -0.7402  -0.7378  -0.7357  -0.6975
    -0.6959  -0.5910  -0.5856  -0.5756  -0.5613  -0.5520  -0.5398  -0.4362
    -0.4011  -0.2984  -0.1077  -0.0923  -0.0737  -0.0365  -0.0320  -0.0190
    -0.0166  -0.0120  -0.0005   0.1120   0.1141   0.1695   0.1728   0.1927
     0.2073   0.2098   0.2326   0.2691   0.3155   0.4163   0.4308   0.4585
     0.4594   0.5026   0.5359   0.6604   0.7035   0.7066   0.7218   0.7561
     0.7603   0.7987   0.8374   0.8679   0.8811   0.8936   0.9444   0.9614
     0.9685   0.9797   1.0560   1.0700   1.0862   1.1380   1.1382   1.1521
     1.1555   1.1574   1.1663   1.1827   1.1846   1.1879   1.2620   1.2624
     1.2755   1.2795   1.2842   1.3541   1.3559   1.3679   1.3735   1.3739
     1.4155   1.4172   1.4600   1.5097   1.5139   1.5141   1.5225   1.5233
     1.5332   1.5649   1.5955   1.5983   1.6323   1.6362   1.6592   1.6708
     1.8081   1.8131   1.9176   1.9229   1.9272   1.9606   1.9617   1.9790
     2.4394   2.5432   2.6217   2.7372   2.8271   2.8285   2.8607   3.9759
     4.2147   4.7504   5.1169   5.1345   5.1518   5.5145   5.6352   5.9630
     6.6600   6.6921   6.7537   6.7623   6.7888   6.9098   6.9423

          k = 0.0000 0.2309 0.0000 ( 88684 PWs)   bands (ev):

   -21.0753 -10.6848  -7.5431  -6.6732  -5.4220  -5.1832  -5.0086  -4.8140
    -4.5545  -4.5251  -4.3534  -4.2680  -4.2244  -4.2070  -4.1722  -4.0009
    -3.9538  -3.8518  -3.8355  -3.8259  -3.7741  -3.5217  -3.4834  -3.4186
    -3.3928  -3.3745  -3.3272  -3.3038  -3.2877  -3.2325  -3.2142  -3.2005
    -3.1462  -3.1215  -3.0970  -3.0609  -3.0208  -3.0150  -3.0017  -2.8815
    -2.8525  -2.7905  -2.7762  -2.7563  -2.6479  -2.5112  -2.4958  -2.4727
    -2.4503  -2.4346  -2.4113  -2.3410  -2.2737  -2.2023  -2.1719  -2.1466
    -2.0978  -2.0707  -2.0202  -1.9188  -1.8390  -1.7541  -1.7407  -1.7193
    -1.7068  -1.6669  -1.6145  -1.6039  -1.5880  -1.5589  -1.5354  -1.5034
    -1.4692  -1.4345  -1.3976  -1.3719  -1.3634  -1.3481  -1.2840  -1.2657
    -1.2455  -1.1999  -1.1875  -1.1686  -1.1513  -1.1178  -1.1030  -1.0955
    -1.0443  -1.0054  -0.9993  -0.9676  -0.9487  -0.9390  -0.9246  -0.8994
    -0.8680  -0.8317  -0.8221  -0.7992  -0.7925  -0.7630  -0.7403  -0.7310
    -0.7020  -0.6558  -0.6455  -0.6134  -0.5955  -0.5451  -0.5431  -0.5156
    -0.4788  -0.4703  -0.4467  -0.4458  -0.3133  -0.2483  -0.1855  -0.1084
    -0.0754  -0.0564  -0.0239  -0.0204   0.0044   0.0198   0.0932   0.1733
     0.2270   0.2733   0.2869   0.3322   0.3469   0.3548   0.3676   0.3849
     0.3998   0.4406   0.4540   0.5639   0.5851   0.5940   0.6162   0.6465
     0.6950   0.7392   0.7764   0.7869   0.8028   0.8219   0.8735   0.8889
     0.9528   0.9610   0.9645   0.9913   1.0260   1.0575   1.1166   1.1226
     1.1645   1.1724   1.1806   1.2029   1.2386   1.3056   1.3329   1.3385
     1.3895   1.3917   1.4677   1.4720   1.4908   1.5168   1.5226   1.5317
     1.5882   1.5978   1.6029   1.6272   1.6410   1.6798   1.6816   1.7659
     1.7915   1.8270   1.8479   1.8768   1.8804   1.9062   1.9335   1.9462
     1.9666   1.9808   2.0471   2.0909   2.1128   2.2211   2.2455   2.2501
     2.2753   2.5561   2.6232   3.0110   3.2626   3.3973   3.5191   3.8997
     4.1217   4.6205   4.9301   5.1104   5.4467   5.6054   5.7531   5.8267
     5.9435   6.0543   6.5797   6.6506   6.7938   6.8173   6.9657

          k = 0.0000 0.4619 0.0000 ( 88728 PWs)   bands (ev):

   -21.0753 -10.6819  -7.5111  -6.2778  -5.6737  -5.2277  -5.0228  -4.8178
    -4.5860  -4.5476  -4.3988  -4.2122  -4.0680  -3.9646  -3.8922  -3.8716
    -3.8478  -3.7327  -3.6897  -3.6563  -3.6387  -3.6285  -3.5272  -3.4849
    -3.4705  -3.4417  -3.4307  -3.4066  -3.3612  -3.3099  -3.2933  -3.2237
    -3.1206  -3.0656  -3.0408  -3.0308  -3.0166  -2.9546  -2.8487  -2.8078
    -2.7901  -2.7797  -2.7623  -2.6740  -2.5917  -2.5677  -2.4985  -2.4810
    -2.4299  -2.4118  -2.3759  -2.3368  -2.3184  -2.2984  -2.2781  -2.2238
    -2.1535  -2.1186  -2.1009  -2.0625  -1.9770  -1.9438  -1.9205  -1.8960
    -1.8760  -1.8386  -1.7447  -1.7180  -1.6928  -1.6617  -1.6247  -1.5707
    -1.5562  -1.5402  -1.4988  -1.4245  -1.4134  -1.3885  -1.3463  -1.3188
    -1.2991  -1.2651  -1.2432  -1.2232  -1.1949  -1.1752  -1.1666  -1.1591
    -1.1401  -1.1304  -1.1042  -1.0627  -1.0344  -1.0073  -0.9791  -0.9645
    -0.9515  -0.9265  -0.8759  -0.8616  -0.8096  -0.7708  -0.7674  -0.7389
    -0.7112  -0.6937  -0.6507  -0.6406  -0.5634  -0.5343  -0.4992  -0.4919
    -0.4571  -0.4128  -0.3550  -0.3092  -0.2693  -0.2172  -0.2085  -0.1846
    -0.1397  -0.1035  -0.0973  -0.0935  -0.0429  -0.0286   0.0102   0.0147
     0.0414   0.0575   0.0667   0.0890   0.1132   0.2080   0.2140   0.2626
     0.2955   0.3070   0.3780   0.4394   0.4985   0.5133   0.5805   0.5893
     0.6237   0.6869   0.7022   0.7820   0.7936   0.8285   0.8466   0.8492
     0.8817   0.9213   0.9276   0.9616   1.0236   1.0309   1.0782   1.0980
     1.1273   1.1378   1.1853   1.2272   1.2831   1.3446   1.3681   1.3986
     1.4091   1.5049   1.5097   1.5367   1.5452   1.5613   1.5980   1.6561
     1.6639   1.6788   1.7125   1.8011   1.8116   1.8307   1.8410   1.8571
     1.8677   1.9046   1.9306   2.0576   2.0820   2.1022   2.1042   2.1251
     2.2078   2.3393   2.4341   2.5618   2.6514   2.8316   3.1271   3.1348
     3.3136   3.3903   3.4373   3.7785   3.9267   4.0317   4.1383   4.3949
     4.4175   4.4921   4.5525   4.6472   4.8260   4.9289   5.2547   5.3697
     5.5544   5.7009   6.1243   6.2350   6.3391   6.7643   6.7875

          k = 0.2000-0.1155 0.0000 ( 88684 PWs)   bands (ev):

   -21.0753 -10.6848  -7.5431  -6.6732  -5.4220  -5.1832  -5.0086  -4.8140
    -4.5545  -4.5251  -4.3534  -4.2679  -4.2244  -4.2070  -4.1722  -4.0009
    -3.9537  -3.8518  -3.8355  -3.8259  -3.7741  -3.5217  -3.4834  -3.4186
    -3.3929  -3.3745  -3.3273  -3.3038  -3.2877  -3.2325  -3.2142  -3.2005
    -3.1462  -3.1215  -3.0970  -3.0609  -3.0208  -3.0150  -3.0017  -2.8815
    -2.8525  -2.7905  -2.7762  -2.7564  -2.6479  -2.5112  -2.4958  -2.4727
    -2.4502  -2.4346  -2.4113  -2.3410  -2.2737  -2.2022  -2.1719  -2.1466
    -2.0978  -2.0707  -2.0202  -1.9188  -1.8390  -1.7541  -1.7407  -1.7194
    -1.7068  -1.6670  -1.6145  -1.6039  -1.5880  -1.5589  -1.5354  -1.5034
    -1.4692  -1.4345  -1.3976  -1.3719  -1.3634  -1.3481  -1.2840  -1.2657
    -1.2455  -1.1999  -1.1874  -1.1686  -1.1513  -1.1177  -1.1030  -1.0955
    -1.0443  -1.0054  -0.9993  -0.9676  -0.9487  -0.9390  -0.9247  -0.8994
    -0.8680  -0.8317  -0.8221  -0.7992  -0.7925  -0.7630  -0.7403  -0.7310
    -0.7020  -0.6558  -0.6455  -0.6134  -0.5955  -0.5451  -0.5431  -0.5156
    -0.4788  -0.4703  -0.4467  -0.4458  -0.3133  -0.2483  -0.1855  -0.1085
    -0.0754  -0.0564  -0.0239  -0.0204   0.0044   0.0198   0.0932   0.1733
     0.2271   0.2733   0.2869   0.3322   0.3469   0.3548   0.3676   0.3850
     0.3998   0.4406   0.4540   0.5639   0.5851   0.5940   0.6162   0.6464
     0.6950   0.7392   0.7764   0.7869   0.8028   0.8219   0.8735   0.8889
     0.9528   0.9610   0.9644   0.9914   1.0260   1.0575   1.1166   1.1226
     1.1644   1.1724   1.1806   1.2029   1.2386   1.3056   1.3329   1.3385
     1.3895   1.3917   1.4677   1.4720   1.4909   1.5168   1.5226   1.5317
     1.5882   1.5978   1.6029   1.6272   1.6410   1.6798   1.6816   1.7659
     1.7915   1.8270   1.8479   1.8768   1.8804   1.9061   1.9335   1.9462
     1.9666   1.9808   2.0471   2.0909   2.1128   2.2211   2.2455   2.2501
     2.2753   2.5561   2.6231   3.0110   3.2626   3.3973   3.5191   3.8998
     4.1217   4.6205   4.9302   5.1104   5.4467   5.6054   5.7531   5.8267
     5.9435   6.0543   6.5797   6.6506   6.7937   6.8172   6.9657

          k = 0.2000 0.1155 0.0000 ( 88684 PWs)   bands (ev):

   -21.0753 -10.6846  -7.5447  -6.6727  -5.4243  -5.1687  -4.9340  -4.9006
    -4.5464  -4.5133  -4.3539  -4.2672  -4.2377  -4.1926  -4.1761  -4.0283
    -3.9919  -3.8391  -3.8357  -3.7787  -3.7780  -3.5589  -3.4928  -3.4175
    -3.3986  -3.3901  -3.3153  -3.3063  -3.2564  -3.2381  -3.2100  -3.2044
    -3.1678  -3.1112  -3.1092  -3.0641  -3.0153  -3.0132  -2.9904  -2.8872
    -2.8159  -2.8011  -2.7641  -2.7630  -2.6543  -2.5056  -2.5011  -2.4715
    -2.4326  -2.4238  -2.4121  -2.3380  -2.2509  -2.2475  -2.1686  -2.1418
    -2.1019  -2.0544  -2.0487  -1.9311  -1.8209  -1.7583  -1.7509  -1.7180
    -1.7100  -1.6521  -1.6075  -1.6010  -1.5883  -1.5602  -1.5244  -1.4871
    -1.4434  -1.4387  -1.4066  -1.3920  -1.3667  -1.3523  -1.2942  -1.2740
    -1.2369  -1.2032  -1.1849  -1.1595  -1.1539  -1.1213  -1.1044  -1.0966
    -1.0446  -1.0172  -0.9965  -0.9691  -0.9480  -0.9373  -0.9145  -0.9030
    -0.8707  -0.8399  -0.8283  -0.7956  -0.7934  -0.7597  -0.7482  -0.7333
    -0.7076  -0.6602  -0.6472  -0.5963  -0.5854  -0.5456  -0.5389  -0.5160
    -0.4805  -0.4666  -0.4467  -0.4440  -0.2772  -0.2362  -0.2350  -0.1087
    -0.0667  -0.0605  -0.0250  -0.0196   0.0092   0.0215   0.1119   0.1786
     0.2206   0.2665   0.2850   0.3154   0.3467   0.3678   0.3682   0.3877
     0.3927   0.4263   0.4452   0.5660   0.5844   0.5953   0.6083   0.6740
     0.6845   0.7430   0.7732   0.7944   0.8037   0.8339   0.8688   0.8979
     0.9518   0.9609   0.9635   0.9977   1.0157   1.0645   1.1142   1.1253
     1.1561   1.1751   1.1772   1.2087   1.2375   1.3104   1.3308   1.3401
     1.3848   1.3879   1.4644   1.4718   1.4889   1.5188   1.5189   1.5333
     1.5899   1.5961   1.6026   1.6281   1.6408   1.6771   1.6823   1.7725
     1.7820   1.8264   1.8489   1.8763   1.8771   1.9058   1.9349   1.9436
     1.9686   1.9767   2.0490   2.0912   2.1138   2.2064   2.2457   2.2544
     2.2748   2.5910   2.6196   2.9587   3.2921   3.4004   3.5148   3.8156
     4.2533   4.5720   4.8829   5.1625   5.4391   5.6094   5.7131   5.9191
     5.9208   6.0168   6.5948   6.6602   6.7419   6.8236   6.9469

          k = 0.2000 0.3464 0.0000 ( 88726 PWs)   bands (ev):

   -21.0753 -10.6821  -7.5194  -6.4056  -5.3422  -5.2454  -5.1366  -5.0101
    -4.8018  -4.1518  -4.1374  -4.1310  -4.1120  -4.0801  -4.0636  -4.0203
    -3.9503  -3.9413  -3.9042  -3.5750  -3.5600  -3.5437  -3.5389  -3.4787
    -3.4485  -3.4187  -3.3377  -3.3317  -3.2973  -3.2513  -3.2072  -3.1945
    -3.1730  -3.1442  -3.1185  -3.0739  -3.0673  -3.0207  -2.9786  -2.9043
    -2.8660  -2.6870  -2.6339  -2.5966  -2.5723  -2.5470  -2.5185  -2.5024
    -2.4526  -2.4219  -2.3883  -2.3255  -2.2871  -2.2177  -2.1909  -2.1784
    -2.1411  -2.1099  -2.0633  -2.0301  -2.0088  -1.9609  -1.8482  -1.8342
    -1.8077  -1.7860  -1.7325  -1.7120  -1.6815  -1.6548  -1.6346  -1.5991
    -1.5384  -1.4827  -1.4624  -1.4464  -1.4262  -1.3942  -1.3702  -1.3092
    -1.2946  -1.2555  -1.2449  -1.1859  -1.1547  -1.1521  -1.1233  -1.1120
    -1.0975  -1.0833  -1.0448  -1.0405  -1.0003  -0.9943  -0.9626  -0.9040
    -0.8888  -0.8571  -0.8492  -0.8317  -0.8263  -0.7878  -0.7598  -0.7388
    -0.7188  -0.7142  -0.7007  -0.6909  -0.6734  -0.6481  -0.5636  -0.5507
    -0.4982  -0.4451  -0.4287  -0.4049  -0.3793  -0.2714  -0.2369  -0.1933
    -0.1509  -0.1386  -0.0703  -0.0536  -0.0240  -0.0024   0.0342   0.0521
     0.0897   0.1037   0.1251   0.1836   0.2116   0.2822   0.3240   0.3419
     0.3635   0.3851   0.4080   0.4842   0.5105   0.5417   0.5652   0.5907
     0.6583   0.6930   0.7039   0.7190   0.7438   0.7982   0.8354   0.8555
     0.9003   0.9207   0.9244   0.9493   0.9676   0.9768   1.0014   1.0242
     1.0922   1.1389   1.2341   1.2570   1.2999   1.3909   1.4639   1.4724
     1.4857   1.5201   1.5340   1.5791   1.6250   1.6409   1.6534   1.6814
     1.6953   1.7073   1.7287   1.7432   1.7698   1.7837   1.8329   1.8625
     1.8860   1.8995   1.9266   1.9756   2.0549   2.0953   2.1317   2.1505
     2.1764   2.2184   2.2496   2.3041   2.3733   2.5310   2.8186   2.9113
     3.1754   3.2233   3.4120   3.4442   3.5748   3.9413   4.0138   4.2049
     4.3390   4.4087   4.5728   4.7194   5.2860   5.4174   5.6060   5.6758
     5.9061   5.9786   6.1385   6.3051   6.3758   6.4375   6.5096

          k = 0.2000-0.5774 0.0000 ( 88692 PWs)   bands (ev):

   -21.0753 -10.6808  -7.5027  -5.9312  -5.8650  -5.3370  -5.1493  -4.9107
    -4.6135  -4.5137  -4.1316  -4.1108  -3.9885  -3.9500  -3.8488  -3.8400
    -3.7466  -3.7328  -3.6671  -3.6307  -3.6089  -3.5987  -3.5797  -3.5435
    -3.4961  -3.4379  -3.4080  -3.3988  -3.3826  -3.3625  -3.2908  -3.2335
    -3.1547  -3.1098  -3.0843  -3.0284  -3.0184  -2.9939  -2.9651  -2.9258
    -2.8049  -2.7787  -2.7279  -2.6062  -2.5843  -2.5532  -2.5266  -2.4514
    -2.4260  -2.3704  -2.3206  -2.2631  -2.2285  -2.2216  -2.1724  -2.1433
    -2.1128  -2.0857  -2.0662  -2.0224  -2.0068  -1.9816  -1.9578  -1.9369
    -1.9107  -1.8893  -1.8684  -1.8164  -1.7841  -1.7317  -1.6912  -1.6500
    -1.6256  -1.5479  -1.5275  -1.5099  -1.4717  -1.4604  -1.4440  -1.4114
    -1.3706  -1.3257  -1.3091  -1.2711  -1.2579  -1.2127  -1.1811  -1.1419
    -1.1187  -1.1100  -1.0869  -1.0552  -0.9922  -0.9618  -0.9205  -0.9099
    -0.8723  -0.8534  -0.8360  -0.8160  -0.8118  -0.7895  -0.7872  -0.7389
    -0.7233  -0.7046  -0.7001  -0.6604  -0.6493  -0.6442  -0.6318  -0.5980
    -0.5742  -0.5182  -0.4040  -0.3753  -0.3166  -0.2837  -0.2488  -0.2054
    -0.1795  -0.1454  -0.1125  -0.0996  -0.0632  -0.0588  -0.0233  -0.0106
     0.0371   0.0586   0.0855   0.1154   0.2085   0.2135   0.2282   0.2876
     0.3168   0.4026   0.4410   0.4501   0.5134   0.5357   0.5558   0.5773
     0.6140   0.6334   0.6466   0.6656   0.6837   0.7518   0.7743   0.7920
     0.8032   0.8577   0.8715   0.9170   0.9236   1.0091   1.0448   1.1095
     1.1569   1.2217   1.2789   1.3227   1.3419   1.3923   1.4069   1.4708
     1.4952   1.5207   1.5627   1.6117   1.6337   1.6572   1.6810   1.6962
     1.7376   1.7600   1.8215   1.8300   1.8359   1.8559   1.8670   1.8975
     1.9074   1.9849   2.0096   2.0676   2.0973   2.1265   2.1306   2.1814
     2.1987   2.2593   2.3676   2.9195   2.9816   3.2385   3.2904   3.3598
     3.5064   3.5943   3.5965   3.8128   4.0068   4.1473   4.3303   4.4194
     4.4505   4.7649   4.7837   4.9529   5.0067   5.1169   5.1546   5.1951
     5.4200   5.5700   5.6734   5.9496   6.0779   6.3167   6.3928

          k = 0.2000-0.3464 0.0000 ( 88726 PWs)   bands (ev):

   -21.0753 -10.6825  -7.5168  -6.4071  -5.3368  -5.2558  -5.1603  -5.0261
    -4.7826  -4.1561  -4.1351  -4.1286  -4.0836  -4.0785  -4.0563  -4.0299
    -3.9474  -3.9284  -3.8872  -3.5992  -3.5668  -3.5414  -3.5411  -3.4839
    -3.4473  -3.3510  -3.3439  -3.3194  -3.2874  -3.2522  -3.2321  -3.1931
    -3.1658  -3.1444  -3.1098  -3.0772  -3.0665  -3.0150  -2.9958  -2.9119
    -2.8452  -2.7292  -2.6628  -2.5924  -2.5695  -2.5526  -2.5170  -2.5020
    -2.4582  -2.4323  -2.4079  -2.3160  -2.2863  -2.2388  -2.2164  -2.1585
    -2.1418  -2.0925  -2.0457  -2.0264  -2.0102  -1.9197  -1.8630  -1.8431
    -1.8062  -1.7838  -1.7736  -1.6896  -1.6844  -1.6700  -1.6288  -1.6195
    -1.5142  -1.4839  -1.4617  -1.4481  -1.4100  -1.4051  -1.3750  -1.3163
    -1.2933  -1.2647  -1.2428  -1.1753  -1.1577  -1.1475  -1.1225  -1.1045
    -1.0960  -1.0631  -1.0448  -1.0417  -1.0003  -0.9970  -0.9619  -0.9018
    -0.8923  -0.8552  -0.8472  -0.8306  -0.8237  -0.7890  -0.7619  -0.7387
    -0.7232  -0.7130  -0.7010  -0.6949  -0.6653  -0.6480  -0.5620  -0.5456
    -0.5000  -0.4529  -0.4306  -0.4047  -0.3792  -0.2794  -0.2466  -0.1891
    -0.1618  -0.1416  -0.0714  -0.0505  -0.0287  -0.0054   0.0350   0.0583
     0.0932   0.1051   0.1249   0.1947   0.2130   0.2667   0.3257   0.3480
     0.3593   0.3825   0.4074   0.4732   0.5154   0.5382   0.5626   0.5914
     0.6589   0.6910   0.7036   0.7270   0.7456   0.7879   0.8352   0.8584
     0.9015   0.9214   0.9284   0.9505   0.9680   0.9738   0.9996   1.0189
     1.0956   1.1403   1.2301   1.2554   1.3010   1.3840   1.4644   1.4728
     1.4872   1.5225   1.5344   1.5801   1.6249   1.6416   1.6576   1.6810
     1.6926   1.7079   1.7284   1.7424   1.7728   1.7844   1.8352   1.8651
     1.8860   1.8981   1.9266   1.9776   2.0418   2.0991   2.1363   2.1567
     2.1789   2.2126   2.2487   2.3121   2.3721   2.5591   2.8045   2.9121
     3.1477   3.2127   3.4225   3.4484   3.6706   3.9124   3.9887   4.1983
     4.3349   4.4058   4.5657   4.7058   5.3311   5.4170   5.6237   5.6999
     5.8391   6.0151   6.1176   6.3185   6.3423   6.3866   6.5427

          k = 0.4000-0.2309 0.0000 ( 88728 PWs)   bands (ev):

   -21.0753 -10.6819  -7.5111  -6.2778  -5.6737  -5.2277  -5.0228  -4.8178
    -4.5860  -4.5476  -4.3987  -4.2122  -4.0680  -3.9646  -3.8921  -3.8716
    -3.8478  -3.7327  -3.6897  -3.6563  -3.6387  -3.6285  -3.5272  -3.4848
    -3.4705  -3.4417  -3.4307  -3.4065  -3.3612  -3.3099  -3.2933  -3.2237
    -3.1206  -3.0655  -3.0408  -3.0308  -3.0166  -2.9546  -2.8487  -2.8077
    -2.7901  -2.7798  -2.7623  -2.6740  -2.5917  -2.5677  -2.4985  -2.4810
    -2.4299  -2.4118  -2.3759  -2.3368  -2.3184  -2.2984  -2.2781  -2.2238
    -2.1535  -2.1186  -2.1009  -2.0625  -1.9770  -1.9438  -1.9205  -1.8960
    -1.8760  -1.8386  -1.7447  -1.7180  -1.6928  -1.6616  -1.6247  -1.5707
    -1.5562  -1.5402  -1.4988  -1.4245  -1.4134  -1.3885  -1.3463  -1.3188
    -1.2991  -1.2651  -1.2433  -1.2233  -1.1949  -1.1752  -1.1666  -1.1591
    -1.1401  -1.1303  -1.1042  -1.0627  -1.0344  -1.0073  -0.9792  -0.9645
    -0.9515  -0.9265  -0.8759  -0.8616  -0.8096  -0.7708  -0.7674  -0.7389
    -0.7113  -0.6936  -0.6507  -0.6405  -0.5634  -0.5343  -0.4993  -0.4919
    -0.4571  -0.4129  -0.3550  -0.3091  -0.2693  -0.2172  -0.2086  -0.1846
    -0.1397  -0.1035  -0.0973  -0.0935  -0.0429  -0.0286   0.0102   0.0147
     0.0414   0.0574   0.0667   0.0890   0.1132   0.2080   0.2140   0.2626
     0.2955   0.3070   0.3780   0.4395   0.4984   0.5133   0.5805   0.5893
     0.6237   0.6869   0.7022   0.7820   0.7936   0.8285   0.8466   0.8492
     0.8817   0.9213   0.9276   0.9616   1.0236   1.0309   1.0783   1.0980
     1.1273   1.1378   1.1853   1.2272   1.2831   1.3446   1.3681   1.3985
     1.4091   1.5049   1.5097   1.5367   1.5453   1.5613   1.5980   1.6561
     1.6639   1.6788   1.7125   1.8011   1.8116   1.8307   1.8410   1.8571
     1.8677   1.9046   1.9306   2.0576   2.0820   2.1022   2.1042   2.1251
     2.2078   2.3393   2.4341   2.5617   2.6514   2.8316   3.1271   3.1348
     3.3136   3.3903   3.4373   3.7785   3.9267   4.0317   4.1383   4.3949
     4.4175   4.4921   4.5525   4.6472   4.8259   4.9289   5.2547   5.3697
     5.5544   5.7009   6.1243   6.2350   6.3391   6.7643   6.7874

          k = 0.4000-0.0000 0.0000 ( 88726 PWs)   bands (ev):

   -21.0753 -10.6821  -7.5194  -6.4056  -5.3422  -5.2455  -5.1366  -5.0101
    -4.8018  -4.1519  -4.1374  -4.1310  -4.1120  -4.0801  -4.0636  -4.0203
    -3.9503  -3.9413  -3.9042  -3.5750  -3.5600  -3.5437  -3.5389  -3.4787
    -3.4485  -3.4187  -3.3377  -3.3317  -3.2973  -3.2513  -3.2073  -3.1945
    -3.1731  -3.1442  -3.1185  -3.0739  -3.0673  -3.0208  -2.9786  -2.9042
    -2.8660  -2.6870  -2.6339  -2.5966  -2.5723  -2.5470  -2.5185  -2.5024
    -2.4526  -2.4219  -2.3883  -2.3255  -2.2871  -2.2178  -2.1910  -2.1784
    -2.1411  -2.1099  -2.0632  -2.0302  -2.0089  -1.9608  -1.8482  -1.8342
    -1.8077  -1.7860  -1.7325  -1.7120  -1.6815  -1.6548  -1.6346  -1.5991
    -1.5384  -1.4827  -1.4624  -1.4464  -1.4262  -1.3942  -1.3702  -1.3092
    -1.2946  -1.2555  -1.2449  -1.1859  -1.1547  -1.1521  -1.1233  -1.1120
    -1.0975  -1.0833  -1.0448  -1.0405  -1.0003  -0.9943  -0.9626  -0.9040
    -0.8888  -0.8571  -0.8492  -0.8317  -0.8263  -0.7878  -0.7598  -0.7389
    -0.7188  -0.7142  -0.7007  -0.6909  -0.6734  -0.6481  -0.5636  -0.5507
    -0.4983  -0.4451  -0.4287  -0.4048  -0.3793  -0.2714  -0.2369  -0.1933
    -0.1509  -0.1386  -0.0703  -0.0536  -0.0240  -0.0024   0.0342   0.0521
     0.0897   0.1037   0.1251   0.1836   0.2115   0.2822   0.3240   0.3419
     0.3635   0.3851   0.4081   0.4841   0.5105   0.5417   0.5652   0.5907
     0.6583   0.6930   0.7039   0.7190   0.7438   0.7982   0.8354   0.8555
     0.9003   0.9207   0.9244   0.9493   0.9676   0.9768   1.0014   1.0242
     1.0922   1.1389   1.2341   1.2570   1.2999   1.3909   1.4639   1.4725
     1.4857   1.5201   1.5340   1.5791   1.6250   1.6409   1.6535   1.6814
     1.6953   1.7073   1.7287   1.7432   1.7698   1.7837   1.8330   1.8625
     1.8860   1.8995   1.9266   1.9756   2.0549   2.0953   2.1317   2.1505
     2.1764   2.2184   2.2496   2.3041   2.3733   2.5310   2.8186   2.9113
     3.1754   3.2233   3.4120   3.4442   3.5748   3.9413   4.0138   4.2049
     4.3390   4.4087   4.5728   4.7194   5.2860   5.4174   5.6060   5.6758
     5.9061   5.9786   6.1385   6.3051   6.3758   6.4375   6.5096

          k = 0.4000 0.2309 0.0000 ( 88728 PWs)   bands (ev):

   -21.0753 -10.6813  -7.5153  -6.2759  -5.6671  -5.2166  -4.9412  -4.8769
    -4.5782  -4.5240  -4.4461  -4.2221  -4.0802  -3.9701  -3.9252  -3.8640
    -3.8583  -3.7144  -3.6952  -3.6557  -3.6363  -3.6216  -3.5311  -3.5028
    -3.4795  -3.4542  -3.4253  -3.4161  -3.3875  -3.3352  -3.2949  -3.2855
    -3.0687  -3.0684  -3.0369  -3.0196  -2.9953  -2.9610  -2.8213  -2.8027
    -2.7894  -2.7695  -2.7149  -2.6780  -2.5803  -2.5299  -2.5036  -2.4686
    -2.4216  -2.4139  -2.3876  -2.3392  -2.3097  -2.2988  -2.2697  -2.1934
    -2.1384  -2.1295  -2.1156  -2.0982  -2.0359  -1.9343  -1.9008  -1.9004
    -1.8862  -1.8516  -1.7218  -1.7187  -1.6943  -1.6754  -1.6238  -1.5722
    -1.5538  -1.5314  -1.5122  -1.4159  -1.4151  -1.3566  -1.3498  -1.3136
    -1.2939  -1.2733  -1.2367  -1.2238  -1.2089  -1.1773  -1.1620  -1.1607
    -1.1440  -1.1279  -1.0973  -1.0971  -1.0342  -1.0055  -0.9796  -0.9637
    -0.9516  -0.9247  -0.8626  -0.8609  -0.8057  -0.7791  -0.7645  -0.7397
    -0.7083  -0.6866  -0.6416  -0.6387  -0.5921  -0.5319  -0.4952  -0.4919
    -0.4560  -0.3876  -0.3834  -0.2795  -0.2763  -0.2359  -0.2034  -0.1628
    -0.1514  -0.1028  -0.1016  -0.0893  -0.0433  -0.0292   0.0126   0.0136
     0.0419   0.0556   0.0769   0.0859   0.1064   0.2073   0.2239   0.2651
     0.2977   0.2982   0.3874   0.4160   0.5053   0.5139   0.5823   0.6103
     0.6236   0.6890   0.7114   0.7806   0.7822   0.8326   0.8467   0.8562
     0.8888   0.9200   0.9317   0.9494   1.0254   1.0293   1.0829   1.0919
     1.1321   1.1366   1.2027   1.2225   1.2858   1.3420   1.3726   1.3950
     1.3962   1.5077   1.5084   1.5291   1.5472   1.5591   1.6000   1.6521
     1.6600   1.6836   1.7133   1.8047   1.8089   1.8293   1.8393   1.8561
     1.8656   1.9036   1.9310   2.0601   2.0753   2.1033   2.1071   2.1213
     2.2124   2.3397   2.4033   2.5965   2.6302   2.8188   3.1287   3.1331
     3.2659   3.3857   3.4420   3.7831   3.9770   4.0487   4.1180   4.3986
     4.4072   4.4655   4.5585   4.6532   4.8016   4.9277   5.2805   5.4360
     5.5304   5.6310   6.1208   6.2483   6.3518   6.7757   6.7919

          k = 0.4000-0.6928 0.0000 ( 88692 PWs)   bands (ev):

   -21.0753 -10.6805  -7.5053  -5.9328  -5.8559  -5.3394  -5.1545  -4.8222
    -4.6553  -4.5616  -4.1235  -4.1000  -3.9983  -3.9561  -3.8461  -3.8395
    -3.7341  -3.7311  -3.7062  -3.6315  -3.6196  -3.6016  -3.5858  -3.5445
    -3.5101  -3.4228  -3.4076  -3.3990  -3.3747  -3.3606  -3.3500  -3.2551
    -3.1552  -3.0986  -3.0736  -3.0318  -3.0039  -2.9758  -2.9592  -2.8978
    -2.7928  -2.7793  -2.7367  -2.5959  -2.5825  -2.5494  -2.4987  -2.4553
    -2.3984  -2.3612  -2.3240  -2.2716  -2.2405  -2.2213  -2.1772  -2.1668
    -2.1040  -2.0886  -2.0489  -2.0204  -1.9995  -1.9805  -1.9526  -1.9495
    -1.9209  -1.8923  -1.8673  -1.8284  -1.7659  -1.7442  -1.6848  -1.6739
    -1.6487  -1.5340  -1.5288  -1.5058  -1.4646  -1.4511  -1.4472  -1.4097
    -1.3644  -1.3218  -1.2988  -1.2818  -1.2611  -1.1972  -1.1762  -1.1574
    -1.1145  -1.1114  -1.0814  -1.0664  -0.9865  -0.9667  -0.9211  -0.9153
    -0.8775  -0.8579  -0.8354  -0.8152  -0.8091  -0.7900  -0.7843  -0.7435
    -0.7254  -0.6981  -0.6939  -0.6597  -0.6485  -0.6439  -0.6324  -0.6017
    -0.5777  -0.5058  -0.3993  -0.3889  -0.3339  -0.2778  -0.2517  -0.2038
    -0.1807  -0.1394  -0.1040  -0.0999  -0.0663  -0.0591  -0.0268  -0.0084
     0.0392   0.0598   0.0899   0.1164   0.2101   0.2123   0.2267   0.2978
     0.3113   0.4063   0.4434   0.4525   0.5210   0.5406   0.5637   0.5749
     0.6071   0.6335   0.6497   0.6676   0.6841   0.7553   0.7752   0.7883
     0.7991   0.8570   0.8701   0.9179   0.9241   0.9977   1.0442   1.1163
     1.1593   1.2143   1.2875   1.3248   1.3407   1.3928   1.4075   1.4687
     1.4883   1.5235   1.5662   1.6090   1.6339   1.6581   1.6819   1.6956
     1.7361   1.7599   1.8148   1.8280   1.8392   1.8547   1.8660   1.8956
     1.9092   1.9851   2.0116   2.0661   2.0996   2.1274   2.1303   2.1829
     2.2002   2.2633   2.3700   2.8388   2.9981   3.2391   3.2892   3.3866
     3.5243   3.5883   3.6031   3.8446   3.9447   4.1378   4.3231   4.4061
     4.4780   4.7740   4.7834   4.9922   5.0254   5.1193   5.1760   5.1877
     5.3067   5.5553   5.6759   5.9396   6.1680   6.3487   6.3858

          k = 0.4000-0.4619 0.0000 ( 88692 PWs)   bands (ev):

   -21.0753 -10.6808  -7.5027  -5.9311  -5.8651  -5.3370  -5.1493  -4.9107
    -4.6135  -4.5137  -4.1316  -4.1108  -3.9885  -3.9500  -3.8488  -3.8400
    -3.7466  -3.7328  -3.6671  -3.6307  -3.6089  -3.5987  -3.5797  -3.5435
    -3.4962  -3.4379  -3.4080  -3.3988  -3.3826  -3.3625  -3.2908  -3.2334
    -3.1547  -3.1099  -3.0843  -3.0284  -3.0184  -2.9939  -2.9651  -2.9258
    -2.8050  -2.7787  -2.7279  -2.6062  -2.5843  -2.5532  -2.5266  -2.4515
    -2.4260  -2.3704  -2.3206  -2.2631  -2.2285  -2.2216  -2.1724  -2.1433
    -2.1128  -2.0857  -2.0662  -2.0224  -2.0068  -1.9816  -1.9579  -1.9369
    -1.9107  -1.8893  -1.8684  -1.8164  -1.7841  -1.7317  -1.6912  -1.6500
    -1.6256  -1.5479  -1.5275  -1.5099  -1.4717  -1.4604  -1.4440  -1.4114
    -1.3706  -1.3257  -1.3091  -1.2711  -1.2579  -1.2126  -1.1811  -1.1419
    -1.1187  -1.1100  -1.0869  -1.0551  -0.9921  -0.9618  -0.9205  -0.9099
    -0.8723  -0.8534  -0.8360  -0.8160  -0.8118  -0.7895  -0.7872  -0.7389
    -0.7233  -0.7046  -0.7001  -0.6603  -0.6493  -0.6442  -0.6318  -0.5980
    -0.5742  -0.5182  -0.4039  -0.3753  -0.3166  -0.2837  -0.2488  -0.2054
    -0.1795  -0.1454  -0.1125  -0.0996  -0.0633  -0.0588  -0.0233  -0.0106
     0.0371   0.0587   0.0855   0.1154   0.2085   0.2135   0.2282   0.2876
     0.3168   0.4026   0.4410   0.4501   0.5134   0.5357   0.5558   0.5772
     0.6140   0.6334   0.6466   0.6656   0.6837   0.7518   0.7743   0.7920
     0.8032   0.8577   0.8715   0.9170   0.9236   1.0091   1.0448   1.1096
     1.1569   1.2217   1.2789   1.3227   1.3419   1.3923   1.4069   1.4708
     1.4952   1.5207   1.5627   1.6117   1.6337   1.6572   1.6811   1.6962
     1.7376   1.7600   1.8216   1.8300   1.8359   1.8559   1.8670   1.8975
     1.9074   1.9849   2.0096   2.0676   2.0973   2.1265   2.1306   2.1814
     2.1987   2.2593   2.3676   2.9196   2.9816   3.2385   3.2904   3.3598
     3.5064   3.5943   3.5965   3.8127   4.0068   4.1473   4.3303   4.4193
     4.4505   4.7649   4.7837   4.9529   5.0066   5.1169   5.1546   5.1952
     5.4200   5.5700   5.6734   5.9496   6.0779   6.3167   6.3928

     the Fermi energy is     1.9018 ev

!    total energy              =  -27816.99656467 Ry

     total all-electron energy =  -1326870.372973 Ry
     estimated scf accuracy    <       0.00000100 Ry
     smearing contrib. (-TS)   =       0.00474698 Ry
     internal energy E=F+TS    =  -27817.00131166 Ry

     The total energy is F=E-TS. E is the sum of the following terms:
     one-electron contribution =  -26811.77964266 Ry
     hartree contribution      =   13708.82539542 Ry
     xc contribution           =    -903.27244614 Ry
     ewald contribution        =   11679.89933232 Ry
     one-center paw contrib.   =  -25490.67395059 Ry

     convergence has been achieved in  18 iterations

     negative rho (up, down):  1.332E-02 0.000E+00

     Forces acting on atoms (cartesian axes, Ry/au):

     atom    1 type  1   force =    -0.00020567   -0.00011918   -0.00331980
     atom    2 type  1   force =     0.00018668   -0.00015112   -0.00335943
     atom    3 type  1   force =    -0.00004769    0.00091178   -0.00359146
     atom    4 type  1   force =    -0.00003126    0.00024605   -0.00335984
     atom    5 type  1   force =     0.00005722    0.00004408   -0.00384412
     atom    6 type  1   force =    -0.00010281    0.00020636   -0.00414859
     atom    7 type  1   force =     0.00076640   -0.00050698   -0.00359278
     atom    8 type  1   force =     0.00011869   -0.00019228   -0.00415001
     atom    9 type  1   force =    -0.00123712   -0.00072102   -0.00414839
     atom   10 type  1   force =     0.00005622    0.00002772    0.01000363
     atom   11 type  1   force =     0.00017763   -0.00201842    0.00403977
     atom   12 type  1   force =     0.00009521   -0.00250470    0.00431299
     atom   13 type  1   force =    -0.00165547    0.00115758    0.00400733
     atom   14 type  1   force =     0.00001818    0.00000666    0.00184246
     atom   15 type  1   force =     0.00207463    0.00125735    0.00358825
     atom   16 type  1   force =    -0.00211566    0.00133828    0.00429818
     atom   17 type  1   force =     0.00212843    0.00116660    0.00360036
     atom   18 type  1   force =    -0.00013725   -0.00007635   -0.00555203
     atom   19 type  1   force =    -0.00020711   -0.00011589    0.00041788
     atom   20 type  1   force =     0.00000777   -0.00003046    0.00017177
     atom   21 type  1   force =    -0.00021832    0.00022053    0.00008426
     atom   22 type  1   force =    -0.00009317    0.00026430   -0.00039500
     atom   23 type  1   force =     0.00011222   -0.00029913    0.00010405
     atom   24 type  1   force =    -0.00026288   -0.00013479    0.00009460
     atom   25 type  1   force =    -0.00022542   -0.00010614    0.00033129
     atom   26 type  1   force =    -0.00017443   -0.00011647    0.00042013
     atom   27 type  1   force =     0.00017211   -0.00018543   -0.00040787
     atom   28 type  1   force =    -0.00060105   -0.00034764   -0.00001091
     atom   29 type  1   force =    -0.00022067   -0.00000283   -0.00021036
     atom   30 type  1   force =     0.00014496   -0.00003363    0.00029400
     atom   31 type  1   force =    -0.00011336   -0.00021594   -0.00019263
     atom   32 type  1   force =    -0.00021950   -0.00013713    0.00001343
     atom   33 type  1   force =    -0.00037132   -0.00023516    0.00010271
     atom   34 type  1   force =     0.00004972    0.00015923    0.00030804
     atom   35 type  1   force =    -0.00037727   -0.00019424    0.00010622
     atom   36 type  1   force =    -0.00026856   -0.00013621    0.00044837
     atom   37 type  2   force =     0.00456481    0.00263659    0.00149828
     atom   38 type  3   force =     0.00383369    0.00221680    0.00352170
     atom   39 type  4   force =    -0.00567858   -0.00327878   -0.00332650

     Total force =     0.010918     Total SCF correction =     0.001985
     SCF correction compared to forces is large: reduce conv_thr to get better values

     negative rho (up, down):  1.332E-02 0.000E+00

     negative rho (up, down):  1.332E-02 0.000E+00

     negative rho (up, down):  1.332E-02 0.000E+00

     negative rho (up, down):  1.332E-02 0.000E+00

     negative rho (up, down):  1.332E-02 0.000E+00

     negative rho (up, down):  1.332E-02 0.000E+00

     negative rho (up, down):  1.332E-02 0.000E+00

     negative rho (up, down):  1.332E-02 0.000E+00

     negative rho (up, down):  1.332E-02 0.000E+00

     negative rho (up, down):  1.332E-02 0.000E+00

     negative rho (up, down):  1.332E-02 0.000E+00

     negative rho (up, down):  1.332E-02 0.000E+00

     negative rho (up, down):  1.332E-02 0.000E+00

     negative rho (up, down):  1.332E-02 0.000E+00

     negative rho (up, down):  1.332E-02 0.000E+00

     negative rho (up, down):  1.332E-02 0.000E+00

     negative rho (up, down):  1.332E-02 0.000E+00

     negative rho (up, down):  1.332E-02 0.000E+00

     negative rho (up, down):  1.332E-02 0.000E+00

     negative rho (up, down):  1.332E-02 0.000E+00

     negative rho (up, down):  1.332E-02 0.000E+00

     negative rho (up, down):  1.332E-02 0.000E+00

     negative rho (up, down):  1.332E-02 0.000E+00

     negative rho (up, down):  1.332E-02 0.000E+00

     negative rho (up, down):  1.332E-02 0.000E+00

     negative rho (up, down):  1.332E-02 0.000E+00

     negative rho (up, down):  1.332E-02 0.000E+00

     negative rho (up, down):  1.332E-02 0.000E+00

     negative rho (up, down):  1.332E-02 0.000E+00

     negative rho (up, down):  1.332E-02 0.000E+00

     negative rho (up, down):  1.332E-02 0.000E+00

     negative rho (up, down):  1.332E-02 0.000E+00

     negative rho (up, down):  1.332E-02 0.000E+00

     negative rho (up, down):  1.332E-02 0.000E+00
 BEEFens 2000 ensemble energies
             -0.604023747513518E+02
             -0.360825859094700E+01
             -0.157957924142811E+02
              0.427788796959776E+02
             -0.220380959025402E+02
             -0.204864935579553E+02
             -0.350154424200730E+02
             -0.861083436920775E+02
             -0.464280760489055E+02
             -0.471977209700462E+02
             -0.367813351179121E+02
              0.221528346279488E+01
              0.404101790021846E+01
              0.769076682625786E+01
              0.264623330436532E+01
              0.473061736023828E+02
             -0.208366126225018E+02
             -0.230455037344221E+02
              0.191818040220492E+02
             -0.111962859866457E+03
              0.534141939107843E+02
             -0.289371304387757E+02
             -0.332878043343163E+01
             -0.113938228110474E+02
             -0.888681971703261E+01
             -0.465273723518439E+01
              0.879510418839998E+02
             -0.185621496429372E+02
             -0.899294750430215E+01
             -0.516032693507921E+02
              0.813646836984062E+02
             -0.187794187009683E+02
             -0.373487398818642E+02
              0.248917672600729E+02
             -0.283893526336590E+01
              0.162439668266916E+02
             -0.488557977972431E+01
              0.108459411830883E+02
              0.286138186135164E+02
             -0.102936309677563E+03
              0.556298594800567E+02
              0.141764610385018E+02
             -0.162331234520121E+01
             -0.360640119828036E+02
              0.122681547003408E+02
             -0.145824307541272E+02
              0.396314232846407E+02
              0.363613325043336E+02
             -0.307887182032820E+02
             -0.273851992706760E+02
             -0.327113310473035E+02
             -0.350494742136785E+02
              0.134819750227267E+02
             -0.488939849966847E+02
              0.114798884052973E+02
              0.620561724471029E+02
              0.631974553533372E+02
              0.354729989944520E+02
              0.153672661257912E+02
              0.268886618112176E+02
              0.887832079236251E+02
              0.212566244578588E+02
             -0.546567978124034E+02
             -0.156933394637499E+02
             -0.234650535144525E+02
              0.627564799740369E+02
             -0.771178752757208E+02
             -0.669588821560480E+02
             -0.257675229749641E+02
             -0.631494659224927E+01
             -0.469834743465177E+02
              0.269622344047369E+02
              0.795738747823077E+01
              0.860092909579760E+01
             -0.395645840549012E+02
             -0.345519860063761E+02
             -0.539345248542097E+02
              0.389707358361828E+02
             -0.294524625983978E+02
              0.263559174912102E+02
             -0.709357381661391E+01
             -0.317183280258392E+02
             -0.574956662169460E+02
             -0.176200972212071E+02
             -0.898121364051497E+01
             -0.124476990777771E+02
              0.410711531962212E+02
              0.679123233642937E+02
             -0.383608866059345E+02
             -0.791772799553039E+02
             -0.218919126962301E+02
              0.111121974200937E+03
             -0.590194806899611E+02
              0.355070717548757E+02
             -0.951088220235818E+01
             -0.661270437474174E+02
              0.253349639527603E+02
              0.397292173738472E+02
             -0.198192897306021E+02
              0.399364590477817E+02
             -0.295266234020107E+02
             -0.475257228485253E+02
              0.861511658300745E+02
              0.452357275578453E+02
              0.336175753883408E+02
              0.145972883893901E+02
              0.204367794243371E+02
              0.853450265922913E+02
             -0.255616317171828E+02
              0.786784814699986E+01
             -0.141893176833759E+03
              0.180824242512500E+02
             -0.713874950269148E+02
              0.150490012018381E+02
              0.203753515436467E+02
             -0.331136998212321E+02
             -0.555561988075925E+02
              0.655683098337693E+01
             -0.302840921554055E+02
              0.305915738738247E+02
             -0.528170780355005E+02
              0.177449557759576E+01
             -0.355421868983112E+02
             -0.422685223155929E+01
             -0.111072865722389E+01
              0.179712819206379E+02
              0.143898015659590E+01
             -0.650497346886050E+01
              0.587372393694309E+02
              0.904666073918745E+02
              0.482129165903578E+02
              0.828621083801345E+02
             -0.114642758690120E+02
              0.143059779096337E+02
              0.539283156655091E+02
             -0.111783805254113E+02
             -0.732797941488138E+02
             -0.382039659478610E+02
             -0.519862793786599E+02
             -0.275574702303346E+02
              0.326214987244749E+02
             -0.116301855643065E+03
             -0.186880637352232E+02
              0.412082457562014E+02
             -0.384664062870944E+02
             -0.364736113444435E+02
              0.541294360357498E+02
              0.398808607230974E+02
             -0.353043734201839E+02
              0.135550851683634E+02
             -0.272172011512272E+02
              0.341728802813819E+02
              0.444437597862793E+01
              0.211027458061756E+02
             -0.881820440721997E+02
             -0.478414358572132E+02
             -0.991717387176948E+01
              0.325296060837536E+01
             -0.364874346216778E+02
              0.105565579663436E+03
             -0.230837307771526E+02
             -0.397800745771359E+02
              0.387544502672934E+02
             -0.492731791711404E+02
             -0.361546534472876E+02
              0.323297783898045E+02
              0.123811513759411E+02
              0.163932988890004E+02
              0.115503736278221E+02
             -0.132449964802030E+02
              0.225112295428261E+02
              0.587931287114242E+02
             -0.310889494179107E+02
              0.161377126661514E+02
              0.931025415097435E+02
              0.339502586059093E+02
             -0.728527816658220E+01
             -0.187632922993394E+02
              0.152731102865927E+03
             -0.162828900567349E+02
              0.361549421357437E+02
              0.192872935060404E+02
              0.361002824753494E+02
              0.888527529727700E+02
              0.541293936018017E+02
             -0.238155987057057E+01
              0.226529325400516E+02
              0.482738045272595E+02
              0.362163110588913E+02
             -0.522983313540381E+02
              0.932259596316868E+02
             -0.822323639125227E+02
             -0.198161150749962E+02
              0.580779361987713E+02
              0.662733778399758E+01
              0.786655054846790E+01
              0.340160735199888E+02
              0.298786984897017E+02
              0.352478649123692E+02
             -0.635260044713557E+02
              0.287004393356403E+01
             -0.296716216498667E+02
             -0.870869138237954E+01
             -0.143539069982046E+01
             -0.715857621057071E+01
             -0.412259766669183E+01
              0.856130172747125E+02
             -0.100929816474957E+02
             -0.275419378372425E+02
             -0.496713071875833E+01
              0.139246211405646E+02
             -0.561387394274369E+02
             -0.404357959850722E+02
             -0.380770051190660E+02
             -0.627877832304889E+02
             -0.168916028650539E+02
             -0.445963097952340E+02
              0.162853580360216E+02
             -0.243284560638381E+01
             -0.103825728767710E+02
             -0.931857508576800E+01
              0.806792612709773E+01
             -0.242881926232052E+02
              0.686669113485732E+02
             -0.803446935060765E+02
             -0.140566110206261E+02
             -0.173686272805307E+02
              0.181411937635322E+02
              0.213169429128361E+02
             -0.461667617950216E+02
             -0.201785142617368E+02
              0.439050765262646E+02
             -0.275599492701904E+02
              0.186408139795948E+02
              0.381763526077461E+02
             -0.322633623948923E+01
              0.113711589070280E+03
             -0.230231378769897E+02
             -0.339834509744181E+02
              0.580823185511542E+01
             -0.226963188041263E+02
              0.525343470937451E+02
             -0.334789491758375E+02
              0.105719556755142E+02
              0.639252005641136E+02
             -0.125866673183846E+02
              0.119788064780287E+03
              0.125383180747656E+03
             -0.647099284987069E+02
              0.588316674069412E+02
              0.165149643290732E+02
             -0.515380120972741E+02
              0.215731168816430E+02
              0.351767107513604E+02
              0.360479945840632E+02
              0.133643624845294E+01
              0.158560628451690E+02
              0.692485636257913E+02
             -0.246000478568596E+02
              0.180980387841547E+02
              0.736706873483348E+02
             -0.371196641389604E+02
             -0.128248434259604E+02
              0.505931427928403E+02
              0.296088508493077E+02
              0.777481434196000E+02
              0.220892418683964E+02
              0.616394296103306E+01
              0.279400856152906E+02
              0.381460874286895E+02
             -0.469135372216562E+02
              0.325266787597309E+01
              0.128021677936054E+02
              0.113239566513275E+02
              0.219423459323112E+02
             -0.572247982459889E+02
              0.365085336688661E+02
             -0.442313851636595E+02
             -0.346153666818012E+02
              0.176910058635150E+02
             -0.181307702721513E+02
              0.552441520341880E+02
             -0.256351016826904E+02
              0.265538485871913E+02
              0.367091170484559E+02
              0.826349473078414E+02
              0.572748728477364E+02
              0.459611404257681E+02
             -0.106166693775258E+02
             -0.384062151861889E+01
             -0.330942309113283E+02
              0.747097093069561E+02
              0.793878791125601E+02
              0.360227337560483E+02
             -0.190618178444257E+02
              0.510003881262837E+02
             -0.163293277767861E+02
              0.214574257452879E+02
              0.611429702333000E+02
              0.216063613608023E+01
             -0.103915565848261E+02
             -0.282567945588595E+02
             -0.508696356301280E+02
              0.941694839836375E+02
              0.437240939355504E+02
             -0.556259914334439E+02
             -0.952892164545037E+01
              0.249016072839249E+02
             -0.993813463030295E+01
              0.589381764620783E+02
              0.151647664879563E+02
              0.795946129569779E+02
              0.277934470284715E+02
             -0.263547659357711E+02
              0.248685094968385E+02
             -0.498489371263366E+01
             -0.323084758631481E+02
              0.132644138588272E+02
              0.205444778106836E+02
              0.929018380996643E+02
              0.794456688864797E+02
              0.548546327498423E+02
              0.728507772110631E+02
              0.797108622709396E+01
             -0.272916318893876E+02
              0.162661107162384E+02
             -0.366753962246923E+02
             -0.473724626723578E+02
             -0.561620048680800E+02
             -0.265124058527292E+02
             -0.109281449414938E+03
             -0.289675117829038E+02
             -0.833812557777247E+02
              0.209126375536935E+02
             -0.475325227202519E+02
              0.394381778558659E+02
             -0.937118410792769E+02
             -0.329001782276032E+02
              0.547684166905242E+02
              0.206920603499818E+02
             -0.826838247352267E+02
              0.629405461515765E+02
             -0.255547456586899E+02
              0.510170723948177E+02
             -0.241823501602152E+02
             -0.748313334440240E+02
              0.111142027332944E+02
             -0.608589938744577E+02
             -0.168546596151819E+02
             -0.145472151746725E+01
              0.416836454447905E+02
              0.126513289049691E+03
             -0.460271761269977E+02
             -0.361220028458072E+02
             -0.928808642889976E+00
             -0.130219412617119E+02
             -0.819537607595791E+02
             -0.594687924915563E+02
              0.515554533222826E+02
             -0.288599322681749E+02
              0.168039305784252E+02
             -0.487470696842544E+02
             -0.131015667449047E+02
             -0.435652641613893E+02
              0.563791254367283E+02
              0.151037142106479E+02
             -0.230675653240296E+02
             -0.125853991975812E+02
              0.660194695897717E+01
             -0.616696683162087E+01
              0.440103225839742E+02
             -0.251002636162109E+02
              0.267173125125896E+01
              0.337957944900526E+02
              0.171095421684494E+02
             -0.158468638220623E+02
              0.155686171959112E+03
              0.535260365414614E+02
              0.111203893850099E+01
              0.161482272798213E+02
             -0.612359172550440E+02
              0.313564479040533E+02
             -0.718536385780691E+02
             -0.250540605593162E+02
             -0.520270898956122E+02
             -0.219319115633049E+02
              0.566768755243754E+02
             -0.534755113046100E+02
              0.159416792136506E+02
             -0.406033597000555E+01
              0.387974295060425E+01
             -0.432858460488350E+02
             -0.476839921498282E+02
             -0.394042166976658E+01
             -0.424328403722415E+02
             -0.216545458696098E+02
             -0.436791805668933E+02
             -0.119243678936914E+02
             -0.357776832554316E+02
             -0.514785567962217E+02
              0.212187392949517E+02
             -0.209064385458653E+02
              0.186658371661603E+02
              0.973448976202526E+01
             -0.734987991947669E+02
             -0.546382069706976E+02
             -0.395756048898836E+02
              0.353237377981686E+02
              0.275642689166617E+01
             -0.624439676740330E+02
              0.583441783208259E+02
             -0.399518790174949E+02
              0.542248983315105E+02
             -0.288199848352528E+02
             -0.444115595728089E+02
              0.297827675911507E+02
             -0.654828308197040E+02
             -0.379017370848375E+02
              0.670700823801267E+02
              0.203195050619396E+02
             -0.357949384038908E+02
              0.487086935378230E+02
             -0.173364638292600E+02
             -0.321306332984408E+02
             -0.300707266414375E+02
             -0.498583590300364E+02
              0.248166437686128E+02
             -0.929809004789892E+02
             -0.837598730322312E+02
             -0.730852346131746E+01
             -0.305717758916024E+02
             -0.573034612416602E+02
              0.718738970851462E+02
              0.130976989910891E+03
             -0.360645183848145E+02
             -0.252640084029900E+01
             -0.634964727216968E+02
              0.648032325079457E+02
              0.169728506880027E+02
             -0.180471899998457E+02
             -0.408798687258385E+02
              0.148162007123489E+02
             -0.583981328435404E+02
             -0.197474784669903E+02
             -0.901597947585212E+02
              0.335514259194999E+02
              0.168789177161287E+02
              0.188689649512469E+01
             -0.698043395755440E+01
             -0.327486303730927E+02
             -0.751486828779269E+01
              0.124963501646636E+03
             -0.198553574205666E+02
             -0.435313846323126E+02
             -0.681111849381799E+02
              0.108614897928672E+02
             -0.340458574664995E+02
              0.584302491199320E+01
              0.260062179819743E+02
              0.101923220399317E+02
              0.276322334670620E+02
              0.118966762552362E+02
              0.627453471266654E+02
              0.316245325916420E+02
             -0.324990723216650E+02
              0.352935191891684E+02
              0.378232866017036E+02
              0.120382843741992E+02
              0.485763762915496E+02
             -0.223117955824112E+02
              0.762948699620952E+02
              0.170903564189778E+02
             -0.270671665902865E+02
             -0.721336537567654E+01
             -0.185780931184780E+02
              0.261614060472989E+02
             -0.233833928796152E+02
             -0.338052902293100E-01
             -0.843073479518682E+01
              0.806767355268385E+02
              0.497679060690166E+02
             -0.685028512451316E+02
             -0.469718661077025E+01
             -0.553743854128840E+02
             -0.159246745036742E+02
             -0.267445792452761E+02
              0.369627376843653E+01
              0.592644562533772E+00
             -0.256259741562856E+02
              0.803831694525422E+01
             -0.598198456125283E+01
             -0.128465515980571E+02
              0.855629683449820E+02
              0.181510663915694E+02
             -0.803649230242005E+02
             -0.457254238466844E+02
              0.940953735354358E+02
              0.276915145978020E+02
             -0.106492475954932E+02
              0.104133207701875E+03
             -0.194523452059275E+02
             -0.122894344043006E+02
             -0.532254143268858E+01
              0.106669315826826E+02
              0.270851732068408E+02
              0.779637004768438E+01
              0.304214708200086E+02
             -0.187834774102588E+02
             -0.301727485855657E+02
             -0.416370041757075E+02
             -0.475056348174453E+02
              0.462734737775011E+02
              0.126288380652075E+02
              0.386095545816955E+02
              0.132843421826950E+02
              0.852035271621195E+02
              0.155448305647735E+02
             -0.843139071214162E+02
             -0.333161258520514E+02
              0.134006315111802E+02
             -0.301686796475685E+02
              0.623916817712231E+02
             -0.879411854653267E+01
              0.148170939356165E+02
              0.494821139642948E+02
             -0.704058433970006E+02
              0.149171618615014E+03
              0.207885314933245E+02
              0.270378682588712E+02
              0.346026771562510E+02
              0.103703608274579E+02
             -0.157946573759830E+01
              0.357302369875255E+02
             -0.355649362744233E+02
              0.769702342354575E+02
              0.681688066574933E+02
             -0.404421693799675E+02
              0.148796044028760E+02
              0.667298791857461E+02
             -0.223172435200943E+02
              0.153339164399031E+02
              0.434283806986026E+02
              0.420892233000304E+02
             -0.781992711712970E+02
             -0.152771225278336E+02
             -0.355470991802355E+02
             -0.146199615296734E+01
             -0.760540195334237E+01
             -0.551184024374891E+01
             -0.180654501112011E+02
             -0.292360526351565E+02
              0.623268983355344E+01
              0.111784068823657E+02
              0.533589461407274E+02
             -0.388258081642891E+02
              0.372164558987190E+02
              0.436400892559387E+02
             -0.186692710915576E+02
              0.869865892807536E+02
             -0.695315801666201E+02
             -0.102797428969502E+03
             -0.654429368924658E+01
             -0.266632887250034E+01
              0.387947350357354E+01
              0.786403617683207E+02
             -0.107280045019643E+02
              0.414931949208621E+02
              0.440828732291727E+02
              0.383941028553006E+02
             -0.991289478675753E+01
              0.625641086062013E+02
             -0.133057173834699E+02
             -0.305644157993912E+02
             -0.478515058890501E+02
              0.580179214967541E+01
              0.368505432608090E+02
             -0.604123637006464E+01
              0.392034624465870E+02
             -0.178269381655730E+01
              0.653448464639663E+02
              0.187099024145017E+02
              0.995705200026180E+01
             -0.122036834160506E+02
              0.331217609353962E+02
              0.361092208927602E+02
              0.232438733382282E+02
             -0.491618530245916E+00
             -0.548282965038456E+02
              0.259597198084049E+02
              0.174379423690390E+02
              0.401602490209565E+02
              0.271221893992661E+02
              0.371006022079213E+02
             -0.599319004832668E+01
              0.249332769108785E+02
             -0.297372247042344E+02
             -0.196486000495997E+01
             -0.567409408605984E+02
             -0.306673752263018E+02
              0.377033730344943E+02
             -0.932398281301198E+02
              0.293803923604790E+02
              0.183543359964942E+02
              0.836849327786432E+02
             -0.300669765185235E+02
              0.327983555745043E+02
             -0.137471214036826E+02
             -0.462084784490853E+02
             -0.759577377713169E+02
             -0.517132282668764E+01
             -0.856403940256070E+02
              0.199852621232239E+02
             -0.246751399903993E+02
              0.304450812499001E+02
              0.235782839640308E+02
             -0.239781156128166E+02
             -0.263904389626808E+02
              0.389319569568658E+02
             -0.585833414069904E+02
             -0.116101516098290E+02
             -0.195581958252895E+02
              0.211252491421249E+02
             -0.898745816031578E+01
              0.363086415120088E+01
             -0.200294331837210E+02
              0.556909436613276E+02
             -0.436605056212840E+02
              0.787505557801865E+01
              0.583036176175608E+02
             -0.321707281514196E+02
              0.357626845578403E+01
             -0.886196695004401E+01
             -0.667314136205294E+02
             -0.481716461502627E+02
             -0.863448897507253E+01
              0.239430300442563E+02
              0.300877757566514E+02
              0.857541699786003E+01
             -0.408805825862055E+01
              0.151539606730582E+02
             -0.438630236734022E+02
              0.338148169287558E+01
             -0.528945909587579E+02
             -0.323787803889086E+02
              0.472744286268242E+02
             -0.293985214771684E+02
              0.619496115856201E+02
             -0.213519785064397E+02
              0.352627155798093E+02
              0.240804000394237E+02
             -0.641832412003334E+02
             -0.279743309783735E+02
              0.927500855090949E+01
             -0.369955929276296E+02
             -0.337967167166518E+02
             -0.826441874697753E+02
             -0.537363439988569E+02
             -0.508740383719121E+02
             -0.413765507933710E+02
             -0.970766746369691E+00
              0.983358514901107E+01
              0.951406133111789E+00
              0.151858449101095E+02
             -0.547150633332938E+02
              0.141237470124828E+02
              0.255158542226035E+02
             -0.664110096460620E+02
             -0.700041310165674E+02
             -0.429753516508317E+02
             -0.170322761086742E+02
              0.178262227645799E+02
              0.458829034803387E+01
             -0.424523583423004E+02
              0.365640459361908E+02
             -0.214966150527038E+02
              0.515476314560440E+02
             -0.883886422657985E+02
              0.594995980924203E+02
             -0.204050446531026E+01
             -0.366590812443254E+02
             -0.215449935083823E+02
              0.472537273618846E+01
              0.372513572584214E+02
             -0.753784087312554E+02
             -0.120412823154408E+02
             -0.216096148762616E+02
              0.509872312000555E+02
              0.861750202631599E+02
             -0.961300256942280E+02
              0.940680108780565E+02
              0.466582551540062E+02
             -0.722568273913424E+02
             -0.365659757311511E+02
              0.748707475147311E+02
              0.629961254190262E+02
             -0.180086649315293E+02
             -0.459641363629237E+01
              0.722266256102760E+01
              0.645801716769002E+02
             -0.505921223731953E+02
              0.158210759683674E+02
             -0.468988567357800E+01
              0.347041578222635E+02
             -0.744456723135789E+02
             -0.649509248399019E+01
             -0.350390024042821E+02
              0.458731081692652E+02
              0.467380666238777E+02
             -0.858421104102397E+02
             -0.485497090410465E+02
             -0.255556634994848E+02
             -0.337355523608859E+02
             -0.109015094259346E+02
             -0.242399778506221E+02
              0.425574225331216E+02
              0.399493620265444E+02
             -0.567701750579397E+01
             -0.414533217562607E+02
             -0.847036157785735E+02
              0.440865659938994E+02
             -0.521745642708522E+02
             -0.311219411292565E+02
              0.543995150369679E+01
             -0.321015928672237E+02
             -0.396560981870504E+02
             -0.238770929814926E+02
             -0.383060675920207E+02
             -0.270051890468103E+02
             -0.480654372003743E+02
              0.562087911531016E+02
              0.636194404040444E+02
             -0.164084666594897E+01
             -0.260591629428661E+02
             -0.628365235610613E+01
              0.439462753974238E+02
             -0.864908071132147E+02
             -0.145423809536093E+02
              0.522005711451811E+02
              0.660630659771747E+02
             -0.244351086380552E+02
              0.911378636640279E+01
              0.521451555699317E+02
              0.197536734870788E+02
             -0.833172594644981E+01
             -0.451710915620647E+02
              0.280121253206755E+02
             -0.351414224589369E+02
             -0.164938970796551E+02
             -0.152048159531785E+02
             -0.199859745555528E+02
              0.193752558656099E+02
              0.797175087815968E+02
              0.191417104735962E+01
              0.534567495846082E+01
             -0.883999531023415E+02
             -0.175075640586131E+02
             -0.351480594115109E+02
[...]
              0.282687051723418E+02
              0.141311811384567E+03
              0.240806196566700E+02
              0.121781797866710E+02
             -0.462756334113296E+02
             -0.635939160232623E+02
             -0.188561714657174E+02
              0.328305679774815E+02
             -0.424898838362833E+01
              0.188659594994144E+02
              0.334778638765325E+02
             -0.584395777303545E+02
              0.221283729085735E+02
              0.581473911273579E+02
              0.550978094309677E+02
             -0.415369584257883E+01
             -0.142698623419392E+01
             -0.990890451149392E+01
             -0.480810094499947E+02
             -0.671947145642509E+02
              0.782860900335333E+02
             -0.518216630031708E+01
             -0.586057183391334E+02
              0.165146303944692E+01
             -0.203845567656485E+02
              0.935191038359014E+02
             -0.215581671990869E+02
             -0.351948728891541E+02
              0.333453545762155E+02
             -0.144983568612510E+02
              0.387662205448253E+02
             -0.242545959049750E+01
              0.100751205896639E+03
              0.487257042398938E+02
             -0.520158708268215E+01
             -0.320306051548188E+02
              0.230922070505380E+02
             -0.526450445354259E+02
             -0.127972652036367E+02
              0.583140441340699E+02
             -0.286737933187101E+02
             -0.436825676543876E+02
             -0.222181420974811E+02
              0.516766921880392E+02
              0.124482996718114E+02
             -0.845680824037151E+02
              0.302406802505961E+02
              0.152241258523131E+02
              0.570585381033268E+01
             -0.511587384085874E+02
             -0.383543909016828E+01
              0.321871263383673E+02
              0.511241129686168E+02
              0.629753209087420E+02
              0.227374265429784E+02
              0.743496359757160E+00
             -0.495498387662896E+02
             -0.508355320051671E+02
             -0.745741692043836E+02
             -0.606771005816040E+01
              0.307550515564635E+02
             -0.378767055287068E+01
              0.544975001415945E+02
             -0.316648936336326E+02
              0.165977192547032E+02
             -0.101255733046889E+02
             -0.288392518279825E+02
              0.583099795449464E+02
              0.790809131920508E+01
              0.601542391849255E+02
              0.505053518506145E+01
              0.264542990508137E+02
             -0.192044382384299E+02
              0.583816137175250E+02
             -0.110354323709757E+02
             -0.140262301353854E+00
             -0.786997915589369E+02
             -0.128215206352721E+02
              0.716371141729194E+02
              0.670895943322451E+02
              0.250710281947812E+02
             -0.129556248163351E+02
              0.339313259717360E+01
             -0.172286557986250E+02
             -0.191047634327867E+01
              0.903944432076180E+02
              0.118956931041544E+01
             -0.189028487594023E+02
             -0.110354171565647E+03
             -0.551495841189623E+02
             -0.373381450817022E+02
             -0.656386448947991E+02
             -0.553062342814730E+02
             -0.679859851334938E+02
             -0.445330856427778E+02
             -0.410194171724630E+02
             -0.449787783290317E+02
              0.481744733898899E+02
             -0.293935996972432E+02
             -0.992898317071623E+02
              0.417217285555694E+02
             -0.258577695971571E+02
             -0.787775288397596E+02
              0.939763461669939E+02
             -0.218536133020316E+02
              0.227711116852472E+02
              0.453740615565208E+02
             -0.145690625359009E+01
              0.253128586852330E+02
              0.467761694587148E+01
              0.402640091668417E+00
             -0.149963973429824E+02
             -0.712537746755052E+02
              0.132601995693749E+02
             -0.128947732431432E+03
              0.620725954245266E+02
             -0.439019462060454E+02
             -0.161901888586335E+02
             -0.157204601092952E+02
              0.701695778934602E+01
             -0.227284035975435E+02
              0.296121474966749E+02
             -0.518023302339775E+02
              0.365961954339194E+02
              0.368790632766356E+02
              0.168559899086069E+02
              0.100005283138472E+02
              0.196888499229426E+02
              0.615679240276063E+01
              0.309398999813755E+02
             -0.798797813000130E+01
             -0.588479502624555E+02
              0.753642797731561E+01
             -0.151032974759848E+02
             -0.190726226470514E+01
              0.503478134590198E+02
             -0.823768749562064E+02
             -0.151249834849762E+01
              0.548805917241964E+00
              0.990875846966412E+01
              0.317406644320095E+02
             -0.123243313585466E+02
              0.832411924397478E+02
              0.486674765770780E+02
             -0.182749237085975E+02
             -0.955489479721905E+01
              0.100938202297652E+01
              0.766477499808925E+02
             -0.584477149592900E+02
             -0.105365450016707E+03
              0.307908662997998E+02
             -0.162696780083958E+02
             -0.138568673689660E+02
              0.129765991390674E+02
              0.765582494682948E+02
              0.462633468011185E+02
             -0.152927728779255E+02
             -0.500666102472128E+02
             -0.541728045849140E+01
              0.305367693042490E+02
             -0.110607685947861E+02
             -0.752560454479192E+02
             -0.264503728693461E+01
             -0.885684637988709E+02
             -0.473251617224053E+02
              0.764693057807282E+02
             -0.481263811090826E+02
             -0.633388823185706E+02
             -0.512224267009350E+02
             -0.348005476163358E+02
              0.339241171735866E+02
              0.817852606407374E+02
             -0.349950282763569E+01
              0.275602876688630E+02
             -0.182647061617427E+02
             -0.691143776011517E+02
              0.462951895222535E+02
             -0.442847967683224E+02
              0.320991601593725E+02
              0.375328622765657E+02
             -0.645620161950444E+01
              0.389349710652451E+02
              0.436956077544952E+02
              0.100107260234694E+03
             -0.155932312875899E+02
             -0.453231347053182E+02
             -0.610131438870249E+02
             -0.122914896721334E+02
             -0.230579771565261E+02
              0.102686844538967E+03
             -0.447186007428355E+02
              0.104655689824209E+02
              0.973509152643044E+01
             -0.264124848085474E+02
             -0.794858234575981E+02
             -0.696080665566325E+01
              0.975626064134323E+02
              0.923573840853268E+01
              0.805414561111400E+01
             -0.524101247382001E+02
             -0.603352171057550E+02
             -0.551635558750210E+01
              0.498795797273516E+02
             -0.220635787609606E+02
              0.107579292935192E+03
             -0.433098829680003E+02
              0.145375950189063E+02
             -0.224174337650563E+02
             -0.716050052419331E+02
              0.164390899739197E+01
             -0.499207050358034E+02
             -0.757573736925688E+02
              0.608202519758231E+01
              0.237093022198479E+01
              0.512051168307702E+02
              0.185927112611697E+02
             -0.322093712179448E+02
              0.229196122467664E+02
             -0.806781362843213E+02
             -0.520101823083966E+02
              0.897936332314047E+02
              0.142575199339498E+02
             -0.188205122026675E+02
             -0.351591580449404E+02
             -0.269466974037550E+01
             -0.579880052482656E+01
              0.825850218938987E+02
              0.415871468636476E+02
             -0.166042196427886E+02
             -0.122278249720381E+02
             -0.426120992207048E+02
             -0.200416941614649E+02
             -0.667730293453842E+02
              0.457447228488719E+02
              0.543691731520630E+01
              0.144877578316210E+02
              0.155015523285107E+02
             -0.487705192261878E+00
             -0.167281171689312E+02
             -0.317901775185786E+01
             -0.999362522378970E+02
             -0.229713420099125E+02
             -0.758897107679252E+01
             -0.946780671234066E+01
              0.544945162414528E+02
              0.620908767018438E+02
              0.163962215328522E+02
             -0.966711147319912E+02
              0.645036305007759E+02
             -0.214011715232293E+02
             -0.375536115918940E+02
             -0.860569649256789E+02
             -0.386166433954459E+02
              0.561440063262849E+02
              0.242517536483734E+02
              0.505268079109271E+01
              0.290567245111268E+02
             -0.562562580837953E+02
             -0.419926578831185E+02
              0.512577663728699E+02
              0.385440990952615E+02
              0.517193981754260E+02
             -0.130481142322668E+01
              0.680097821504017E+01
              0.567270220855747E+02
              0.958651723099787E+02
             -0.299896608723316E+02
              0.320964526108173E+02
             -0.116445693315829E+02
             -0.410193864293116E+02
             -0.312734562825005E+02
             -0.298445550698917E+02
             -0.130795205445872E+02
             -0.521572668515204E+02
             -0.216715980355090E+02
             -0.140650347239579E+03
              0.367638506243318E+02
              0.205398535437579E+02
             -0.391461888555961E+01
             -0.378647902865891E+02
             -0.203661525992190E+02
             -0.524342264383962E+02
              0.151150740034450E+02
              0.816841154871377E+02
             -0.251350767354152E+02
             -0.162200345703174E+02
              0.237317976052556E+02
             -0.487027091512434E+02
              0.877038938865081E+02
              0.153917822564147E+02
              0.226364820692626E+02
              0.488291634714485E+02
              0.326660849921348E+01
              0.539634922213614E+02
              0.142040371725219E+02
             -0.106847884422492E+02
              0.727022284014015E+01
              0.864604818003727E+00
              0.724740941671959E+02
              0.100754398375466E+02
              0.119358071724700E+02
             -0.129583109821506E+02
              0.131794400898931E+02
             -0.907183107278323E+02
             -0.324536506691842E+02
             -0.455118083927218E+02
              0.483458096250106E+02
             -0.289453658395515E+02
             -0.656444058309062E+02
              0.535878631426035E+02
             -0.121437805081703E+02
              0.438566444883530E+02
             -0.895034599606205E+02
              0.231780694338983E+02
              0.857314991265633E+01
              0.579369701707355E+01
             -0.824520118140254E+01
             -0.900334862733553E+01
              0.477154579035832E+02
              0.197667089355377E+01
             -0.472626111189697E+02
             -0.175029395846661E+02
              0.276115090133512E+02
             -0.117456283438789E+03
             -0.926526084937422E+02
              0.396713870937822E+01
              0.116645865735368E+02
             -0.410793768060389E+02
             -0.391015437351086E+01
              0.111710027388922E+03
              0.305676652261050E+02
             -0.569479140080805E+02
              0.922078580316833E+01
             -0.958865105633913E+01
              0.104943284251860E+02
             -0.336003544467216E+02
              0.194123154945383E+02
              0.283759443174598E+02
             -0.296654691070194E+01
              0.107697448849832E+03
             -0.140374188900635E+02
             -0.314656989930102E+02
              0.141193782319593E+02
              0.464681496610261E+02
             -0.354700762732963E+02
             -0.318156857311301E+01
              0.960575365530257E+02
             -0.463963982759242E+01
              0.619466006521550E+02
              0.134723484454283E+02
             -0.901981441057836E+01
             -0.305036516060064E+02
              0.564965723434145E+02
             -0.511541460059680E+02
             -0.220528218429592E+01
             -0.168968649814559E+02
             -0.403698324876622E+02
              0.184466917892407E+02
              0.238005642297839E+02
              0.116466449071236E+02
              0.718975848099717E+00
             -0.382669687162431E+02
              0.214990902926370E+02
             -0.674293737715496E+01
             -0.245790001475773E+02
             -0.209919827062152E+02
              0.202936376799630E+02
             -0.598644852099062E+01
             -0.347514434858101E+02
             -0.106157716164093E+03
              0.102541441667499E+02
              0.248526610128210E+02
             -0.384989843767384E+02
             -0.209813350493828E+02
              0.803548042863156E+02
              0.642294562546687E+01
              0.308602767472148E+02
              0.384344333928607E+01
              0.320019813606121E+02
              0.644815555094669E+01
             -0.371374862488900E+02
             -0.221239538477144E+01
              0.875826283391746E+01
              0.272210046019863E+02
              0.779146437800396E+02
              0.505313534573947E+02
              0.150492364653189E+00
              0.168601576837312E+02
              0.610620553317449E+02
              0.234636536283977E+02
             -0.750279935109851E+02
             -0.272446536513149E+02
              0.150821131246541E+02
              0.557650935333771E+01
              0.254097776957130E+02
             -0.545741859027108E+02
              0.900103815375327E+01
              0.383976399845822E+02
              0.495979317789641E+02
             -0.433266621767265E+02
             -0.696915624610148E+01
             -0.206639307060169E+01
             -0.132705843541824E+02
             -0.364881704451537E+02
             -0.215078813922287E+02
             -0.191771088554924E+01
              0.786265896066146E+01
              0.419521759692302E+02
             -0.306927838805618E+02
              0.822793052106183E+02
              0.326214426299411E+02
              0.218554969844255E+02
              0.331295982559741E+02
              0.322465275133681E+02
              0.344325331127302E+02
              0.534866710153231E+02
             -0.431815715380290E+02
              0.616997160825552E+02
             -0.111764529876318E+03
              0.306064520714249E+02
             -0.106099340650078E+03
              0.851394178030739E+02
              0.687253453109283E+02
             -0.109635027731411E+02
             -0.491369948599472E+02
             -0.427608453420666E+02
             -0.621480494002545E+02
             -0.625854965031646E+02
              0.549476340129382E+02
              0.403817970584693E+02
              0.235847326014295E+02
              0.373171813738463E+02
              0.400916487306234E+02
             -0.380302850387620E+02
             -0.197375483111838E+02
              0.584507022261340E+02
             -0.115549176084185E+02
              0.549704306300670E+02
              0.696031136234503E+02
             -0.552115478920441E+01
             -0.703023403883843E+02
             -0.947409856476611E+00
             -0.245915951507133E+01
             -0.877902855602383E+01
             -0.181682974719649E+01
             -0.650426260701018E+02
             -0.210996280970153E+02
              0.531026687067822E+01
              0.889259003241426E+01
              0.466715371101253E+02
             -0.395838651285588E+02
              0.655869937918561E+02
             -0.423845783908223E+02
              0.208934751416976E+02
              0.348441700987592E+02
 
 BEEF-vdW xc energy contributions
           1 :   -780.210468665843     
           2 :    717.172346044006     
           3 :   -607.869795246730     
           4 :    478.949296929383     
           5 :   -357.638964085612     
           6 :    263.679014870136     
           7 :   -204.786031669117     
           8 :    176.578248313382     
           9 :   -166.534808718668     
          10 :    160.102320011193     
          11 :   -146.460810759691     
          12 :    121.773521411951     
          13 :   -89.0621616388946     
          14 :    55.3223120783175     
          15 :   -27.5512472900766     
          16 :    9.48745601976748     
          17 :  -0.327148688348757     
          18 :   -4.32210402131489     
          19 :    9.95167261891038     
          20 :   -20.4415737243638     
          21 :    36.3805726239591     
          22 :   -55.0824443606783     
          23 :    72.1197732466186     
          24 :   -83.5385345178175     
          25 :    87.6648846404001     
          26 :   -85.7066884221870     
          27 :    80.9650807027051     
          28 :   -77.1350898294920     
          29 :    76.5557295065386     
          30 :   -79.2332401652041     
          31 :   -85.4004884270604     
          32 :   -65.5284771908974     

     Writing output data file ./pwscf.save/
 
     init_run     :    312.01s CPU    316.52s WALL (       1 calls)
     electrons    :  12233.85s CPU  12352.34s WALL (       1 calls)
     forces       :     96.50s CPU     97.75s WALL (       1 calls)

     Called by init_run:
     wfcinit      :    262.52s CPU    265.94s WALL (       1 calls)
     potinit      :     46.12s CPU     46.46s WALL (       1 calls)
     hinit0       :      1.46s CPU      1.51s WALL (       1 calls)

     Called by electrons:
     c_bands      :  10168.17s CPU  10258.59s WALL (      19 calls)
     sum_band     :   1369.25s CPU   1381.79s WALL (      19 calls)
     v_of_rho     :    123.65s CPU    127.55s WALL (      19 calls)
     newd         :     29.77s CPU     41.55s WALL (      19 calls)
     PAW_pot      :    133.12s CPU    133.12s WALL (      19 calls)
     mix_rho      :    456.73s CPU    457.38s WALL (      19 calls)
     vdW_kernel   :     33.93s CPU     33.93s WALL (       1 calls)

     Called by c_bands:
     init_us_2    :     73.89s CPU     74.09s WALL (     520 calls)
     cegterg      :   9412.58s CPU   9502.82s WALL (     247 calls)

     Called by *egterg:
     cdiaghg      :     96.10s CPU     96.16s WALL (    1360 calls)
     h_psi        :   5908.22s CPU   5939.37s WALL (    1386 calls)
     s_psi        :   1005.22s CPU   1005.22s WALL (    1386 calls)
     g_psi        :     16.66s CPU     16.66s WALL (    1126 calls)

     Called by h_psi:
     h_psi:calbec :    944.42s CPU    944.49s WALL (    1386 calls)
     vloc_psi     :   3933.03s CPU   3933.93s WALL (    1386 calls)
     add_vuspsi   :   1004.17s CPU   1004.22s WALL (    1386 calls)

     General routines
     calbec       :   1374.38s CPU   1374.47s WALL (    1685 calls)
     fft          :     46.72s CPU     46.75s WALL (    3159 calls)
     ffts         :    146.36s CPU    146.38s WALL (   10736 calls)
     fftw         :   4038.18s CPU   4038.73s WALL (  327149 calls)
 
     Parallel routines
 
     PWSCF        :      3h33m CPU      3h35m WALL

 
   This run was terminated on:  19:24:34  20Dec2022            

=------------------------------------------------------------------------------=
   JOB DONE.
=------------------------------------------------------------------------------=
