
     Program PWSCF v.6.7MaX starts on 20Dec2022 at 15:50:30 

     This program is part of the open-source Quantum ESPRESSO suite
     for quantum simulation of materials; please cite
         "P. Giannozzi et al., J. Phys.:Condens. Matter 21 395502 (2009);
         "P. Giannozzi et al., J. Phys.:Condens. Matter 29 465901 (2017);
          URL http://www.quantum-espresso.org", 
     in publications or presentations arising from this work. More details at
     http://www.quantum-espresso.org/quote

     Parallel version (MPI), running on     1 processors

     MPI processes distributed on     1 nodes
     Reading input from h-ensemble.in
Warning: card &CELL ignored
Warning: card / ignored

     Current dimensions of program PWSCF are:
     Max number of different atomic species (ntypx) = 10
     Max number of k-points (npk) =  40000
     Max angular momentum in pseudopotentials (lmaxx) =  3
     file Pt.pbe-n-kjpaw_psl.1.0.0.UPF: wavefunction(s)  6S 5D renormalized
     file H.pbe-kjpaw_psl.1.0.0.UPF: wavefunction(s)  1S renormalized

     **************************************************************************
     Initializing libbeef V0.1.2 with the BEEF-vdW functional.
     Citation: Wellendorff et al., PRB 85, 235149 (2012).
     **************************************************************************


     IMPORTANT: XC functional enforced from input :
     Exchange-correlation= BEEF-VDW
                           (   1   4  43  14   2   0   0)
     Any further DFT definition will be discarded
     Please, verify this is what you really want


     Subspace diagonalization in iterative solution of the eigenvalue problem:
     a serial algorithm will be used

 
     G-vector sticks info
     --------------------
     sticks:   dense  smooth     PW     G-vecs:    dense   smooth      PW
     Sum        4267    4267   1159               655281   655281   92275
 


     bravais-lattice index     =            0
     lattice parameter (alat)  =      16.0349  a.u.
     unit-cell volume          =   10431.5843 (a.u.)^3
     number of atoms/cell      =           37
     number of atomic types    =            2
     number of electrons       =       361.00
     number of Kohn-Sham states=          217
     kinetic-energy cutoff     =      60.0000  Ry
     charge density cutoff     =     240.0000  Ry
     scf convergence threshold =      1.0E-06
     mixing beta               =       0.7000
     number of iterations used =            8  local-TF  mixing
     Exchange-correlation= BEEF-VDW
                           (   1   4  43  14   2   0   0)

     celldm(1)=  16.034858  celldm(2)=   0.000000  celldm(3)=   0.000000
     celldm(4)=   0.000000  celldm(5)=   0.000000  celldm(6)=   0.000000

     crystal axes: (cart. coord. in units of alat)
               a(1) = (   1.000000   0.000000   0.000000 )  
               a(2) = (   0.500000   0.866025   0.000000 )  
               a(3) = (   0.000000   0.000000   2.921624 )  

     reciprocal axes: (cart. coord. in units 2 pi/alat)
               b(1) = (  1.000000 -0.577350  0.000000 )  
               b(2) = (  0.000000  1.154701  0.000000 )  
               b(3) = (  0.000000  0.000000  0.342275 )  


     PseudoPot. # 1 for Pt read from file:
     /users/bkreitz1/quantum-espresso/potentials/Pt.pbe-n-kjpaw_psl.1.0.0.UPF
     MD5 check sum: 04dc8a03c51ece93fc7b5889c2958091
     Pseudo is Projector augmented-wave + core cor, Zval = 10.0
     Generated using 'atomic' code by A. Dal Corso  v.6.7MaX
     Shape of augmentation charge: PSQ
     Using radial grid of 1277 points,  6 beta functions with: 
                l(1) =   0
                l(2) =   0
                l(3) =   1
                l(4) =   1
                l(5) =   2
                l(6) =   2
     Q(r) pseudized with 0 coefficients 


     PseudoPot. # 2 for H  read from file:
     /users/bkreitz1/quantum-espresso/potentials/H.pbe-kjpaw_psl.1.0.0.UPF
     MD5 check sum: ae98473e6dc62675f0d0baffdab24f65
     Pseudo is Projector augmented-wave, Zval =  1.0
     Generated using 'atomic' code by A. Dal Corso  v.6.7MaX
     Shape of augmentation charge: PSQ
     Using radial grid of  929 points,  2 beta functions with: 
                l(1) =   0
                l(2) =   0
     Q(r) pseudized with 0 coefficients 


     atomic species   valence    mass     pseudopotential
        Pt            10.00   195.08400     Pt( 1.00)
        H              1.00     1.00800     H ( 1.00)

     No symmetry found



   Cartesian axes

     site n.     atom                  positions (alat units)
         1           Pt  tau(   1) = (   0.0000000   0.0000000   1.0017346  )
         2           Pt  tau(   2) = (   0.3333333   0.0000000   1.0017346  )
         3           Pt  tau(   3) = (   0.6666667   0.0000000   1.0017346  )
         4           Pt  tau(   4) = (   0.1666667   0.2886751   1.0017346  )
         5           Pt  tau(   5) = (   0.5000000   0.2886751   1.0017346  )
         6           Pt  tau(   6) = (   0.8333333   0.2886751   1.0017346  )
         7           Pt  tau(   7) = (   0.3333333   0.5773503   1.0017346  )
         8           Pt  tau(   8) = (   0.6666667   0.5773503   1.0017346  )
         9           Pt  tau(   9) = (   1.0000000   0.5773503   1.0017346  )
        10           Pt  tau(  10) = (   0.1666667   0.0962250   1.2739001  )
        11           Pt  tau(  11) = (   0.5000000   0.0962250   1.2739001  )
        12           Pt  tau(  12) = (   0.8333333   0.0962250   1.2739001  )
        13           Pt  tau(  13) = (   0.3333333   0.3849002   1.2739001  )
        14           Pt  tau(  14) = (   0.6666667   0.3849002   1.2739001  )
        15           Pt  tau(  15) = (   1.0000000   0.3849002   1.2739001  )
        16           Pt  tau(  16) = (   0.5000000   0.6735753   1.2739001  )
        17           Pt  tau(  17) = (   0.8333333   0.6735753   1.2739001  )
        18           Pt  tau(  18) = (   1.1666667   0.6735753   1.2739001  )
        19           Pt  tau(  19) = (   0.0003586   0.1922386   1.5441530  )
        20           Pt  tau(  20) = (   0.3329741   0.1922383   1.5441563  )
        21           Pt  tau(  21) = (   0.6666623   0.1922872   1.5420152  )
        22           Pt  tau(  22) = (   0.1666642   0.4805030   1.5431207  )
        23           Pt  tau(  23) = (   0.4998614   0.4812035   1.5420139  )
        24           Pt  tau(  24) = (   0.8334697   0.4812094   1.5420124  )
        25           Pt  tau(  25) = (   0.3338692   0.7701112   1.5431192  )
        26           Pt  tau(  26) = (   0.6666647   0.7702140   1.5441609  )
        27           Pt  tau(  27) = (   0.9994562   0.7701116   1.5431209  )
        28           Pt  tau(  28) = (  -0.0043209  -0.0024928   1.8213814  )
        29           Pt  tau(  29) = (   0.3376093  -0.0024741   1.8213874  )
        30           Pt  tau(  30) = (   0.6666487   0.0001190   1.8167830  )
        31           Pt  tau(  31) = (   0.1666630   0.2936088   1.8213799  )
        32           Pt  tau(  32) = (   0.5015209   0.2895504   1.8162186  )
        33           Pt  tau(  33) = (   0.8317936   0.2895556   1.8162028  )
        34           Pt  tau(  34) = (   0.3334283   0.5772757   1.8167752  )
        35           Pt  tau(  35) = (   0.6666603   0.5755724   1.8162087  )
        36           Pt  tau(  36) = (   0.9998894   0.5772842   1.8167856  )
        37           H   tau(  37) = (   0.1664898   0.0961220   1.9201068  )

     number of k points=    13  Marzari-Vanderbilt smearing, width (Ry)=  0.0200
                       cart. coord. in units 2pi/alat
        k(    1) = (   0.0000000   0.0000000   0.0000000), wk =   0.0800000
        k(    2) = (   0.0000000   0.2309401   0.0000000), wk =   0.1600000
        k(    3) = (   0.0000000   0.4618802   0.0000000), wk =   0.1600000
        k(    4) = (   0.2000000  -0.1154701   0.0000000), wk =   0.1600000
        k(    5) = (   0.2000000   0.1154701   0.0000000), wk =   0.1600000
        k(    6) = (   0.2000000   0.3464102   0.0000000), wk =   0.1600000
        k(    7) = (   0.2000000  -0.5773503   0.0000000), wk =   0.1600000
        k(    8) = (   0.2000000  -0.3464102   0.0000000), wk =   0.1600000
        k(    9) = (   0.4000000  -0.2309401   0.0000000), wk =   0.1600000
        k(   10) = (   0.4000000  -0.0000000   0.0000000), wk =   0.1600000
        k(   11) = (   0.4000000   0.2309401   0.0000000), wk =   0.1600000
        k(   12) = (   0.4000000  -0.6928203   0.0000000), wk =   0.1600000
        k(   13) = (   0.4000000  -0.4618802   0.0000000), wk =   0.1600000

     Dense  grid:   655281 G-vectors     FFT dimensions: (  80,  80, 240)

     Estimated max dynamical RAM per process >       7.75 GB

     Initial potential from superposition of free atoms

     starting charge  360.99388, renormalised to  361.00000

     negative rho (up, down):  1.114E-02 0.000E+00


     %%%%%%%%%%%%%%%%%%%%%%%%%%%%%%%%%%%%%%%%%%%%%%%%%%%%%%%%%%%%%%%%%%%%%%%%
     %                                                                      %
     % You are using vdW-DF, which was implemented by the Thonhauser group. %
     % Please cite the following two papers that made this development      %
     % possible and the two reviews that describe the various versions:     %
     %                                                                      %
     %   T. Thonhauser et al., PRL 115, 136402 (2015).                      %
     %   T. Thonhauser et al., PRB 76, 125112 (2007).                       %
     %   K. Berland et al., Rep. Prog. Phys. 78, 066501 (2015).             %
     %   D.C. Langreth et al., J. Phys.: Condens. Matter 21, 084203 (2009). %
     %                                                                      %
     %                                                                      %
     % If you are calculating the stress with vdW-DF, please also cite:     %
     %                                                                      %
     %   R. Sabatini et al., J. Phys.: Condens. Matter 24, 424209 (2012).   %
     %                                                                      %
     %%%%%%%%%%%%%%%%%%%%%%%%%%%%%%%%%%%%%%%%%%%%%%%%%%%%%%%%%%%%%%%%%%%%%%%%


     Starting wfcs are  325 randomized atomic wfcs
     Checking if some PAW data can be deallocated... 

     total cpu time spent up to now is      273.1 secs

     Self-consistent Calculation

     iteration #  1     ecut=    60.00 Ry     beta= 0.70
     Davidson diagonalization with overlap
     ethr =  1.00E-02,  avg # of iterations =  2.0

     Threshold (ethr) on eigenvalues was too large:
     Diagonalizing with lowered threshold

     Davidson diagonalization with overlap
     ethr =  3.61E-04,  avg # of iterations =  4.0

     negative rho (up, down):  2.018E-02 0.000E+00

     total cpu time spent up to now is     1488.7 secs

     total energy              =  -27755.30546150 Ry
     estimated scf accuracy    <       1.52080485 Ry

     iteration #  2     ecut=    60.00 Ry     beta= 0.70
     Davidson diagonalization with overlap
     ethr =  4.21E-04,  avg # of iterations =  2.2

     negative rho (up, down):  1.944E-02 0.000E+00

     total cpu time spent up to now is     1970.7 secs

     total energy              =  -27755.40145174 Ry
     estimated scf accuracy    <       0.79621360 Ry

     iteration #  3     ecut=    60.00 Ry     beta= 0.70
     Davidson diagonalization with overlap
     ethr =  2.21E-04,  avg # of iterations =  2.0

     negative rho (up, down):  1.624E-02 0.000E+00

     total cpu time spent up to now is     2479.1 secs

     total energy              =  -27755.45056793 Ry
     estimated scf accuracy    <       0.08839115 Ry

     iteration #  4     ecut=    60.00 Ry     beta= 0.70
     Davidson diagonalization with overlap
     c_bands:  1 eigenvalues not converged
     c_bands:  1 eigenvalues not converged
     c_bands:  1 eigenvalues not converged
     ethr =  2.45E-05,  avg # of iterations = 14.9

     negative rho (up, down):  1.407E-02 0.000E+00

     total cpu time spent up to now is     3425.0 secs

     total energy              =  -27755.49843423 Ry
     estimated scf accuracy    <       0.07581808 Ry

     iteration #  5     ecut=    60.00 Ry     beta= 0.70
     Davidson diagonalization with overlap
     ethr =  2.10E-05,  avg # of iterations =  3.5

     negative rho (up, down):  1.043E-02 0.000E+00

     total cpu time spent up to now is     3908.7 secs

     total energy              =  -27755.49838863 Ry
     estimated scf accuracy    <       0.02880319 Ry

     iteration #  6     ecut=    60.00 Ry     beta= 0.70
     Davidson diagonalization with overlap
     ethr =  7.98E-06,  avg # of iterations =  1.9

     negative rho (up, down):  8.638E-03 0.000E+00

     total cpu time spent up to now is     4385.6 secs

     total energy              =  -27755.50043541 Ry
     estimated scf accuracy    <       0.00230828 Ry

     iteration #  7     ecut=    60.00 Ry     beta= 0.70
     Davidson diagonalization with overlap
     c_bands:  2 eigenvalues not converged
     c_bands:  2 eigenvalues not converged
     c_bands:  2 eigenvalues not converged
     c_bands:  2 eigenvalues not converged
     ethr =  6.39E-07,  avg # of iterations = 12.8

     negative rho (up, down):  8.326E-03 0.000E+00

     total cpu time spent up to now is     5199.6 secs

     total energy              =  -27755.50094986 Ry
     estimated scf accuracy    <       0.00157313 Ry

     iteration #  8     ecut=    60.00 Ry     beta= 0.70
     Davidson diagonalization with overlap
     ethr =  4.36E-07,  avg # of iterations =  5.5

     negative rho (up, down):  8.300E-03 0.000E+00

     total cpu time spent up to now is     5692.8 secs

     total energy              =  -27755.50108624 Ry
     estimated scf accuracy    <       0.00020876 Ry

     iteration #  9     ecut=    60.00 Ry     beta= 0.70
     Davidson diagonalization with overlap
     ethr =  5.78E-08,  avg # of iterations =  5.3

     negative rho (up, down):  8.422E-03 0.000E+00

     total cpu time spent up to now is     6461.1 secs

     total energy              =  -27755.50117649 Ry
     estimated scf accuracy    <       0.00009072 Ry

     iteration # 10     ecut=    60.00 Ry     beta= 0.70
     Davidson diagonalization with overlap
     c_bands:  1 eigenvalues not converged
     ethr =  2.51E-08,  avg # of iterations =  6.3

     negative rho (up, down):  8.539E-03 0.000E+00

     total cpu time spent up to now is     7110.6 secs

     total energy              =  -27755.50119371 Ry
     estimated scf accuracy    <       0.00007876 Ry

     iteration # 11     ecut=    60.00 Ry     beta= 0.70
     Davidson diagonalization with overlap
     ethr =  2.18E-08,  avg # of iterations =  1.4

     negative rho (up, down):  8.814E-03 0.000E+00

     total cpu time spent up to now is     7555.1 secs

     total energy              =  -27755.50119404 Ry
     estimated scf accuracy    <       0.00004799 Ry

     iteration # 12     ecut=    60.00 Ry     beta= 0.70
     Davidson diagonalization with overlap
     ethr =  1.33E-08,  avg # of iterations =  1.8

     negative rho (up, down):  9.373E-03 0.000E+00

     total cpu time spent up to now is     8025.8 secs

     total energy              =  -27755.50119292 Ry
     estimated scf accuracy    <       0.00001632 Ry

     iteration # 13     ecut=    60.00 Ry     beta= 0.70
     Davidson diagonalization with overlap
     ethr =  4.52E-09,  avg # of iterations =  2.0

     negative rho (up, down):  1.009E-02 0.000E+00

     total cpu time spent up to now is     8514.9 secs

     total energy              =  -27755.50119146 Ry
     estimated scf accuracy    <       0.00000786 Ry

     iteration # 14     ecut=    60.00 Ry     beta= 0.70
     Davidson diagonalization with overlap
     ethr =  2.18E-09,  avg # of iterations =  2.0

     negative rho (up, down):  1.037E-02 0.000E+00

     total cpu time spent up to now is     8986.7 secs

     total energy              =  -27755.50119179 Ry
     estimated scf accuracy    <       0.00000483 Ry

     iteration # 15     ecut=    60.00 Ry     beta= 0.70
     Davidson diagonalization with overlap
     ethr =  1.34E-09,  avg # of iterations =  2.0

     negative rho (up, down):  1.105E-02 0.000E+00

     total cpu time spent up to now is     9476.6 secs

     total energy              =  -27755.50119061 Ry
     estimated scf accuracy    <       0.00000404 Ry

     iteration # 16     ecut=    60.00 Ry     beta= 0.70
     Davidson diagonalization with overlap
     ethr =  1.12E-09,  avg # of iterations =  1.8

     negative rho (up, down):  1.141E-02 0.000E+00

     total cpu time spent up to now is     9925.1 secs

     End of self-consistent calculation

          k = 0.0000 0.0000 0.0000 ( 81835 PWs)   bands (ev):

    -6.6155  -5.5594  -4.8426  -4.1850  -4.1748  -4.1747  -4.1649  -4.1489
    -4.1489  -4.1474  -3.8288  -3.6164  -3.6164  -3.6067  -3.6056  -3.6055
    -3.5155  -3.1652  -3.1652  -3.1382  -3.1382  -3.1292  -3.0502  -2.9292
    -2.9292  -2.9218  -2.9195  -2.9195  -2.8112  -2.7174  -2.7174  -2.6932
    -2.6932  -2.6859  -2.6794  -2.6739  -2.6662  -2.6661  -2.6395  -2.6394
    -2.2517  -2.0802  -2.0802  -2.0562  -2.0368  -2.0111  -2.0111  -1.9888
    -1.9888  -1.9805  -1.8424  -1.8424  -1.7391  -1.7391  -1.7292  -1.2674
    -1.2674  -1.2578  -1.2469  -1.2468  -1.1916  -1.1481  -1.0823  -1.0823
    -1.0724  -1.0722  -1.0546  -1.0468  -1.0412  -1.0222  -1.0222  -1.0178
    -1.0147  -1.0146  -0.9747  -0.9707  -0.9707  -0.8491  -0.8417  -0.8416
    -0.8342  -0.8341  -0.8320  -0.6769  -0.6613  -0.6613  -0.6547  -0.6546
    -0.6345  -0.6128  -0.6127  -0.5153  -0.5152  -0.4456  -0.4360  -0.4360
    -0.4049  -0.4048  -0.3783  -0.3736  -0.3167  -0.2177  -0.2176  -0.2093
    -0.2056  -0.2038  -0.2038   0.0298   0.2721   0.2723   0.2854   0.2964
     0.2964   0.3078   0.3302   0.3303   0.3428   0.3428   0.3634   0.4396
     0.4396   0.4981   0.5750   0.5751   0.5802   0.5803   0.6019   0.7042
     0.7191   0.7619   0.7619   0.7668   0.7668   1.0095   1.0096   1.0116
     1.0286   1.0287   1.0314   1.0992   1.0993   1.2559   1.2560   1.2743
     1.2783   1.2784   1.2808   1.4055   1.4076   1.4383   1.4385   1.4649
     1.4650   1.4691   1.4829   1.4830   1.4928   1.4928   1.4975   1.5676
     1.5850   1.5853   1.6200   1.6200   1.6424   1.6425   1.6507   1.6915
     1.7145   1.7146   1.7433   1.7433   1.7637   1.7637   1.7731   1.8365
     1.8484   1.8484   1.8607   1.8608   1.8636   1.9329   1.9510   1.9510
     1.9692   1.9692   1.9746   1.9835   2.1737   2.1738   2.2738   2.2739
     2.2779   2.2965   2.2965   2.2987   2.8643   3.1371   3.1501   3.1502
     3.1868   3.1868   3.1927   5.2272   5.4498   5.4499   5.5194   5.5195
     5.5234   7.0119   7.0120   7.0530   7.1103   7.1103   7.1104   7.1812
     7.2141

          k = 0.0000 0.2309 0.0000 ( 81844 PWs)   bands (ev):

    -6.4695  -5.4515  -4.7965  -4.6363  -4.2795  -4.2659  -4.0418  -3.9726
    -3.9291  -3.9260  -3.8132  -3.7008  -3.6512  -3.5478  -3.5413  -3.5329
    -3.4481  -3.2411  -3.1190  -3.1134  -3.0935  -3.0720  -3.0322  -2.9947
    -2.9675  -2.9365  -2.9337  -2.9184  -2.8321  -2.8318  -2.8168  -2.7284
    -2.7212  -2.6973  -2.6859  -2.5398  -2.4985  -2.4922  -2.4838  -2.4453
    -2.2585  -2.1988  -2.1940  -2.1370  -2.1194  -2.1025  -2.0826  -1.9819
    -1.9068  -1.8470  -1.8280  -1.8095  -1.7648  -1.7446  -1.6777  -1.5352
    -1.4417  -1.4367  -1.3736  -1.3644  -1.3277  -1.2832  -1.2571  -1.2470
    -1.2210  -1.2156  -1.1561  -1.1283  -1.0878  -1.0692  -1.0588  -1.0085
    -0.9764  -0.9641  -0.9572  -0.8939  -0.8898  -0.8748  -0.8281  -0.7800
    -0.7756  -0.7707  -0.7639  -0.7029  -0.6814  -0.6653  -0.6594  -0.6560
    -0.6087  -0.5932  -0.5503  -0.5354  -0.5181  -0.4912  -0.4790  -0.4552
    -0.4476  -0.4149  -0.3929  -0.3907  -0.3068  -0.2488  -0.2443  -0.2126
    -0.2101  -0.1994  -0.1858  -0.1834  -0.1375  -0.1285  -0.1146  -0.1023
     0.1067   0.2068   0.2574   0.2888   0.3032   0.3132   0.3136   0.3421
     0.3485   0.4124   0.4976   0.5132   0.6038   0.6530   0.6542   0.6805
     0.6920   0.7168   0.7576   0.7736   0.7746   0.8596   0.8925   0.8998
     0.9149   0.9155   1.0678   1.1052   1.1176   1.1271   1.1403   1.1443
     1.1678   1.2364   1.2577   1.2813   1.3091   1.3105   1.3670   1.3791
     1.3912   1.3954   1.4786   1.4966   1.5264   1.5301   1.5719   1.6309
     1.6507   1.6779   1.6863   1.6969   1.7288   1.7428   1.8107   1.8170
     1.8714   1.8768   1.8922   1.9069   1.9302   1.9386   1.9411   1.9529
     1.9531   2.0159   2.0193   2.1629   2.1665   2.1831   2.2028   2.2169
     2.2195   2.2483   2.2782   2.2870   2.2996   2.3795   2.3946   2.4255
     2.4800   2.5849   2.5984   2.6075   2.6460   2.9961   3.0358   3.5717
     3.7537   3.7879   3.8957   4.7093   5.1468   5.2095   5.8608   5.9206
     5.9660   6.0502   6.2928   6.7394   6.8824   7.0770   7.2625   7.2711
     7.2962

          k = 0.0000 0.4619 0.0000 ( 81854 PWs)   bands (ev):

    -6.0516  -5.4459  -5.1511  -4.5534  -4.3137  -4.2997  -4.0949  -3.9313
    -3.7893  -3.6578  -3.5874  -3.5846  -3.5240  -3.4178  -3.3772  -3.3657
    -3.3635  -3.3514  -3.2085  -3.1993  -3.1903  -3.1521  -3.1445  -3.1004
    -3.0347  -3.0130  -3.0086  -2.8879  -2.7567  -2.7475  -2.7413  -2.7271
    -2.7262  -2.6194  -2.5015  -2.4893  -2.4691  -2.4394  -2.4379  -2.3318
    -2.2356  -2.1680  -2.1544  -2.1435  -2.1060  -2.0833  -2.0431  -2.0124
    -2.0072  -1.9729  -1.9388  -1.8125  -1.8030  -1.7956  -1.7642  -1.6997
    -1.6337  -1.6030  -1.5751  -1.5687  -1.5491  -1.4146  -1.3612  -1.3513
    -1.3506  -1.3287  -1.2449  -1.2267  -1.2090  -1.1178  -1.1021  -1.1012
    -1.0354  -0.9848  -0.9836  -0.9564  -0.9552  -0.9053  -0.8767  -0.8676
    -0.8565  -0.8505  -0.8416  -0.8338  -0.8231  -0.7971  -0.7016  -0.6975
    -0.6920  -0.6657  -0.6568  -0.6560  -0.6185  -0.5164  -0.5081  -0.4849
    -0.4465  -0.4287  -0.4078  -0.3798  -0.3633  -0.3544  -0.2575  -0.2457
    -0.2091  -0.1839  -0.1516  -0.1448  -0.1171   0.0249   0.0544   0.1126
     0.1256   0.1845   0.2139   0.2227   0.2420   0.2454   0.2490   0.2905
     0.3167   0.3494   0.3635   0.3698   0.3945   0.4136   0.4209   0.4527
     0.4639   0.5626   0.5827   0.6019   0.6681   0.7052   0.7839   0.7849
     0.8962   0.9023   0.9499   0.9962   1.0636   1.0710   1.1119   1.1314
     1.1670   1.1696   1.1994   1.2259   1.2695   1.2814   1.3244   1.3772
     1.3798   1.4225   1.4335   1.4457   1.4550   1.5142   1.5966   1.6293
     1.6916   1.7169   1.7190   1.7381   1.7915   1.8356   1.8433   1.9188
     1.9308   1.9342   1.9479   1.9942   2.0324   2.0369   2.0525   2.1707
     2.1708   2.1906   2.1987   2.2037   2.2051   2.2285   2.2311   2.4111
     2.4387   2.4454   2.4505   2.4553   2.6108   2.6650   2.9378   3.0429
     3.0917   3.2876   3.4860   3.4925   3.7799   3.8738   4.0078   4.1908
     4.4996   4.7072   4.7096   4.8174   4.9266   4.9582   5.0825   5.1084
     5.3048   5.3598   5.9214   6.0006   6.4133   6.5226   6.9204   7.0107
     7.5227

          k = 0.2000-0.1155 0.0000 ( 81844 PWs)   bands (ev):

    -6.4695  -5.4515  -4.7965  -4.6363  -4.2795  -4.2659  -4.0418  -3.9726
    -3.9291  -3.9260  -3.8132  -3.7008  -3.6512  -3.5478  -3.5413  -3.5329
    -3.4481  -3.2411  -3.1190  -3.1134  -3.0935  -3.0720  -3.0322  -2.9947
    -2.9675  -2.9365  -2.9336  -2.9184  -2.8322  -2.8318  -2.8167  -2.7284
    -2.7212  -2.6973  -2.6859  -2.5398  -2.4985  -2.4922  -2.4838  -2.4453
    -2.2585  -2.1988  -2.1940  -2.1370  -2.1194  -2.1025  -2.0826  -1.9819
    -1.9068  -1.8470  -1.8280  -1.8095  -1.7648  -1.7446  -1.6777  -1.5352
    -1.4417  -1.4367  -1.3736  -1.3644  -1.3277  -1.2832  -1.2571  -1.2471
    -1.2210  -1.2156  -1.1561  -1.1283  -1.0878  -1.0693  -1.0588  -1.0085
    -0.9764  -0.9641  -0.9572  -0.8939  -0.8898  -0.8748  -0.8281  -0.7800
    -0.7755  -0.7706  -0.7639  -0.7029  -0.6814  -0.6653  -0.6594  -0.6560
    -0.6087  -0.5932  -0.5503  -0.5354  -0.5181  -0.4912  -0.4790  -0.4552
    -0.4476  -0.4149  -0.3929  -0.3907  -0.3068  -0.2488  -0.2443  -0.2126
    -0.2101  -0.1994  -0.1858  -0.1834  -0.1375  -0.1285  -0.1146  -0.1023
     0.1067   0.2068   0.2574   0.2888   0.3032   0.3132   0.3136   0.3421
     0.3485   0.4124   0.4976   0.5132   0.6038   0.6530   0.6542   0.6805
     0.6920   0.7168   0.7576   0.7735   0.7746   0.8596   0.8925   0.8998
     0.9149   0.9155   1.0678   1.1052   1.1176   1.1271   1.1403   1.1443
     1.1678   1.2364   1.2577   1.2813   1.3091   1.3105   1.3671   1.3791
     1.3912   1.3954   1.4786   1.4966   1.5264   1.5301   1.5719   1.6308
     1.6507   1.6779   1.6863   1.6969   1.7288   1.7428   1.8107   1.8170
     1.8714   1.8768   1.8922   1.9069   1.9302   1.9387   1.9411   1.9529
     1.9531   2.0159   2.0193   2.1629   2.1665   2.1831   2.2028   2.2169
     2.2195   2.2483   2.2782   2.2870   2.2996   2.3794   2.3946   2.4255
     2.4800   2.5849   2.5984   2.6075   2.6460   2.9961   3.0358   3.5717
     3.7537   3.7880   3.8957   4.7093   5.1467   5.2095   5.8608   5.9206
     5.9660   6.0502   6.2928   6.7394   6.8827   7.0770   7.2627   7.2713
     7.2964

          k = 0.2000 0.1155 0.0000 ( 81844 PWs)   bands (ev):

    -6.4695  -5.4514  -4.7963  -4.6365  -4.2794  -4.2659  -4.0418  -3.9726
    -3.9291  -3.9260  -3.8131  -3.7008  -3.6515  -3.5478  -3.5413  -3.5329
    -3.4480  -3.2411  -3.1190  -3.1134  -3.0935  -3.0721  -3.0322  -2.9947
    -2.9675  -2.9365  -2.9337  -2.9183  -2.8322  -2.8318  -2.8168  -2.7284
    -2.7212  -2.6973  -2.6859  -2.5399  -2.4985  -2.4923  -2.4838  -2.4453
    -2.2586  -2.1988  -2.1941  -2.1370  -2.1194  -2.1025  -2.0826  -1.9818
    -1.9068  -1.8471  -1.8280  -1.8094  -1.7648  -1.7446  -1.6778  -1.5352
    -1.4417  -1.4368  -1.3736  -1.3645  -1.3277  -1.2833  -1.2570  -1.2471
    -1.2210  -1.2156  -1.1560  -1.1282  -1.0879  -1.0693  -1.0588  -1.0085
    -0.9764  -0.9640  -0.9571  -0.8939  -0.8899  -0.8748  -0.8281  -0.7801
    -0.7755  -0.7707  -0.7640  -0.7029  -0.6813  -0.6654  -0.6594  -0.6560
    -0.6087  -0.5931  -0.5503  -0.5354  -0.5181  -0.4912  -0.4789  -0.4552
    -0.4476  -0.4149  -0.3929  -0.3908  -0.3068  -0.2488  -0.2443  -0.2125
    -0.2100  -0.1994  -0.1858  -0.1834  -0.1375  -0.1285  -0.1147  -0.1023
     0.1066   0.2068   0.2574   0.2887   0.3032   0.3132   0.3137   0.3421
     0.3486   0.4125   0.4977   0.5132   0.6038   0.6530   0.6542   0.6804
     0.6921   0.7168   0.7577   0.7736   0.7747   0.8596   0.8925   0.8998
     0.9149   0.9155   1.0676   1.1052   1.1176   1.1270   1.1404   1.1444
     1.1678   1.2364   1.2577   1.2813   1.3091   1.3105   1.3672   1.3791
     1.3912   1.3955   1.4786   1.4966   1.5263   1.5301   1.5719   1.6308
     1.6509   1.6779   1.6863   1.6970   1.7288   1.7427   1.8107   1.8169
     1.8713   1.8769   1.8922   1.9068   1.9302   1.9387   1.9411   1.9529
     1.9531   2.0159   2.0193   2.1629   2.1665   2.1831   2.2028   2.2169
     2.2195   2.2483   2.2782   2.2870   2.2996   2.3793   2.3946   2.4255
     2.4800   2.5850   2.5984   2.6075   2.6460   2.9961   3.0358   3.5716
     3.7537   3.7880   3.8957   4.7094   5.1465   5.2095   5.8609   5.9206
     5.9659   6.0502   6.2929   6.7394   6.8824   7.0771   7.2624   7.2710
     7.2963

          k = 0.2000 0.3464 0.0000 ( 81860 PWs)   bands (ev):

    -6.1866  -5.3030  -4.9305  -4.9149  -4.5666  -3.8470  -3.8433  -3.8385
    -3.8229  -3.7823  -3.7753  -3.7609  -3.6602  -3.6559  -3.4833  -3.2778
    -3.2632  -3.2604  -3.2590  -3.1959  -3.1706  -3.0434  -3.0262  -3.0086
    -3.0056  -2.9401  -2.9150  -2.8718  -2.8597  -2.8489  -2.7926  -2.7759
    -2.7545  -2.7079  -2.6922  -2.6118  -2.4616  -2.3529  -2.2683  -2.2586
    -2.2254  -2.2145  -2.1988  -2.1942  -2.1388  -2.1134  -2.0519  -1.9803
    -1.9636  -1.8824  -1.8471  -1.8338  -1.7940  -1.7830  -1.7065  -1.6889
    -1.6776  -1.5238  -1.5038  -1.4843  -1.4293  -1.4171  -1.3848  -1.3784
    -1.3609  -1.3086  -1.2756  -1.1439  -1.1392  -1.1364  -1.1228  -1.0872
    -1.0689  -1.0195  -0.9977  -0.9840  -0.9216  -0.8646  -0.8554  -0.8273
    -0.8145  -0.8042  -0.8002  -0.7614  -0.7444  -0.7350  -0.6848  -0.6767
    -0.6550  -0.6393  -0.5665  -0.5626  -0.5294  -0.5008  -0.4750  -0.4626
    -0.4452  -0.4166  -0.3996  -0.3940  -0.3873  -0.3820  -0.3668  -0.3492
    -0.3141  -0.2974  -0.2070  -0.1806  -0.1468  -0.0805  -0.0636  -0.0608
    -0.0455   0.1296   0.1423   0.2004   0.2658   0.2841   0.3183   0.3275
     0.3485   0.3568   0.3927   0.4054   0.4343   0.4427   0.4633   0.5331
     0.6321   0.6886   0.7103   0.7196   0.7378   0.7672   0.7990   0.8412
     0.9125   0.9493   0.9545   0.9758   1.0277   1.0622   1.1068   1.1538
     1.1570   1.1714   1.2311   1.2465   1.2572   1.2739   1.2748   1.2967
     1.3017   1.3108   1.3241   1.4165   1.4792   1.5105   1.6397   1.6518
     1.6738   1.8064   1.8199   1.8294   1.8352   1.9227   1.9369   1.9568
     1.9718   1.9899   2.0056   2.0224   2.0374   2.0425   2.0536   2.0954
     2.1123   2.1237   2.1959   2.2216   2.2283   2.2532   2.2605   2.3086
     2.4379   2.4641   2.4922   2.5186   2.5666   2.5783   2.5839   2.6790
     2.7262   3.0679   3.2264   3.2626   3.6315   3.7960   3.8027   3.8143
     4.3430   4.5051   4.5296   4.6685   4.7185   4.7727   5.3632   5.8373
     5.9181   5.9464   6.1196   6.4331   6.6374   6.6962   6.7225   6.7336
     7.1215

          k = 0.2000-0.5774 0.0000 ( 81934 PWs)   bands (ev):

    -5.7002  -5.6228  -5.1504  -4.9327  -4.3806  -4.1654  -3.8456  -3.7880
    -3.7080  -3.6744  -3.5614  -3.5564  -3.4588  -3.4533  -3.3582  -3.3300
    -3.3161  -3.2975  -3.2931  -3.2784  -3.1556  -3.1264  -3.1180  -3.0880
    -3.0821  -3.0758  -2.9846  -2.9008  -2.8589  -2.7476  -2.7239  -2.7195
    -2.7107  -2.6876  -2.6392  -2.5870  -2.4770  -2.4712  -2.3576  -2.2912
    -2.2774  -2.2087  -2.1409  -2.1150  -2.0832  -2.0247  -1.9525  -1.9172
    -1.8831  -1.8603  -1.8397  -1.8093  -1.7884  -1.7459  -1.6794  -1.6732
    -1.6525  -1.6477  -1.6370  -1.6253  -1.5678  -1.5629  -1.5493  -1.4365
    -1.4195  -1.3601  -1.3330  -1.2661  -1.2107  -1.2010  -1.1781  -1.1488
    -1.1199  -1.1123  -1.0577  -1.0458  -1.0155  -0.9873  -0.9542  -0.9050
    -0.8861  -0.8283  -0.8012  -0.7885  -0.7768  -0.7738  -0.6951  -0.6423
    -0.5987  -0.5940  -0.5750  -0.5457  -0.5173  -0.5110  -0.5076  -0.4761
    -0.4707  -0.4593  -0.4274  -0.3847  -0.3721  -0.3652  -0.3630  -0.3513
    -0.3461  -0.3228  -0.2941  -0.2582  -0.2471  -0.0510  -0.0304   0.0400
     0.0651   0.1521   0.1584   0.1735   0.1918   0.2195   0.2613   0.2750
     0.2783   0.2901   0.3536   0.3939   0.4087   0.4304   0.4745   0.4849
     0.5476   0.5612   0.6002   0.6833   0.7418   0.8112   0.8292   0.8488
     0.9011   0.9096   0.9402   0.9607   0.9731   0.9790   0.9966   1.0121
     1.1109   1.1409   1.1445   1.1918   1.1984   1.2205   1.2215   1.2492
     1.2596   1.4033   1.4400   1.4864   1.5476   1.5769   1.6582   1.6672
     1.7091   1.7782   1.7830   1.7994   1.8864   1.8957   1.9727   1.9851
     2.0034   2.0193   2.0215   2.0524   2.0689   2.1048   2.1778   2.1813
     2.2050   2.2241   2.2246   2.2339   2.2423   2.3087   2.4100   2.4394
     2.4498   2.4522   2.4569   2.5179   2.5637   2.6367   2.7412   3.5196
     3.6022   3.6366   3.8074   3.8585   3.9364   3.9791   4.0031   4.3654
     4.5734   4.6118   4.8171   5.0667   5.0792   5.1628   5.2017   5.3741
     5.4857   5.5612   5.6112   5.8790   5.9778   6.0434   6.5282   6.6669
     6.6946

          k = 0.2000-0.3464 0.0000 ( 81860 PWs)   bands (ev):

    -6.1866  -5.3032  -4.9305  -4.9149  -4.5665  -3.8471  -3.8433  -3.8385
    -3.8229  -3.7823  -3.7753  -3.7609  -3.6603  -3.6559  -3.4832  -3.2779
    -3.2633  -3.2604  -3.2589  -3.1959  -3.1706  -3.0434  -3.0262  -3.0086
    -3.0056  -2.9399  -2.9149  -2.8718  -2.8597  -2.8490  -2.7925  -2.7759
    -2.7546  -2.7079  -2.6922  -2.6118  -2.4611  -2.3529  -2.2683  -2.2586
    -2.2254  -2.2145  -2.1988  -2.1942  -2.1388  -2.1134  -2.0520  -1.9802
    -1.9636  -1.8824  -1.8471  -1.8339  -1.7940  -1.7830  -1.7066  -1.6889
    -1.6775  -1.5238  -1.5038  -1.4843  -1.4293  -1.4170  -1.3848  -1.3784
    -1.3609  -1.3086  -1.2756  -1.1439  -1.1393  -1.1364  -1.1228  -1.0871
    -1.0689  -1.0196  -0.9976  -0.9841  -0.9216  -0.8646  -0.8554  -0.8273
    -0.8144  -0.8041  -0.8002  -0.7614  -0.7446  -0.7349  -0.6848  -0.6766
    -0.6551  -0.6394  -0.5666  -0.5626  -0.5293  -0.5008  -0.4750  -0.4627
    -0.4452  -0.4167  -0.3996  -0.3941  -0.3873  -0.3820  -0.3668  -0.3492
    -0.3140  -0.2975  -0.2070  -0.1805  -0.1468  -0.0805  -0.0636  -0.0609
    -0.0455   0.1296   0.1423   0.2002   0.2659   0.2840   0.3183   0.3274
     0.3486   0.3568   0.3927   0.4053   0.4343   0.4427   0.4633   0.5331
     0.6321   0.6885   0.7103   0.7196   0.7379   0.7672   0.7989   0.8412
     0.9124   0.9493   0.9545   0.9759   1.0277   1.0622   1.1069   1.1537
     1.1569   1.1714   1.2311   1.2465   1.2572   1.2739   1.2749   1.2966
     1.3017   1.3107   1.3241   1.4163   1.4792   1.5105   1.6397   1.6518
     1.6739   1.8064   1.8199   1.8294   1.8352   1.9227   1.9369   1.9568
     1.9718   1.9899   2.0057   2.0224   2.0374   2.0425   2.0536   2.0954
     2.1123   2.1237   2.1959   2.2216   2.2283   2.2532   2.2605   2.3086
     2.4378   2.4640   2.4922   2.5187   2.5666   2.5783   2.5839   2.6789
     2.7262   3.0680   3.2265   3.2626   3.6317   3.7960   3.8026   3.8143
     4.3430   4.5050   4.5296   4.6686   4.7185   4.7727   5.3633   5.8376
     5.9181   5.9462   6.1195   6.4328   6.6373   6.6952   6.7212   6.7336
     6.7637

          k = 0.4000-0.2309 0.0000 ( 81854 PWs)   bands (ev):

    -6.0516  -5.4459  -5.1511  -4.5534  -4.3137  -4.2997  -4.0949  -3.9313
    -3.7893  -3.6578  -3.5874  -3.5846  -3.5240  -3.4178  -3.3772  -3.3657
    -3.3635  -3.3514  -3.2085  -3.1993  -3.1903  -3.1521  -3.1445  -3.1004
    -3.0347  -3.0130  -3.0086  -2.8879  -2.7567  -2.7475  -2.7413  -2.7271
    -2.7262  -2.6194  -2.5015  -2.4893  -2.4691  -2.4394  -2.4379  -2.3318
    -2.2356  -2.1681  -2.1544  -2.1435  -2.1060  -2.0833  -2.0431  -2.0124
    -2.0072  -1.9729  -1.9388  -1.8125  -1.8030  -1.7956  -1.7642  -1.6997
    -1.6337  -1.6030  -1.5751  -1.5687  -1.5491  -1.4146  -1.3612  -1.3513
    -1.3506  -1.3288  -1.2448  -1.2267  -1.2091  -1.1179  -1.1020  -1.1012
    -1.0354  -0.9848  -0.9836  -0.9564  -0.9552  -0.9053  -0.8767  -0.8676
    -0.8565  -0.8505  -0.8416  -0.8338  -0.8231  -0.7971  -0.7016  -0.6975
    -0.6920  -0.6657  -0.6568  -0.6560  -0.6185  -0.5164  -0.5080  -0.4848
    -0.4465  -0.4287  -0.4078  -0.3798  -0.3632  -0.3544  -0.2575  -0.2457
    -0.2091  -0.1839  -0.1516  -0.1448  -0.1171   0.0249   0.0543   0.1126
     0.1256   0.1845   0.2139   0.2227   0.2420   0.2454   0.2490   0.2905
     0.3167   0.3494   0.3635   0.3698   0.3945   0.4136   0.4209   0.4527
     0.4638   0.5626   0.5827   0.6019   0.6681   0.7052   0.7839   0.7849
     0.8962   0.9023   0.9499   0.9962   1.0636   1.0710   1.1119   1.1314
     1.1670   1.1696   1.1994   1.2259   1.2695   1.2814   1.3244   1.3772
     1.3798   1.4225   1.4335   1.4457   1.4550   1.5142   1.5966   1.6293
     1.6916   1.7169   1.7190   1.7381   1.7915   1.8356   1.8433   1.9188
     1.9308   1.9342   1.9479   1.9942   2.0325   2.0369   2.0525   2.1707
     2.1708   2.1906   2.1987   2.2037   2.2051   2.2285   2.2311   2.4111
     2.4387   2.4454   2.4505   2.4553   2.6108   2.6650   2.9379   3.0429
     3.0917   3.2876   3.4860   3.4925   3.7799   3.8738   4.0078   4.1908
     4.4996   4.7072   4.7096   4.8174   4.9266   4.9582   5.0825   5.1084
     5.3048   5.3598   5.9215   6.0006   6.4133   6.5226   6.9204   7.0107
     7.5227

          k = 0.4000-0.0000 0.0000 ( 81860 PWs)   bands (ev):

    -6.1865  -5.3030  -4.9305  -4.9149  -4.5666  -3.8470  -3.8433  -3.8385
    -3.8229  -3.7823  -3.7753  -3.7609  -3.6602  -3.6559  -3.4833  -3.2778
    -3.2632  -3.2604  -3.2589  -3.1959  -3.1706  -3.0434  -3.0262  -3.0086
    -3.0056  -2.9401  -2.9149  -2.8718  -2.8597  -2.8489  -2.7926  -2.7759
    -2.7545  -2.7079  -2.6922  -2.6118  -2.4615  -2.3529  -2.2683  -2.2587
    -2.2254  -2.2145  -2.1988  -2.1942  -2.1388  -2.1134  -2.0519  -1.9803
    -1.9636  -1.8824  -1.8471  -1.8337  -1.7940  -1.7830  -1.7065  -1.6889
    -1.6776  -1.5238  -1.5038  -1.4843  -1.4293  -1.4171  -1.3847  -1.3784
    -1.3609  -1.3086  -1.2756  -1.1439  -1.1392  -1.1363  -1.1228  -1.0871
    -1.0689  -1.0195  -0.9977  -0.9841  -0.9216  -0.8646  -0.8554  -0.8273
    -0.8145  -0.8041  -0.8002  -0.7614  -0.7444  -0.7349  -0.6847  -0.6767
    -0.6550  -0.6393  -0.5666  -0.5626  -0.5294  -0.5008  -0.4750  -0.4626
    -0.4452  -0.4166  -0.3996  -0.3940  -0.3873  -0.3820  -0.3668  -0.3492
    -0.3141  -0.2974  -0.2070  -0.1806  -0.1468  -0.0805  -0.0636  -0.0609
    -0.0455   0.1296   0.1423   0.2004   0.2658   0.2841   0.3183   0.3275
     0.3485   0.3568   0.3927   0.4054   0.4343   0.4427   0.4633   0.5331
     0.6321   0.6886   0.7103   0.7197   0.7379   0.7672   0.7990   0.8412
     0.9125   0.9492   0.9545   0.9758   1.0277   1.0622   1.1068   1.1538
     1.1570   1.1714   1.2311   1.2465   1.2572   1.2739   1.2748   1.2967
     1.3017   1.3108   1.3241   1.4165   1.4792   1.5105   1.6397   1.6518
     1.6738   1.8064   1.8199   1.8294   1.8352   1.9227   1.9369   1.9568
     1.9718   1.9899   2.0056   2.0224   2.0374   2.0425   2.0536   2.0954
     2.1123   2.1237   2.1959   2.2216   2.2283   2.2533   2.2605   2.3086
     2.4379   2.4641   2.4922   2.5186   2.5666   2.5783   2.5839   2.6790
     2.7262   3.0679   3.2264   3.2626   3.6315   3.7960   3.8026   3.8143
     4.3430   4.5051   4.5296   4.6685   4.7185   4.7728   5.3632   5.8373
     5.9181   5.9463   6.1196   6.4331   6.6374   6.6952   6.7213   6.7336
     6.7638

          k = 0.4000 0.2309 0.0000 ( 81854 PWs)   bands (ev):

    -6.0515  -5.4458  -5.1511  -4.5535  -4.3137  -4.2996  -4.0949  -3.9313
    -3.7894  -3.6578  -3.5874  -3.5846  -3.5241  -3.4178  -3.3771  -3.3656
    -3.3634  -3.3513  -3.2086  -3.1992  -3.1903  -3.1520  -3.1445  -3.1004
    -3.0347  -3.0130  -3.0086  -2.8883  -2.7567  -2.7475  -2.7413  -2.7271
    -2.7262  -2.6195  -2.5015  -2.4893  -2.4691  -2.4395  -2.4379  -2.3319
    -2.2356  -2.1680  -2.1545  -2.1435  -2.1060  -2.0833  -2.0431  -2.0124
    -2.0072  -1.9729  -1.9388  -1.8124  -1.8030  -1.7956  -1.7642  -1.6997
    -1.6338  -1.6031  -1.5751  -1.5687  -1.5491  -1.4146  -1.3612  -1.3513
    -1.3506  -1.3288  -1.2448  -1.2268  -1.2090  -1.1178  -1.1020  -1.1012
    -1.0354  -0.9847  -0.9836  -0.9564  -0.9552  -0.9052  -0.8766  -0.8676
    -0.8566  -0.8505  -0.8415  -0.8338  -0.8231  -0.7971  -0.7018  -0.6975
    -0.6920  -0.6657  -0.6569  -0.6560  -0.6185  -0.5164  -0.5080  -0.4845
    -0.4464  -0.4287  -0.4079  -0.3798  -0.3631  -0.3543  -0.2574  -0.2458
    -0.2091  -0.1837  -0.1516  -0.1448  -0.1171   0.0249   0.0543   0.1127
     0.1256   0.1846   0.2138   0.2228   0.2420   0.2453   0.2489   0.2905
     0.3167   0.3494   0.3636   0.3697   0.3946   0.4136   0.4209   0.4526
     0.4637   0.5626   0.5827   0.6019   0.6681   0.7051   0.7839   0.7849
     0.8962   0.9022   0.9498   0.9961   1.0637   1.0709   1.1120   1.1315
     1.1669   1.1696   1.1993   1.2260   1.2695   1.2814   1.3244   1.3771
     1.3798   1.4225   1.4335   1.4456   1.4551   1.5142   1.5967   1.6294
     1.6917   1.7169   1.7191   1.7380   1.7914   1.8357   1.8433   1.9187
     1.9309   1.9341   1.9479   1.9942   2.0324   2.0369   2.0525   2.1707
     2.1708   2.1906   2.1987   2.2037   2.2051   2.2285   2.2311   2.4111
     2.4387   2.4453   2.4505   2.4553   2.6108   2.6650   2.9377   3.0429
     3.0916   3.2876   3.4860   3.4925   3.7797   3.8738   4.0078   4.1907
     4.4994   4.7072   4.7096   4.8174   4.9266   4.9582   5.0823   5.1084
     5.3048   5.3599   5.9216   6.0006   6.4134   6.5228   6.9203   7.0107
     7.5227

          k = 0.4000-0.6928 0.0000 ( 81934 PWs)   bands (ev):

    -5.7001  -5.6228  -5.1505  -4.9326  -4.3806  -4.1655  -3.8456  -3.7879
    -3.7080  -3.6744  -3.5614  -3.5564  -3.4588  -3.4533  -3.3583  -3.3300
    -3.3161  -3.2975  -3.2931  -3.2784  -3.1556  -3.1264  -3.1180  -3.0879
    -3.0821  -3.0758  -2.9847  -2.9009  -2.8589  -2.7476  -2.7239  -2.7195
    -2.7107  -2.6876  -2.6392  -2.5871  -2.4770  -2.4712  -2.3577  -2.2912
    -2.2774  -2.2086  -2.1409  -2.1150  -2.0832  -2.0246  -1.9526  -1.9171
    -1.8831  -1.8603  -1.8397  -1.8094  -1.7884  -1.7460  -1.6794  -1.6732
    -1.6524  -1.6477  -1.6370  -1.6253  -1.5677  -1.5630  -1.5493  -1.4366
    -1.4195  -1.3601  -1.3330  -1.2661  -1.2107  -1.2010  -1.1780  -1.1488
    -1.1199  -1.1122  -1.0577  -1.0458  -1.0154  -0.9873  -0.9542  -0.9049
    -0.8862  -0.8283  -0.8012  -0.7886  -0.7769  -0.7738  -0.6950  -0.6423
    -0.5987  -0.5940  -0.5751  -0.5457  -0.5173  -0.5110  -0.5076  -0.4760
    -0.4707  -0.4593  -0.4274  -0.3848  -0.3720  -0.3651  -0.3629  -0.3513
    -0.3461  -0.3228  -0.2940  -0.2582  -0.2471  -0.0509  -0.0303   0.0400
     0.0651   0.1520   0.1583   0.1736   0.1917   0.2195   0.2613   0.2750
     0.2782   0.2900   0.3535   0.3939   0.4087   0.4303   0.4745   0.4848
     0.5476   0.5612   0.6003   0.6835   0.7418   0.8112   0.8292   0.8487
     0.9010   0.9096   0.9403   0.9607   0.9731   0.9790   0.9966   1.0121
     1.1110   1.1409   1.1445   1.1918   1.1984   1.2206   1.2215   1.2492
     1.2596   1.4033   1.4400   1.4864   1.5477   1.5769   1.6582   1.6671
     1.7090   1.7782   1.7830   1.7994   1.8864   1.8957   1.9728   1.9851
     2.0035   2.0193   2.0216   2.0524   2.0688   2.1048   2.1778   2.1813
     2.2049   2.2240   2.2247   2.2339   2.2423   2.3086   2.4100   2.4394
     2.4498   2.4522   2.4569   2.5179   2.5637   2.6367   2.7413   3.5194
     3.6022   3.6366   3.8073   3.8585   3.9363   3.9792   4.0031   4.3653
     4.5735   4.6118   4.8169   5.0666   5.0793   5.1630   5.2017   5.3739
     5.4857   5.5612   5.6112   5.8789   5.9778   6.0433   6.5281   6.6672
     6.6945

          k = 0.4000-0.4619 0.0000 ( 81934 PWs)   bands (ev):

    -5.7002  -5.6228  -5.1504  -4.9327  -4.3806  -4.1653  -3.8456  -3.7880
    -3.7080  -3.6744  -3.5614  -3.5564  -3.4588  -3.4534  -3.3582  -3.3300
    -3.3161  -3.2975  -3.2931  -3.2784  -3.1556  -3.1264  -3.1180  -3.0880
    -3.0821  -3.0758  -2.9846  -2.9008  -2.8589  -2.7476  -2.7239  -2.7195
    -2.7107  -2.6876  -2.6392  -2.5870  -2.4770  -2.4712  -2.3577  -2.2912
    -2.2774  -2.2087  -2.1409  -2.1150  -2.0832  -2.0247  -1.9525  -1.9172
    -1.8831  -1.8603  -1.8397  -1.8093  -1.7884  -1.7459  -1.6794  -1.6732
    -1.6525  -1.6476  -1.6370  -1.6253  -1.5678  -1.5629  -1.5493  -1.4365
    -1.4195  -1.3601  -1.3330  -1.2661  -1.2107  -1.2010  -1.1781  -1.1488
    -1.1199  -1.1123  -1.0577  -1.0458  -1.0154  -0.9873  -0.9542  -0.9049
    -0.8861  -0.8283  -0.8012  -0.7885  -0.7768  -0.7738  -0.6951  -0.6423
    -0.5987  -0.5940  -0.5750  -0.5457  -0.5173  -0.5110  -0.5077  -0.4761
    -0.4707  -0.4593  -0.4274  -0.3847  -0.3721  -0.3652  -0.3629  -0.3514
    -0.3460  -0.3228  -0.2941  -0.2581  -0.2471  -0.0510  -0.0304   0.0400
     0.0651   0.1521   0.1584   0.1735   0.1918   0.2195   0.2613   0.2750
     0.2782   0.2901   0.3536   0.3939   0.4087   0.4303   0.4745   0.4849
     0.5476   0.5612   0.6002   0.6833   0.7418   0.8112   0.8292   0.8488
     0.9011   0.9096   0.9402   0.9607   0.9730   0.9791   0.9966   1.0121
     1.1109   1.1409   1.1445   1.1918   1.1984   1.2205   1.2215   1.2492
     1.2596   1.4033   1.4400   1.4864   1.5476   1.5769   1.6582   1.6672
     1.7091   1.7782   1.7830   1.7994   1.8864   1.8957   1.9727   1.9851
     2.0034   2.0193   2.0215   2.0524   2.0688   2.1048   2.1778   2.1813
     2.2050   2.2241   2.2246   2.2339   2.2423   2.3087   2.4100   2.4394
     2.4498   2.4522   2.4569   2.5179   2.5637   2.6367   2.7412   3.5196
     3.6022   3.6366   3.8074   3.8585   3.9364   3.9791   4.0031   4.3654
     4.5734   4.6118   4.8171   5.0666   5.0792   5.1628   5.2017   5.3741
     5.4857   5.5612   5.6112   5.8790   5.9776   6.0434   6.5281   6.6671
     6.6947

     the Fermi energy is     2.2229 ev

!    total energy              =  -27755.50118973 Ry

     total all-electron energy =  -1326642.266606 Ry
     estimated scf accuracy    <       0.00000069 Ry
     smearing contrib. (-TS)   =       0.00297352 Ry
     internal energy E=F+TS    =  -27755.50416325 Ry

     The total energy is F=E-TS. E is the sum of the following terms:
     one-electron contribution =  -22429.32030624 Ry
     hartree contribution      =   11517.91324505 Ry
     xc contribution           =    -890.74205925 Ry
     ewald contribution        =    9520.61666544 Ry
     one-center paw contrib.   =  -25473.97170825 Ry

     convergence has been achieved in  16 iterations

     negative rho (up, down):  1.141E-02 0.000E+00

     Forces acting on atoms (cartesian axes, Ry/au):

     atom    1 type  1   force =    -0.00021741   -0.00012303   -0.00300145
     atom    2 type  1   force =     0.00020758   -0.00012449   -0.00300409
     atom    3 type  1   force =     0.00001510    0.00060733   -0.00333333
     atom    4 type  1   force =    -0.00000392    0.00024414   -0.00300429
     atom    5 type  1   force =    -0.00006325   -0.00003408   -0.00344636
     atom    6 type  1   force =     0.00006703   -0.00003487   -0.00343017
     atom    7 type  1   force =     0.00053060   -0.00029639   -0.00334011
     atom    8 type  1   force =    -0.00000648    0.00005998   -0.00344495
     atom    9 type  1   force =    -0.00052134   -0.00031187   -0.00334900
     atom   10 type  1   force =    -0.00000703   -0.00000064    0.00607380
     atom   11 type  1   force =    -0.00052989   -0.00078534    0.00298330
     atom   12 type  1   force =     0.00053528   -0.00078683    0.00297515
     atom   13 type  1   force =    -0.00095461   -0.00006729    0.00298013
     atom   14 type  1   force =     0.00000007   -0.00000511    0.00157547
     atom   15 type  1   force =     0.00095617   -0.00007893    0.00296692
     atom   16 type  1   force =    -0.00042037    0.00085722    0.00297718
     atom   17 type  1   force =     0.00041635    0.00086301    0.00297234
     atom   18 type  1   force =     0.00000699    0.00000034   -0.00026840
     atom   19 type  1   force =     0.00002480   -0.00000303   -0.00030206
     atom   20 type  1   force =    -0.00003476    0.00000143   -0.00031282
     atom   21 type  1   force =     0.00000688    0.00004669    0.00016282
     atom   22 type  1   force =    -0.00000350   -0.00002960   -0.00009788
     atom   23 type  1   force =     0.00002568   -0.00002862    0.00017661
     atom   24 type  1   force =    -0.00003433   -0.00004752    0.00016428
     atom   25 type  1   force =     0.00000701    0.00000849   -0.00009529
     atom   26 type  1   force =    -0.00000640    0.00003827   -0.00031381
     atom   27 type  1   force =    -0.00000328    0.00000521   -0.00010158
     atom   28 type  1   force =     0.00080755    0.00047063    0.00104745
     atom   29 type  1   force =    -0.00080135    0.00046345    0.00103649
     atom   30 type  1   force =    -0.00000719    0.00007750    0.00038682
     atom   31 type  1   force =     0.00000081   -0.00091193    0.00103641
     atom   32 type  1   force =     0.00009505    0.00006814    0.00034913
     atom   33 type  1   force =    -0.00010430    0.00006253    0.00036787
     atom   34 type  1   force =     0.00007502   -0.00004997    0.00039082
     atom   35 type  1   force =    -0.00000092   -0.00011522    0.00036922
     atom   36 type  1   force =    -0.00010057   -0.00006315    0.00039011
     atom   37 type  2   force =     0.00004294    0.00002357   -0.00053673

     Total force =     0.002726     Total SCF correction =     0.002521
     SCF correction compared to forces is large: reduce conv_thr to get better values

     negative rho (up, down):  1.141E-02 0.000E+00

     negative rho (up, down):  1.141E-02 0.000E+00

     negative rho (up, down):  1.141E-02 0.000E+00

     negative rho (up, down):  1.141E-02 0.000E+00

     negative rho (up, down):  1.141E-02 0.000E+00

     negative rho (up, down):  1.141E-02 0.000E+00

     negative rho (up, down):  1.141E-02 0.000E+00

     negative rho (up, down):  1.141E-02 0.000E+00

     negative rho (up, down):  1.141E-02 0.000E+00

     negative rho (up, down):  1.141E-02 0.000E+00

     negative rho (up, down):  1.141E-02 0.000E+00

     negative rho (up, down):  1.141E-02 0.000E+00

     negative rho (up, down):  1.141E-02 0.000E+00

     negative rho (up, down):  1.141E-02 0.000E+00

     negative rho (up, down):  1.141E-02 0.000E+00

     negative rho (up, down):  1.141E-02 0.000E+00

     negative rho (up, down):  1.141E-02 0.000E+00

     negative rho (up, down):  1.141E-02 0.000E+00

     negative rho (up, down):  1.141E-02 0.000E+00

     negative rho (up, down):  1.141E-02 0.000E+00

     negative rho (up, down):  1.141E-02 0.000E+00

     negative rho (up, down):  1.141E-02 0.000E+00

     negative rho (up, down):  1.141E-02 0.000E+00

     negative rho (up, down):  1.141E-02 0.000E+00

     negative rho (up, down):  1.141E-02 0.000E+00

     negative rho (up, down):  1.141E-02 0.000E+00

     negative rho (up, down):  1.141E-02 0.000E+00

     negative rho (up, down):  1.141E-02 0.000E+00

     negative rho (up, down):  1.141E-02 0.000E+00

     negative rho (up, down):  1.141E-02 0.000E+00

     negative rho (up, down):  1.141E-02 0.000E+00

     negative rho (up, down):  1.141E-02 0.000E+00

     negative rho (up, down):  1.141E-02 0.000E+00

     negative rho (up, down):  1.141E-02 0.000E+00
 BEEFens 2000 ensemble energies
             -0.594961705342747E+02
             -0.355425835924953E+01
             -0.155906867645310E+02
              0.421303010847236E+02
             -0.217495621741660E+02
             -0.202490725587237E+02
             -0.343546687867129E+02
             -0.847110077523835E+02
             -0.459015712741464E+02
             -0.466226014361564E+02
             -0.362523823311781E+02
              0.215771779629572E+01
              0.398920793912384E+01
              0.774429076432321E+01
              0.257616802060423E+01
              0.466316535809270E+02
             -0.205337366882968E+02
             -0.228589661004545E+02
              0.188606635693119E+02
             -0.110381970291343E+03
              0.525911117545153E+02
             -0.286495817414205E+02
             -0.322332926129159E+01
             -0.112600213523502E+02
             -0.889709999625552E+01
             -0.454441749306935E+01
              0.866943671609242E+02
             -0.182549597305397E+02
             -0.885134409490763E+01
             -0.507992302347039E+02
              0.803408279011746E+02
             -0.186739753691198E+02
             -0.367348434946950E+02
              0.245989464023804E+02
             -0.279225321934399E+01
              0.158576463001268E+02
             -0.490875989043826E+01
              0.108360372707515E+02
              0.281321561835210E+02
             -0.101470671163716E+03
              0.548506406834913E+02
              0.140103595729175E+02
             -0.147715145079388E+01
             -0.356019547648667E+02
              0.121029376882194E+02
             -0.143360830784832E+02
              0.389021034314542E+02
              0.358551777689578E+02
             -0.304941293258587E+02
             -0.269160036240108E+02
             -0.322771538489210E+02
             -0.345406860989379E+02
              0.132333181758876E+02
             -0.481221057269041E+02
              0.112502768478254E+02
              0.611994269450504E+02
              0.621354865174674E+02
              0.350246662314665E+02
              0.151120689140250E+02
              0.264482260493389E+02
              0.875055151235488E+02
              0.209819052458521E+02
             -0.538591364268846E+02
             -0.155608742992222E+02
             -0.230603174548500E+02
              0.618419490760181E+02
             -0.760575395162454E+02
             -0.661299666929364E+02
             -0.253297438334263E+02
             -0.610971048087629E+01
             -0.463775734348375E+02
              0.265772057972716E+02
              0.778256995947515E+01
              0.836905190980809E+01
             -0.390455413695296E+02
             -0.340271882161903E+02
             -0.530994345200627E+02
              0.384760515992979E+02
             -0.289633963996516E+02
              0.259566866111534E+02
             -0.701443733541114E+01
             -0.313051317629868E+02
             -0.567131144535600E+02
             -0.173855942862771E+02
             -0.873543118561417E+01
             -0.121942190257546E+02
              0.405365734965292E+02
              0.668475159336107E+02
             -0.377100950777000E+02
             -0.780041107015019E+02
             -0.216385258606662E+02
              0.109538534860489E+03
             -0.582450618941431E+02
              0.350624359048102E+02
             -0.933088883723985E+01
             -0.652656039657431E+02
              0.249501061607694E+02
              0.392686477597765E+02
             -0.196066588084165E+02
              0.395322162543195E+02
             -0.291703827276169E+02
             -0.466700460138966E+02
              0.847332528172981E+02
              0.445522198438883E+02
              0.332854503129256E+02
              0.143932051795330E+02
              0.201016057888646E+02
              0.841789003798992E+02
             -0.252068913256025E+02
              0.783721243527893E+01
             -0.139907153955275E+03
              0.178052624896277E+02
             -0.704298764586261E+02
              0.148736499032947E+02
              0.200610350117238E+02
             -0.325964177686151E+02
             -0.548256783615864E+02
              0.650042626823142E+01
             -0.298647970183359E+02
              0.299560686466800E+02
             -0.521633967055210E+02
              0.187573231245256E+01
             -0.349987968594375E+02
             -0.415457255691706E+01
             -0.114160226404803E+01
              0.176782543587049E+02
              0.144067320681143E+01
             -0.641607520500054E+01
              0.578134127605681E+02
              0.891537884951933E+02
              0.475116360789733E+02
              0.818810931612690E+02
             -0.112836575382055E+02
              0.141388192102966E+02
              0.531713191918686E+02
             -0.112040168054747E+02
             -0.721985499774160E+02
             -0.376085907195316E+02
             -0.513032445552407E+02
             -0.271440454224692E+02
              0.322746039642112E+02
             -0.114556344537150E+03
             -0.185038566063516E+02
              0.405332020843537E+02
             -0.379031164176046E+02
             -0.360382339537679E+02
              0.533349746420720E+02
              0.391871268760296E+02
             -0.348999157984280E+02
              0.131459443859789E+02
             -0.268804201800728E+02
              0.336310722245523E+02
              0.432933611312501E+01
              0.209416466004290E+02
             -0.870059050089264E+02
             -0.471569162255698E+02
             -0.981288605082909E+01
              0.325816848893141E+01
             -0.358802411734857E+02
              0.104006587771972E+03
             -0.228915803553309E+02
             -0.394098374468667E+02
              0.381703287862326E+02
             -0.486083512005605E+02
             -0.356355642586022E+02
              0.318881871054009E+02
              0.122182423715040E+02
              0.162670245471068E+02
              0.113443402634794E+02
             -0.130945311577331E+02
              0.223603856139838E+02
              0.579600282023608E+02
             -0.306830501639391E+02
              0.158312884986573E+02
              0.918483013344633E+02
              0.335022548891684E+02
             -0.720600444220156E+01
             -0.184667894290297E+02
              0.150501306545652E+03
             -0.159413544214589E+02
              0.356212244200468E+02
              0.188671817567836E+02
              0.356763962089734E+02
              0.875151454948121E+02
              0.534545415593813E+02
             -0.228261446600957E+01
              0.222985640049599E+02
              0.475341495303351E+02
              0.356258485329294E+02
             -0.514276226322322E+02
              0.918963556203271E+02
             -0.810265818370681E+02
             -0.196271435908032E+02
              0.572628760508027E+02
              0.642346490528094E+01
              0.777734302499596E+01
              0.335986376693336E+02
              0.296545627071845E+02
              0.347629789722340E+02
             -0.626162237356702E+02
              0.281131857523246E+01
             -0.293399396800196E+02
             -0.858108744368047E+01
             -0.139146284665139E+01
             -0.698411920439456E+01
             -0.403084874566650E+01
              0.844426911870196E+02
             -0.100198320646538E+02
             -0.271190019160409E+02
             -0.495407157442386E+01
              0.137287985963073E+02
             -0.552099538827573E+02
             -0.396934799900434E+02
             -0.375893072525141E+02
             -0.618719972340115E+02
             -0.166046044927743E+02
             -0.440140935261412E+02
              0.159935849999152E+02
             -0.244809667513083E+01
             -0.102019461521357E+02
             -0.919331192054196E+01
              0.799897183382984E+01
             -0.240721523685743E+02
              0.677597238152798E+02
             -0.791112172905491E+02
             -0.138535788000046E+02
             -0.171686217201990E+02
              0.179374004583863E+02
              0.210379998676332E+02
             -0.454379080342635E+02
             -0.199660830224612E+02
              0.432836407701258E+02
             -0.272894936217394E+02
              0.184525913845020E+02
              0.376957742139717E+02
             -0.320068532084952E+01
              0.112033312422588E+03
             -0.228147142194158E+02
             -0.334856861110850E+02
              0.577140998409044E+01
             -0.223183133959046E+02
              0.517303181638060E+02
             -0.328443618740770E+02
              0.104087393542867E+02
              0.631388484707984E+02
             -0.124023243916710E+02
              0.118092847152355E+03
              0.123531565942000E+03
             -0.637181774631824E+02
              0.580131820917268E+02
              0.162053919829237E+02
             -0.507426594109286E+02
              0.213141663314856E+02
              0.345964792190437E+02
              0.353978012594717E+02
              0.126401912655518E+01
              0.156650549714536E+02
              0.682133994004707E+02
             -0.242784532859434E+02
              0.179798272719496E+02
              0.726673825805158E+02
             -0.365948953645169E+02
             -0.125136260682616E+02
              0.497739413175281E+02
              0.291827090660694E+02
              0.766203406313880E+02
              0.216522114361290E+02
              0.599759710184134E+01
              0.275758589169810E+02
              0.375611596385983E+02
             -0.462106394426284E+02
              0.316256943618436E+01
              0.124625299693737E+02
              0.111429937905887E+02
              0.216167114378441E+02
             -0.563651543215204E+02
              0.360321106319892E+02
             -0.435991292343305E+02
             -0.341821081194583E+02
              0.174459589329509E+02
             -0.180097070873255E+02
              0.543980078254339E+02
             -0.253759368848150E+02
              0.261265324630717E+02
              0.362760136616528E+02
              0.815212807241722E+02
              0.565323730608775E+02
              0.452553058504157E+02
             -0.105345280349636E+02
             -0.368796209643330E+01
             -0.326876461642587E+02
              0.735655524941882E+02
              0.782077092293358E+02
              0.354503139092197E+02
             -0.186684444902985E+02
              0.502803036079936E+02
             -0.163063387837714E+02
              0.211913616724852E+02
              0.601788153938537E+02
              0.217611879801163E+01
             -0.102639824757318E+02
             -0.279490749042069E+02
             -0.500404174869418E+02
              0.927791722477515E+02
              0.430309859568783E+02
             -0.547155758459247E+02
             -0.921296090124355E+01
              0.245232944760164E+02
             -0.978902123736211E+01
              0.579945586079779E+02
              0.149357422639952E+02
              0.784272042556041E+02
              0.273767089484005E+02
             -0.259615479812893E+02
              0.245537052338060E+02
             -0.488638275675567E+01
             -0.319013307396386E+02
              0.130118859017320E+02
              0.202928391720286E+02
              0.916431353893946E+02
              0.783445925962985E+02
              0.540710402872705E+02
              0.718768572492961E+02
              0.790428665746902E+01
             -0.269225387413975E+02
              0.160694550244538E+02
             -0.361971307097593E+02
             -0.465870303259691E+02
             -0.553186336164221E+02
             -0.260631024489075E+02
             -0.107751408625571E+03
             -0.284577456879713E+02
             -0.821396614396689E+02
              0.206180589028555E+02
             -0.468937394471028E+02
              0.387492690448292E+02
             -0.923270372529106E+02
             -0.324709479702601E+02
              0.541640409013986E+02
              0.203588650918361E+02
             -0.813927925707548E+02
              0.621339597165685E+02
             -0.251583799067503E+02
              0.502344504816757E+02
             -0.237598577757941E+02
             -0.736783203746872E+02
              0.108687063560971E+02
             -0.599035599737522E+02
             -0.167781760793210E+02
             -0.146744256087116E+01
              0.410669907427818E+02
              0.124718557937060E+03
             -0.453969335749222E+02
             -0.355611151152799E+02
             -0.876412846120047E+00
             -0.128973516891592E+02
             -0.807846515998493E+02
             -0.586685373176841E+02
              0.508270420913789E+02
             -0.285778012120463E+02
              0.164999760056543E+02
             -0.480380546380122E+02
             -0.128837695575565E+02
             -0.429742453509341E+02
              0.556748914979001E+02
              0.148791413922921E+02
             -0.227271076044409E+02
             -0.123555141620476E+02
              0.642850996112415E+01
             -0.605261271394676E+01
              0.434062286926669E+02
             -0.247287180506554E+02
              0.256525654595544E+01
              0.333267006961968E+02
              0.169009426299109E+02
             -0.155486292083440E+02
              0.153455360754417E+03
              0.527198093669796E+02
              0.966313594526113E+00
              0.160444648034305E+02
             -0.603846290586810E+02
              0.308888777278637E+02
             -0.707280519938324E+02
             -0.245759635832179E+02
             -0.511877798287661E+02
             -0.216826482455771E+02
              0.558475514108151E+02
             -0.526517356943076E+02
              0.155878527940302E+02
             -0.402017673728608E+01
              0.384542934810963E+01
             -0.428274076553771E+02
             -0.470811424723518E+02
             -0.391675091335492E+01
             -0.419044005793626E+02
             -0.212935436206504E+02
             -0.431109511801967E+02
             -0.118265737429758E+02
             -0.353149333552761E+02
             -0.507605568346285E+02
              0.208995613163128E+02
             -0.207058352009452E+02
              0.183447255616245E+02
              0.960873305048430E+01
             -0.724213212322416E+02
             -0.538882674974585E+02
             -0.389056434012682E+02
              0.348381781152539E+02
              0.283875312795408E+01
             -0.615423980691971E+02
              0.575449698757126E+02
             -0.393467664698021E+02
              0.533921826733648E+02
             -0.283931978543362E+02
             -0.437053546611887E+02
              0.293956175240955E+02
             -0.644289977587530E+02
             -0.374295155469779E+02
              0.662416086370013E+02
              0.200531580568792E+02
             -0.352111492815870E+02
              0.479530119256427E+02
             -0.171037271348767E+02
             -0.316025919301454E+02
             -0.296373446471455E+02
             -0.491273377181249E+02
              0.244783391739045E+02
             -0.917449026978357E+02
             -0.826490855726875E+02
             -0.718606885722750E+01
             -0.301511955078161E+02
             -0.564762611558642E+02
              0.707841399665340E+02
              0.129021658884086E+03
             -0.357145868800216E+02
             -0.247666304016661E+01
             -0.626366588925788E+02
              0.638445749628000E+02
              0.166704141320489E+02
             -0.177827521339715E+02
             -0.403557215558276E+02
              0.145864217906218E+02
             -0.575194578744749E+02
             -0.195725670888105E+02
             -0.888992222129378E+02
              0.330580857881407E+02
              0.167159976753479E+02
              0.196388888921410E+01
             -0.685065414529765E+01
             -0.321945791735839E+02
             -0.735914849721951E+01
              0.123051854476870E+03
             -0.196084397478908E+02
             -0.428665382779847E+02
             -0.671279167499990E+02
              0.106713619805083E+02
             -0.335157858814238E+02
              0.571167845381825E+01
              0.255331335528212E+02
              0.101393848391233E+02
              0.271450999695592E+02
              0.116643973657592E+02
              0.619024098478386E+02
              0.312292849869023E+02
             -0.319890590514339E+02
              0.345432989157606E+02
              0.373372380989899E+02
              0.118565030971665E+02
              0.480613789380724E+02
             -0.218903664154173E+02
              0.752776660380852E+02
              0.167492790625904E+02
             -0.265745986917057E+02
             -0.715772242735754E+01
             -0.183408619019192E+02
              0.259104689104477E+02
             -0.229664477699503E+02
              0.969615711494782E-01
             -0.825288250427798E+01
              0.794774983427370E+02
              0.489481092384667E+02
             -0.675414196454424E+02
             -0.461885270112310E+01
             -0.546443130661078E+02
             -0.157048651117523E+02
             -0.264662673724996E+02
              0.354454322689958E+01
              0.660215076068663E+00
             -0.252480343250550E+02
              0.781394380860158E+01
             -0.585290316783356E+01
             -0.127388430227391E+02
              0.842946897745823E+02
              0.179100849812144E+02
             -0.791831912964935E+02
             -0.451734755264333E+02
              0.927463627001015E+02
              0.273450061833157E+02
             -0.105336099725215E+02
              0.102559016720359E+03
             -0.191710145245083E+02
             -0.121705139879013E+02
             -0.519277286173792E+01
              0.104543470203175E+02
              0.266344620228896E+02
              0.777217848064777E+01
              0.300227024989085E+02
             -0.185957935448095E+02
             -0.296509644267711E+02
             -0.410714812663947E+02
             -0.468105884761701E+02
              0.456906669959451E+02
              0.124186076831206E+02
              0.380794529342141E+02
              0.130729278044849E+02
              0.839182113120465E+02
              0.152555244711958E+02
             -0.832066821500764E+02
             -0.328566915763676E+02
              0.133251427279412E+02
             -0.297784177260475E+02
              0.614959151768372E+02
             -0.854715268508926E+01
              0.145407474559581E+02
              0.487075908398417E+02
             -0.692477736478393E+02
              0.147051820962430E+03
              0.205286153146817E+02
              0.266996735301283E+02
              0.340745032979135E+02
              0.103134557554163E+02
             -0.152891373204210E+01
              0.352526195607422E+02
             -0.350919482382016E+02
              0.757427956672279E+02
              0.671123762926005E+02
             -0.398923764581810E+02
              0.146598561565768E+02
              0.656848698381436E+02
             -0.219974425481975E+02
              0.150657575714920E+02
              0.429165964668378E+02
              0.414708963890249E+02
             -0.771290777753860E+02
             -0.151692448670152E+02
             -0.351191480284753E+02
             -0.138017537116707E+01
             -0.755656760343211E+01
             -0.556741918069974E+01
             -0.178494499614435E+02
             -0.288296683683968E+02
              0.604281343797645E+01
              0.110659139648725E+02
              0.526027261203002E+02
             -0.381815084529824E+02
              0.366010218364554E+02
              0.429543875589088E+02
             -0.184855850758653E+02
              0.858433549068690E+02
             -0.685577426109907E+02
             -0.101299308973484E+03
             -0.643375098716063E+01
             -0.255368147970137E+01
              0.388367962653444E+01
              0.775339347962077E+02
             -0.106849754679688E+02
              0.408922804082608E+02
              0.432785457003563E+02
              0.378280474927469E+02
             -0.982997666992060E+01
              0.616804821520057E+02
             -0.130585303142547E+02
             -0.300217955896670E+02
             -0.473170998816257E+02
              0.567529514721862E+01
              0.363230107728725E+02
             -0.598683677085054E+01
              0.386908591594988E+02
             -0.175032118962318E+01
              0.645016335396749E+02
              0.184214569134386E+02
              0.984020941488217E+01
             -0.122282903587085E+02
              0.326768876274761E+02
              0.355027929494000E+02
              0.229994995483909E+02
             -0.443396130961531E+00
             -0.540666414819439E+02
              0.255079275649592E+02
              0.171326982333662E+02
              0.396655214893129E+02
              0.266635826426665E+02
              0.365781815758953E+02
             -0.585433984108386E+01
              0.244887160470624E+02
             -0.293503266778685E+02
             -0.195116559263045E+01
             -0.559740689084015E+02
             -0.301456890611064E+02
              0.370908409226668E+02
             -0.919730146677166E+02
              0.290022987713181E+02
              0.181655461437030E+02
              0.824724459211150E+02
             -0.298191054305214E+02
              0.323588225417357E+02
             -0.135785821093268E+02
             -0.454925438126796E+02
             -0.749665184433454E+02
             -0.498682967524515E+01
             -0.843579014174648E+02
              0.198356702498825E+02
             -0.243775419829625E+02
              0.299838035328919E+02
              0.232781587391646E+02
             -0.235892705077212E+02
             -0.260083041215253E+02
              0.383174755374394E+02
             -0.577896136901124E+02
             -0.114317450007734E+02
             -0.193054065810719E+02
              0.207780874901720E+02
             -0.901244592751203E+01
              0.354845118977849E+01
             -0.197863250233283E+02
              0.548978104860400E+02
             -0.428904817494670E+02
              0.776008654539226E+01
              0.574504447341883E+02
             -0.316545733835452E+02
              0.353897659672603E+01
             -0.886759375372833E+01
             -0.657632127653899E+02
             -0.475688307009913E+02
             -0.857339207081998E+01
              0.235173169511565E+02
              0.296047259238636E+02
              0.853515271250114E+01
             -0.391175320776529E+01
              0.148667409280172E+02
             -0.432581742685824E+02
              0.341455498644513E+01
             -0.521729765436112E+02
             -0.320107451094524E+02
              0.465518280841896E+02
             -0.289619937684071E+02
              0.609722322024837E+02
             -0.210631693559144E+02
              0.347534170170913E+02
              0.237206037892571E+02
             -0.633202919740514E+02
             -0.275791811204333E+02
              0.914782996738793E+01
             -0.364153456554810E+02
             -0.332202523551161E+02
             -0.813748229622420E+02
             -0.529314811211281E+02
             -0.501364507771671E+02
             -0.407158395452021E+02
             -0.100067931705237E+01
              0.950763937276429E+01
              0.848338829977962E+00
              0.148132354429483E+02
             -0.538761516037684E+02
              0.139456302361572E+02
              0.251917201584451E+02
             -0.654328427146568E+02
             -0.691682283938907E+02
             -0.424353278785983E+02
             -0.165972985856221E+02
              0.175806851502694E+02
              0.462669032581368E+01
             -0.417990621982512E+02
              0.361127784320240E+02
             -0.211940162710962E+02
              0.508111982498325E+02
             -0.871117707726830E+02
              0.586048237026829E+02
             -0.191543242344472E+01
             -0.360782654001106E+02
             -0.211089140550525E+02
              0.471323144861610E+01
              0.365425645730225E+02
             -0.743655684202301E+02
             -0.118331249981698E+02
             -0.213718574765981E+02
              0.503727363931756E+02
              0.850307368007531E+02
             -0.947205023917254E+02
              0.927364187915421E+02
              0.460514245300044E+02
             -0.711600784969746E+02
             -0.360912484087027E+02
              0.737656933566493E+02
              0.621805613268401E+02
             -0.177579028248830E+02
             -0.450322153907968E+01
              0.699052859427283E+01
              0.634901916072913E+02
             -0.497549845492619E+02
              0.156112951984007E+02
             -0.456901329870871E+01
              0.343013033917484E+02
             -0.734243001870383E+02
             -0.643469711998560E+01
             -0.346253685354646E+02
              0.451801376696513E+02
              0.461675934139068E+02
             -0.845835899398942E+02
             -0.478432288587839E+02
             -0.252557119874297E+02
             -0.331358839335496E+02
             -0.106971177429521E+02
             -0.239457455065660E+02
              0.419270135257677E+02
              0.393053372938847E+02
             -0.562028030154784E+01
             -0.408161552739839E+02
             -0.835083810777658E+02
              0.434020374062542E+02
             -0.514921160315298E+02
             -0.306191712040723E+02
              0.533586434633622E+01
             -0.315853152252321E+02
             -0.390525113788613E+02
             -0.234667411859947E+02
             -0.376264335178573E+02
             -0.266237589760525E+02
             -0.473362747004037E+02
              0.553833791316903E+02
              0.627407829583504E+02
             -0.151595085596523E+01
             -0.257401098930602E+02
             -0.634417782132834E+01
              0.433525058294163E+02
             -0.852493594125929E+02
             -0.141876952487922E+02
              0.514801220190158E+02
              0.650830445390680E+02
             -0.242837578470360E+02
              0.894232622091408E+01
              0.514142596944326E+02
              0.195544279255112E+02
             -0.828835719666523E+01
             -0.446045011935972E+02
              0.278028923510986E+02
             -0.346606048685808E+02
             -0.163416375289632E+02
             -0.149024729728179E+02
             -0.197641455500570E+02
              0.190562193890773E+02
              0.786162606751215E+02
              0.200362125361008E+01
              0.530714427446327E+01
             -0.870997878806773E+02
             -0.172678556636373E+02
             -0.345993061597365E+02
              0.275377786057948E+01
             -0.401107934258338E+02
              0.714073195263283E+02
              0.768948165256147E+02
              0.120649328085161E+02
             -0.137490104134234E+02
              0.140735394628139E+02
              0.256792770708182E+02
             -0.473647035036113E+02
             -0.859061600285622E+01
              0.134642606196684E+02
              0.162280890447041E+02
              0.554148925310490E+02
              0.414473649802858E+02
             -0.193951280244573E+02
              0.326948419348797E+02
             -0.950831298229795E+02
             -0.501698196358774E+00
              0.831260788698311E+02
              0.881048555736606E+01
              0.144936223524212E+01
              0.330665733624870E+02
             -0.293815145980414E+02
              0.942795056924836E+02
             -0.117155094148604E+02
              0.855794398529914E+02
              0.373442104194779E+02
             -0.384963906116354E+02
              0.308897615597974E+02
             -0.328413339980908E+02
             -0.706102063872440E+02
             -0.639880566205824E+01
             -0.532493447895006E+02
             -0.538645011489323E+02
             -0.677907341520432E+01
              0.288697042831349E+02
             -0.483690000262771E+01
             -0.354269398275610E+02
              0.113320106376943E+02
             -0.725949505646705E+02
             -0.100296177275205E+02
             -0.813747289721755E+02
              0.479010349894487E+02
              0.215884473187555E+01
             -0.475589211295290E+02
             -0.227559417408684E+02
              0.209182697802701E+02
             -0.294399176638363E+02
             -0.447472230973602E+02
              0.891797358652446E+02
             -0.193574947518941E+02
             -0.463526309945769E+02
              0.244309680802598E+02
             -0.101718540068858E+02
              0.476377483241822E+02
             -0.319119540731549E+01
              0.122727703254513E+02
              0.997066227070029E+02
             -0.198613390793288E+02
             -0.331909359202892E+02
             -0.302007485019337E+02
             -0.524891210526488E+02
             -0.318412526463322E+02
              0.224962612036347E+02
              0.201276074116707E+02
              0.181983991076267E+02
              0.728222197663949E+02
              0.113109447615841E+00
              0.176780039680690E+02
             -0.680897983273573E+02
              0.197773364746200E+01
             -0.255810680773759E+02
             -0.307460598767950E+02
              0.618672037440615E+01
              0.323391650331133E+02
              0.377325366682550E+02
              0.206267416738419E+01
              0.844795671241934E+01
              0.308397067368294E+02
              0.397808113450749E+02
             -0.232817086533566E+02
             -0.149255168184682E+02
              0.131643772594219E+01
             -0.215174999539896E+02
             -0.101692287882835E+02
             -0.225229647991617E+02
[...]
              0.279757378101072E+02
              0.139328154457984E+03
              0.236679385267444E+02
              0.119244638013325E+02
             -0.455552801824682E+02
             -0.627011063930918E+02
             -0.186816121868895E+02
              0.324564702002692E+02
             -0.416518594173112E+01
              0.185466036352866E+02
              0.329780585588460E+02
             -0.575041986517197E+02
              0.217448443921961E+02
              0.575749001814993E+02
              0.542367734495318E+02
             -0.400802450187120E+01
             -0.147568941980342E+01
             -0.981490789991065E+01
             -0.474229967462155E+02
             -0.661556255912295E+02
              0.771360223710872E+02
             -0.502672824704334E+01
             -0.578022393270213E+02
              0.155535369879050E+01
             -0.199774186172830E+02
              0.922920241371453E+02
             -0.212390952718731E+02
             -0.346648219017900E+02
              0.328708298015439E+02
             -0.142797634875301E+02
              0.380950999813997E+02
             -0.239416922122297E+01
              0.993757232849842E+02
              0.479789716759158E+02
             -0.533323012909298E+01
             -0.314617289227705E+02
              0.226963005471250E+02
             -0.518493502494888E+02
             -0.126998756526199E+02
              0.574012741304982E+02
             -0.283020082455831E+02
             -0.430287297452699E+02
             -0.218939259334657E+02
              0.509254282809944E+02
              0.122463316912940E+02
             -0.833939493438670E+02
              0.297755384835533E+02
              0.150953155434751E+02
              0.557382811645317E+01
             -0.504706377827926E+02
             -0.394858722650287E+01
              0.316719699649333E+02
              0.504401616536841E+02
              0.620631083116335E+02
              0.222653888137725E+02
              0.596584751767892E+00
             -0.487957947562432E+02
             -0.502419236421327E+02
             -0.735947215796155E+02
             -0.588643596035672E+01
              0.302914337176353E+02
             -0.380917387345352E+01
              0.537448636206831E+02
             -0.312050097601817E+02
              0.163130028573403E+02
             -0.986331291495543E+01
             -0.284658532682356E+02
              0.574885339327042E+02
              0.783002105298647E+01
              0.592732575179336E+02
              0.499249753904508E+01
              0.261449296394800E+02
             -0.189716033460350E+02
              0.574934126852465E+02
             -0.108559057457587E+02
             -0.107447908252627E+00
             -0.775851456901338E+02
             -0.127115565730975E+02
              0.706330594009848E+02
              0.661393992838792E+02
              0.247113713000507E+02
             -0.127171787036359E+02
              0.335245012633487E+01
             -0.169226590638570E+02
             -0.169313841007099E+01
              0.891252995332704E+02
              0.111653001003435E+01
             -0.184862715144538E+02
             -0.108786386174552E+03
             -0.544695352168010E+02
             -0.368112099888797E+02
             -0.647062573596413E+02
             -0.544682112100252E+02
             -0.669642552489021E+02
             -0.438869888787131E+02
             -0.405891040452047E+02
             -0.442890229297946E+02
              0.475470622675537E+02
             -0.291055777708300E+02
             -0.979855596944692E+02
              0.411430786746317E+02
             -0.253912940562501E+02
             -0.776089991211058E+02
              0.925380487128562E+02
             -0.214977983731105E+02
              0.225344582402384E+02
              0.448327252583472E+02
             -0.157662840943283E+01
              0.249602313910200E+02
              0.468483750780717E+01
              0.391190339167954E+00
             -0.148447255539763E+02
             -0.702259644095964E+02
              0.131272673208596E+02
             -0.127186912932382E+03
              0.610926763247562E+02
             -0.433216912867069E+02
             -0.159377435132416E+02
             -0.154180717437562E+02
              0.674623151089228E+01
             -0.224932228132474E+02
              0.291820576905770E+02
             -0.509598265116905E+02
              0.360683334688116E+02
              0.363118435933518E+02
              0.166713643046077E+02
              0.990297344229674E+01
              0.193815331279307E+02
              0.602328054441023E+01
              0.304920451256773E+02
             -0.791304666759478E+01
             -0.578522906576813E+02
              0.739559809998366E+01
             -0.146326366977293E+02
             -0.186622359353913E+01
              0.496061842761975E+02
             -0.812338502584185E+02
             -0.151714723469894E+01
              0.509404513318771E+00
              0.978959794139269E+01
              0.312723362664826E+02
             -0.121349815674988E+02
              0.820176320796385E+02
              0.480813880556444E+02
             -0.180473207048674E+02
             -0.939061978437519E+01
              0.946171966550452E+00
              0.755077141399571E+02
             -0.577112648801058E+02
             -0.103913435056781E+03
              0.304047709341440E+02
             -0.161664139939231E+02
             -0.136826625785461E+02
              0.126831516621629E+02
              0.754441748340548E+02
              0.456436429225099E+02
             -0.150340040120188E+02
             -0.493043360655502E+02
             -0.526255308718650E+01
              0.301321696201465E+02
             -0.108254060329401E+02
             -0.741821642794960E+02
             -0.254631084888314E+01
             -0.871795910102068E+02
             -0.465906764815724E+02
              0.752452495264934E+02
             -0.473918423171515E+02
             -0.623227749722250E+02
             -0.504740778715919E+02
             -0.342428040587790E+02
              0.334863247539392E+02
              0.805831145478157E+02
             -0.340610884377770E+01
              0.271646532329303E+02
             -0.179996037356339E+02
             -0.681258691526011E+02
              0.455759259721788E+02
             -0.436026101784493E+02
              0.317221983651834E+02
              0.370829983379083E+02
             -0.625997035045225E+01
              0.383473818974934E+02
              0.431172317393170E+02
              0.984286487529035E+02
             -0.154209186637809E+02
             -0.445629364184235E+02
             -0.600460163184157E+02
             -0.120156280443542E+02
             -0.225298499842109E+02
              0.101316789667369E+03
             -0.440991840406539E+02
              0.103135338511891E+02
              0.967398144215872E+01
             -0.261060453063446E+02
             -0.782887783123634E+02
             -0.688000846798457E+01
              0.961346219557873E+02
              0.896747320014310E+01
              0.794762475745455E+01
             -0.516006559611614E+02
             -0.595208440487991E+02
             -0.528575816264956E+01
              0.492041890017599E+02
             -0.216982541142350E+02
              0.106109227755614E+03
             -0.426980214422055E+02
              0.142572027001965E+02
             -0.221695353511675E+02
             -0.707176686370623E+02
              0.154370253914408E+01
             -0.491281511339175E+02
             -0.746935328648947E+02
              0.594043256316615E+01
              0.232301751152494E+01
              0.504973278324596E+02
              0.182139240111384E+02
             -0.317216039117552E+02
              0.225910015848691E+02
             -0.794544212891260E+02
             -0.512950384968493E+02
              0.884609185196738E+02
              0.141425147443945E+02
             -0.187216622068255E+02
             -0.347739322729286E+02
             -0.267998436422840E+01
             -0.564369309875019E+01
              0.813395291080326E+02
              0.410251008135405E+02
             -0.164445283073021E+02
             -0.122009494106219E+02
             -0.420613212833470E+02
             -0.198161257323528E+02
             -0.658444193766419E+02
              0.450260762629963E+02
              0.534978344208594E+01
              0.143549026379221E+02
              0.152601779791705E+02
             -0.309854647646365E+00
             -0.164222703233085E+02
             -0.324601659603026E+01
             -0.983464912435001E+02
             -0.228037869323944E+02
             -0.747974232212118E+01
             -0.937038044038812E+01
              0.537214059185023E+02
              0.611862457638005E+02
              0.161518980943521E+02
             -0.953293470206649E+02
              0.635635615111815E+02
             -0.210528378964664E+02
             -0.370016251201242E+02
             -0.847829783766789E+02
             -0.382060701128602E+02
              0.552797949110114E+02
              0.238194655422379E+02
              0.485049658223460E+01
              0.285635190145084E+02
             -0.554549058090513E+02
             -0.413038646210171E+02
              0.503790720164533E+02
              0.379409521171128E+02
              0.510082410538153E+02
             -0.136005686521003E+01
              0.666542419677842E+01
              0.559656078551524E+02
              0.944278960698944E+02
             -0.297000375568047E+02
              0.315237318971792E+02
             -0.113100757171819E+02
             -0.403976926204337E+02
             -0.307854325432214E+02
             -0.293938978857206E+02
             -0.128734002968522E+02
             -0.514413842145169E+02
             -0.213639169049139E+02
             -0.138760334349175E+03
              0.363414191422581E+02
              0.201476437661452E+02
             -0.387649802709777E+01
             -0.372917718131639E+02
             -0.200617951032756E+02
             -0.516292096365169E+02
              0.150336298488487E+02
              0.805310589561388E+02
             -0.248824254197802E+02
             -0.159528218164183E+02
              0.234370895884055E+02
             -0.480159226377242E+02
              0.864608956170366E+02
              0.151531734099043E+02
              0.225172553818111E+02
              0.480404831397142E+02
              0.330826635396272E+01
              0.531038322111539E+02
              0.139225306940656E+02
             -0.106310030813148E+02
              0.705838502557646E+01
              0.955596346313484E+00
              0.714818226754641E+02
              0.999284698429369E+01
              0.116567706997046E+02
             -0.128528837362157E+02
              0.130401182276336E+02
             -0.893675875258044E+02
             -0.319099298738666E+02
             -0.448110474075409E+02
              0.475794645956072E+02
             -0.284520549029764E+02
             -0.648136630405587E+02
              0.527088689443360E+02
             -0.119464712753686E+02
              0.432451499826597E+02
             -0.881913981421721E+02
              0.228796581279371E+02
              0.848562745535369E+01
              0.570684539679939E+01
             -0.807334080795465E+01
             -0.891301163831133E+01
              0.470186877837121E+02
              0.194706371814857E+01
             -0.465113952031786E+02
             -0.172297177417668E+02
              0.273042796456422E+02
             -0.115807417273391E+03
             -0.913593849108467E+02
              0.395525230575083E+01
              0.114563012321013E+02
             -0.403903496663794E+02
             -0.391178996031596E+01
              0.110207943838093E+03
              0.300804086160267E+02
             -0.561695339005403E+02
              0.909390003474090E+01
             -0.943369688068404E+01
              0.103425132873752E+02
             -0.331051120198727E+02
              0.191172813269039E+02
              0.280190333743818E+02
             -0.280502896466061E+01
              0.106063872044110E+03
             -0.139754898058435E+02
             -0.310092901766564E+02
              0.136909579615841E+02
              0.458801015323165E+02
             -0.349945404386812E+02
             -0.315097404679346E+01
              0.946683745993503E+02
             -0.462759993218776E+01
              0.611868679066903E+02
              0.132404557163501E+02
             -0.888048671985179E+01
             -0.302480349754308E+02
              0.557472793610126E+02
             -0.502922023295108E+02
             -0.218149318451918E+01
             -0.166301295539789E+02
             -0.397770333682059E+02
              0.182903906448602E+02
              0.234711805719238E+02
              0.116381725421060E+02
              0.756620049333605E+00
             -0.376639071765040E+02
              0.212398624669208E+02
             -0.673501517554021E+01
             -0.242301035830140E+02
             -0.206837666951195E+02
              0.200135169985148E+02
             -0.598116719659436E+01
             -0.341946938325896E+02
             -0.104632447216241E+03
              0.101621871902907E+02
              0.246073730468693E+02
             -0.378000740632772E+02
             -0.206353031705572E+02
              0.791730351276038E+02
              0.627163930846584E+01
              0.302292263105404E+02
              0.369108615949017E+01
              0.314136979021661E+02
              0.642773950222761E+01
             -0.365428765709471E+02
             -0.210267121094139E+01
              0.866774980230423E+01
              0.267883242852486E+02
              0.767835189250609E+02
              0.498262874589602E+02
              0.115947632509005E+00
              0.167150506825299E+02
              0.601982296923946E+02
              0.230517381966163E+02
             -0.740021088479076E+02
             -0.268606107850879E+02
              0.149173523235597E+02
              0.542292996040607E+01
              0.250181742487567E+02
             -0.538294807679605E+02
              0.888512119629996E+01
              0.378217175460989E+02
              0.488877870208529E+02
             -0.426876894119018E+02
             -0.697380903082836E+01
             -0.202033387275890E+01
             -0.129747623033604E+02
             -0.360726026108545E+02
             -0.213090677895710E+02
             -0.179608229289761E+01
              0.772314305729481E+01
              0.413555517272500E+02
             -0.301992766649165E+02
              0.811216158088747E+02
              0.320977212995173E+02
              0.214799000541800E+02
              0.326307889081511E+02
              0.318582197332109E+02
              0.339736163796624E+02
              0.526794287523078E+02
             -0.425047866913695E+02
              0.607981023489955E+02
             -0.110152657056137E+03
              0.301454031271854E+02
             -0.104562604269423E+03
              0.839587583730597E+02
              0.675942200911591E+02
             -0.108289393209170E+02
             -0.484515918468271E+02
             -0.421698551811788E+02
             -0.613607969229594E+02
             -0.616538611370352E+02
              0.541608351310193E+02
              0.397434324249977E+02
              0.232156913562869E+02
              0.369188418171358E+02
              0.394656270481229E+02
             -0.374520876924520E+02
             -0.195135680045925E+02
              0.576837127414199E+02
             -0.113908652868312E+02
              0.542696692918097E+02
              0.684901875542652E+02
             -0.548422412617971E+01
             -0.692254667874084E+02
             -0.984403793005754E+00
             -0.249961427151281E+01
             -0.861874432233105E+01
             -0.187678553363185E+01
             -0.641011531578541E+02
             -0.209198103462694E+02
              0.514642076956195E+01
              0.873469281612449E+01
              0.459506556894056E+02
             -0.389736153767047E+02
              0.648028437346762E+02
             -0.418168027951494E+02
              0.205264446513386E+02
              0.342142910699595E+02
 
 BEEF-vdW xc energy contributions
           1 :   -769.645088836068     
           2 :    708.036127971076     
           3 :   -600.978642977445     
           4 :    474.409772931328     
           5 :   -355.092362886609     
           6 :    262.571944658660     
           7 :   -204.575875988886     
           8 :    176.860618029579     
           9 :   -167.083512543707     
          10 :    160.831986071292     
          11 :   -147.338788316281     
          12 :    122.735637311306     
          13 :   -89.9872248464176     
          14 :    56.0724946190779     
          15 :   -28.0341431333658     
          16 :    9.69662554956813     
          17 :  -0.342758673174217     
          18 :   -4.37237478856389     
          19 :    9.95695431147635     
          20 :   -20.3641562631627     
          21 :    36.2730288154182     
          22 :   -55.0556541029454     
          23 :    72.2792720752486     
          24 :   -83.9257872872677     
          25 :    88.2325327900609     
          26 :   -86.3376248458766     
          27 :    81.5279572720239     
          28 :   -77.5459501627770     
          29 :    76.8093796608871     
          30 :   -79.3885802788440     
          31 :   -84.1085552977390     
          32 :   -64.6566297403550     

     Writing output data file ./pwscf.save/
 
     init_run     :    269.11s CPU    272.95s WALL (       1 calls)
     electrons    :   9558.62s CPU   9652.17s WALL (       1 calls)
     forces       :     86.17s CPU     87.16s WALL (       1 calls)

     Called by init_run:
     wfcinit      :    221.84s CPU    224.86s WALL (       1 calls)
     potinit      :     45.02s CPU     45.34s WALL (       1 calls)
     hinit0       :      0.73s CPU      0.77s WALL (       1 calls)

     Called by electrons:
     c_bands      :   8042.99s CPU   8118.52s WALL (      17 calls)
     sum_band     :   1032.01s CPU   1039.95s WALL (      17 calls)
     v_of_rho     :    102.15s CPU    105.10s WALL (      17 calls)
     newd         :     20.49s CPU     27.65s WALL (      17 calls)
     PAW_pot      :    117.54s CPU    117.56s WALL (      17 calls)
     mix_rho      :    289.14s CPU    289.66s WALL (      17 calls)
     vdW_kernel   :     33.98s CPU     33.99s WALL (       1 calls)

     Called by c_bands:
     init_us_2    :     56.30s CPU     56.51s WALL (     468 calls)
     cegterg      :   7422.62s CPU   7497.76s WALL (     221 calls)

     Called by *egterg:
     cdiaghg      :     61.66s CPU     61.74s WALL (    1136 calls)
     h_psi        :   4656.30s CPU   4683.23s WALL (    1162 calls)
     s_psi        :    797.58s CPU    797.89s WALL (    1162 calls)
     g_psi        :     13.93s CPU     13.95s WALL (     928 calls)

     Called by h_psi:
     h_psi:calbec :    752.00s CPU    752.45s WALL (    1162 calls)
     vloc_psi     :   3084.57s CPU   3086.51s WALL (    1162 calls)
     add_vuspsi   :    798.46s CPU    798.85s WALL (    1162 calls)

     General routines
     calbec       :   1096.72s CPU   1097.23s WALL (    1435 calls)
     fft          :     41.17s CPU     41.19s WALL (    3037 calls)
     ffts         :     89.83s CPU     89.88s WALL (    7550 calls)
     fftw         :   3117.85s CPU   3119.35s WALL (  292213 calls)
 
     Parallel routines
 
     PWSCF        :      2h47m CPU      2h49m WALL

 
   This run was terminated on:  18:39:38  20Dec2022            

=------------------------------------------------------------------------------=
   JOB DONE.
=------------------------------------------------------------------------------=
