
     Program PWSCF v.6.7MaX starts on 21Dec2022 at  9:32:36 

     This program is part of the open-source Quantum ESPRESSO suite
     for quantum simulation of materials; please cite
         "P. Giannozzi et al., J. Phys.:Condens. Matter 21 395502 (2009);
         "P. Giannozzi et al., J. Phys.:Condens. Matter 29 465901 (2017);
          URL http://www.quantum-espresso.org", 
     in publications or presentations arising from this work. More details at
     http://www.quantum-espresso.org/quote

     Parallel version (MPI), running on     1 processors

     MPI processes distributed on     1 nodes
     Reading input from h2-ensemble.in
Warning: card &CELL ignored
Warning: card / ignored

     Current dimensions of program PWSCF are:
     Max number of different atomic species (ntypx) = 10
     Max number of k-points (npk) =  40000
     Max angular momentum in pseudopotentials (lmaxx) =  3
     file Pt.pbe-n-kjpaw_psl.1.0.0.UPF: wavefunction(s)  6S 5D renormalized
     file H.pbe-kjpaw_psl.1.0.0.UPF: wavefunction(s)  1S renormalized

     **************************************************************************
     Initializing libbeef V0.1.2 with the BEEF-vdW functional.
     Citation: Wellendorff et al., PRB 85, 235149 (2012).
     **************************************************************************


     IMPORTANT: XC functional enforced from input :
     Exchange-correlation= BEEF-VDW
                           (   1   4  43  14   2   0   0)
     Any further DFT definition will be discarded
     Please, verify this is what you really want


     Subspace diagonalization in iterative solution of the eigenvalue problem:
     a serial algorithm will be used

 
     G-vector sticks info
     --------------------
     sticks:   dense  smooth     PW     G-vecs:    dense   smooth      PW
     Sum        4267    4267   1159               728075   728075  102643
 


     bravais-lattice index     =            0
     lattice parameter (alat)  =      16.0349  a.u.
     unit-cell volume          =   11589.6920 (a.u.)^3
     number of atoms/cell      =           38
     number of atomic types    =            2
     number of electrons       =       362.00
     number of Kohn-Sham states=          217
     kinetic-energy cutoff     =      60.0000  Ry
     charge density cutoff     =     240.0000  Ry
     scf convergence threshold =      1.0E-06
     mixing beta               =       0.7000
     number of iterations used =            8  local-TF  mixing
     Exchange-correlation= BEEF-VDW
                           (   1   4  43  14   2   0   0)

     celldm(1)=  16.034858  celldm(2)=   0.000000  celldm(3)=   0.000000
     celldm(4)=   0.000000  celldm(5)=   0.000000  celldm(6)=   0.000000

     crystal axes: (cart. coord. in units of alat)
               a(1) = (   1.000000   0.000000   0.000000 )  
               a(2) = (   0.500000   0.866025   0.000000 )  
               a(3) = (   0.000000   0.000000   3.245981 )  

     reciprocal axes: (cart. coord. in units 2 pi/alat)
               b(1) = (  1.000000 -0.577350  0.000000 )  
               b(2) = (  0.000000  1.154701  0.000000 )  
               b(3) = (  0.000000  0.000000  0.308073 )  


     PseudoPot. # 1 for Pt read from file:
     /users/bkreitz1/quantum-espresso/potentials/Pt.pbe-n-kjpaw_psl.1.0.0.UPF
     MD5 check sum: 04dc8a03c51ece93fc7b5889c2958091
     Pseudo is Projector augmented-wave + core cor, Zval = 10.0
     Generated using 'atomic' code by A. Dal Corso  v.6.7MaX
     Shape of augmentation charge: PSQ
     Using radial grid of 1277 points,  6 beta functions with: 
                l(1) =   0
                l(2) =   0
                l(3) =   1
                l(4) =   1
                l(5) =   2
                l(6) =   2
     Q(r) pseudized with 0 coefficients 


     PseudoPot. # 2 for H  read from file:
     /users/bkreitz1/quantum-espresso/potentials/H.pbe-kjpaw_psl.1.0.0.UPF
     MD5 check sum: ae98473e6dc62675f0d0baffdab24f65
     Pseudo is Projector augmented-wave, Zval =  1.0
     Generated using 'atomic' code by A. Dal Corso  v.6.7MaX
     Shape of augmentation charge: PSQ
     Using radial grid of  929 points,  2 beta functions with: 
                l(1) =   0
                l(2) =   0
     Q(r) pseudized with 0 coefficients 


     atomic species   valence    mass     pseudopotential
        Pt            10.00   195.08400     Pt( 1.00)
        H              1.00     1.00800     H ( 1.00)

     No symmetry found



   Cartesian axes

     site n.     atom                  positions (alat units)
         1           Pt  tau(   1) = (   0.0000000   0.0000000   1.0017346  )
         2           Pt  tau(   2) = (   0.3333333   0.0000000   1.0017346  )
         3           Pt  tau(   3) = (   0.6666667   0.0000000   1.0017346  )
         4           Pt  tau(   4) = (   0.1666667   0.2886751   1.0017346  )
         5           Pt  tau(   5) = (   0.5000000   0.2886751   1.0017346  )
         6           Pt  tau(   6) = (   0.8333333   0.2886751   1.0017346  )
         7           Pt  tau(   7) = (   0.3333333   0.5773503   1.0017346  )
         8           Pt  tau(   8) = (   0.6666667   0.5773503   1.0017346  )
         9           Pt  tau(   9) = (   1.0000000   0.5773503   1.0017346  )
        10           Pt  tau(  10) = (   0.1666667   0.0962250   1.2739001  )
        11           Pt  tau(  11) = (   0.5000000   0.0962250   1.2739001  )
        12           Pt  tau(  12) = (   0.8333333   0.0962250   1.2739001  )
        13           Pt  tau(  13) = (   0.3333333   0.3849002   1.2739001  )
        14           Pt  tau(  14) = (   0.6666667   0.3849002   1.2739001  )
        15           Pt  tau(  15) = (   1.0000000   0.3849002   1.2739001  )
        16           Pt  tau(  16) = (   0.5000000   0.6735753   1.2739001  )
        17           Pt  tau(  17) = (   0.8333333   0.6735753   1.2739001  )
        18           Pt  tau(  18) = (   1.1666667   0.6735753   1.2739001  )
        19           Pt  tau(  19) = (  -0.0000116   0.1924649   1.5424852  )
        20           Pt  tau(  20) = (   0.3333270   0.1924559   1.5425204  )
        21           Pt  tau(  21) = (   0.6666851   0.1924653   1.5425043  )
        22           Pt  tau(  22) = (   0.1666442   0.4811291   1.5424881  )
        23           Pt  tau(  23) = (   0.5000160   0.4811332   1.5425034  )
        24           Pt  tau(  24) = (   0.8333387   0.4811266   1.5424653  )
        25           Pt  tau(  25) = (   0.3333350   0.7697962   1.5424985  )
        26           Pt  tau(  26) = (   0.6666671   0.7697799   1.5424955  )
        27           Pt  tau(  27) = (   0.9999972   0.7697722   1.5424983  )
        28           Pt  tau(  28) = (  -0.0000014  -0.0000045   1.8162637  )
        29           Pt  tau(  29) = (   0.3333296  -0.0000193   1.8163104  )
        30           Pt  tau(  30) = (   0.6666707  -0.0000036   1.8163045  )
        31           Pt  tau(  31) = (   0.1666566   0.2886856   1.8163051  )
        32           Pt  tau(  32) = (   0.5000128   0.2886928   1.8163108  )
        33           Pt  tau(  33) = (   0.8333303   0.2886876   1.8162941  )
        34           Pt  tau(  34) = (   0.3333394   0.5773513   1.8162965  )
        35           Pt  tau(  35) = (   0.6666720   0.5773377   1.8162962  )
        36           Pt  tau(  36) = (   0.9999910   0.5773388   1.8162895  )
        37           H   tau(  37) = (   1.4668125   0.8348623   2.2442075  )
        38           H   tau(  38) = (   0.0295977   0.0288616   2.2443963  )

     number of k points=    13  Marzari-Vanderbilt smearing, width (Ry)=  0.0200
                       cart. coord. in units 2pi/alat
        k(    1) = (   0.0000000   0.0000000   0.0000000), wk =   0.0800000
        k(    2) = (   0.0000000   0.2309401   0.0000000), wk =   0.1600000
        k(    3) = (   0.0000000   0.4618802   0.0000000), wk =   0.1600000
        k(    4) = (   0.2000000  -0.1154701   0.0000000), wk =   0.1600000
        k(    5) = (   0.2000000   0.1154701   0.0000000), wk =   0.1600000
        k(    6) = (   0.2000000   0.3464102   0.0000000), wk =   0.1600000
        k(    7) = (   0.2000000  -0.5773503   0.0000000), wk =   0.1600000
        k(    8) = (   0.2000000  -0.3464102   0.0000000), wk =   0.1600000
        k(    9) = (   0.4000000  -0.2309401   0.0000000), wk =   0.1600000
        k(   10) = (   0.4000000  -0.0000000   0.0000000), wk =   0.1600000
        k(   11) = (   0.4000000   0.2309401   0.0000000), wk =   0.1600000
        k(   12) = (   0.4000000  -0.6928203   0.0000000), wk =   0.1600000
        k(   13) = (   0.4000000  -0.4618802   0.0000000), wk =   0.1600000

     Dense  grid:   728075 G-vectors     FFT dimensions: (  80,  80, 270)

     Estimated max dynamical RAM per process >       8.61 GB

     Initial potential from superposition of free atoms

     starting charge  361.99387, renormalised to  362.00000

     negative rho (up, down):  1.161E-02 0.000E+00


     %%%%%%%%%%%%%%%%%%%%%%%%%%%%%%%%%%%%%%%%%%%%%%%%%%%%%%%%%%%%%%%%%%%%%%%%
     %                                                                      %
     % You are using vdW-DF, which was implemented by the Thonhauser group. %
     % Please cite the following two papers that made this development      %
     % possible and the two reviews that describe the various versions:     %
     %                                                                      %
     %   T. Thonhauser et al., PRL 115, 136402 (2015).                      %
     %   T. Thonhauser et al., PRB 76, 125112 (2007).                       %
     %   K. Berland et al., Rep. Prog. Phys. 78, 066501 (2015).             %
     %   D.C. Langreth et al., J. Phys.: Condens. Matter 21, 084203 (2009). %
     %                                                                      %
     %                                                                      %
     % If you are calculating the stress with vdW-DF, please also cite:     %
     %                                                                      %
     %   R. Sabatini et al., J. Phys.: Condens. Matter 24, 424209 (2012).   %
     %                                                                      %
     %%%%%%%%%%%%%%%%%%%%%%%%%%%%%%%%%%%%%%%%%%%%%%%%%%%%%%%%%%%%%%%%%%%%%%%%


     Starting wfcs are  326 randomized atomic wfcs
     Checking if some PAW data can be deallocated... 

     total cpu time spent up to now is      339.1 secs

     Self-consistent Calculation

     iteration #  1     ecut=    60.00 Ry     beta= 0.70
     Davidson diagonalization with overlap
     ethr =  1.00E-02,  avg # of iterations =  2.0

     Threshold (ethr) on eigenvalues was too large:
     Diagonalizing with lowered threshold

     Davidson diagonalization with overlap
     ethr =  3.98E-04,  avg # of iterations =  4.1

     negative rho (up, down):  1.302E-02 0.000E+00

     total cpu time spent up to now is     1808.5 secs

     total energy              =  -27756.51935067 Ry
     estimated scf accuracy    <       1.63089827 Ry

     iteration #  2     ecut=    60.00 Ry     beta= 0.70
     Davidson diagonalization with overlap
     ethr =  4.51E-04,  avg # of iterations =  2.0

     negative rho (up, down):  1.180E-02 0.000E+00

     total cpu time spent up to now is     2405.9 secs

     total energy              =  -27756.60716315 Ry
     estimated scf accuracy    <       0.88633844 Ry

     iteration #  3     ecut=    60.00 Ry     beta= 0.70
     Davidson diagonalization with overlap
     ethr =  2.45E-04,  avg # of iterations =  2.0

     negative rho (up, down):  9.098E-03 0.000E+00

     total cpu time spent up to now is     3006.6 secs

     total energy              =  -27756.64653282 Ry
     estimated scf accuracy    <       0.10912907 Ry

     iteration #  4     ecut=    60.00 Ry     beta= 0.70
     Davidson diagonalization with overlap
     c_bands:  2 eigenvalues not converged
     ethr =  3.01E-05,  avg # of iterations = 10.6

     negative rho (up, down):  7.951E-03 0.000E+00

     total cpu time spent up to now is     4110.5 secs

     total energy              =  -27756.69618335 Ry
     estimated scf accuracy    <       0.05933184 Ry

     iteration #  5     ecut=    60.00 Ry     beta= 0.70
     Davidson diagonalization with overlap
     ethr =  1.64E-05,  avg # of iterations =  2.5

     negative rho (up, down):  7.262E-03 0.000E+00

     total cpu time spent up to now is     4714.9 secs

     total energy              =  -27756.69751138 Ry
     estimated scf accuracy    <       0.03309196 Ry

     iteration #  6     ecut=    60.00 Ry     beta= 0.70
     Davidson diagonalization with overlap
     ethr =  9.14E-06,  avg # of iterations =  4.2

     negative rho (up, down):  7.827E-03 0.000E+00

     total cpu time spent up to now is     5323.9 secs

     total energy              =  -27756.69867035 Ry
     estimated scf accuracy    <       0.00501474 Ry

     iteration #  7     ecut=    60.00 Ry     beta= 0.70
     Davidson diagonalization with overlap
     c_bands:  1 eigenvalues not converged
     c_bands:  1 eigenvalues not converged
     c_bands:  1 eigenvalues not converged
     c_bands:  1 eigenvalues not converged
     c_bands:  1 eigenvalues not converged
     ethr =  1.39E-06,  avg # of iterations = 12.6

     negative rho (up, down):  8.396E-03 0.000E+00

     total cpu time spent up to now is     6153.6 secs

     total energy              =  -27756.69954756 Ry
     estimated scf accuracy    <       0.00464075 Ry

     iteration #  8     ecut=    60.00 Ry     beta= 0.70
     Davidson diagonalization with overlap
     ethr =  1.28E-06,  avg # of iterations =  2.7

     negative rho (up, down):  1.061E-02 0.000E+00

     total cpu time spent up to now is     6749.1 secs

     total energy              =  -27756.69958313 Ry
     estimated scf accuracy    <       0.00163236 Ry

     iteration #  9     ecut=    60.00 Ry     beta= 0.70
     Davidson diagonalization with overlap
     ethr =  4.51E-07,  avg # of iterations =  3.5

     negative rho (up, down):  1.305E-02 0.000E+00

     total cpu time spent up to now is     7370.3 secs

     total energy              =  -27756.69958250 Ry
     estimated scf accuracy    <       0.00075690 Ry

     iteration # 10     ecut=    60.00 Ry     beta= 0.70
     Davidson diagonalization with overlap
     ethr =  2.09E-07,  avg # of iterations =  2.5

     negative rho (up, down):  1.382E-02 0.000E+00

     total cpu time spent up to now is     7977.6 secs

     total energy              =  -27756.69962113 Ry
     estimated scf accuracy    <       0.00026103 Ry

     iteration # 11     ecut=    60.00 Ry     beta= 0.70
     Davidson diagonalization with overlap
     ethr =  7.21E-08,  avg # of iterations =  4.0

     negative rho (up, down):  1.394E-02 0.000E+00

     total cpu time spent up to now is     8684.2 secs

     total energy              =  -27756.69966584 Ry
     estimated scf accuracy    <       0.00020328 Ry

     iteration # 12     ecut=    60.00 Ry     beta= 0.70
     Davidson diagonalization with overlap
     ethr =  5.62E-08,  avg # of iterations =  2.0

     negative rho (up, down):  1.385E-02 0.000E+00

     total cpu time spent up to now is     9270.1 secs

     total energy              =  -27756.69966594 Ry
     estimated scf accuracy    <       0.00011000 Ry

     iteration # 13     ecut=    60.00 Ry     beta= 0.70
     Davidson diagonalization with overlap
     ethr =  3.04E-08,  avg # of iterations =  2.0

     negative rho (up, down):  1.404E-02 0.000E+00

     total cpu time spent up to now is     9870.9 secs

     total energy              =  -27756.69966950 Ry
     estimated scf accuracy    <       0.00002960 Ry

     iteration # 14     ecut=    60.00 Ry     beta= 0.70
     Davidson diagonalization with overlap
     ethr =  8.18E-09,  avg # of iterations =  4.1

     negative rho (up, down):  1.369E-02 0.000E+00

     total cpu time spent up to now is    10601.5 secs

     total energy              =  -27756.69967618 Ry
     estimated scf accuracy    <       0.00000801 Ry

     iteration # 15     ecut=    60.00 Ry     beta= 0.70
     Davidson diagonalization with overlap
     ethr =  2.21E-09,  avg # of iterations =  4.4

     negative rho (up, down):  1.355E-02 0.000E+00

     total cpu time spent up to now is    11325.7 secs

     total energy              =  -27756.69967762 Ry
     estimated scf accuracy    <       0.00000475 Ry

     iteration # 16     ecut=    60.00 Ry     beta= 0.70
     Davidson diagonalization with overlap
     ethr =  1.31E-09,  avg # of iterations =  2.0

     negative rho (up, down):  1.324E-02 0.000E+00

     total cpu time spent up to now is    11925.7 secs

     total energy              =  -27756.69967785 Ry
     estimated scf accuracy    <       0.00000330 Ry

     iteration # 17     ecut=    60.00 Ry     beta= 0.70
     Davidson diagonalization with overlap
     ethr =  9.12E-10,  avg # of iterations =  2.0

     negative rho (up, down):  1.309E-02 0.000E+00

     total cpu time spent up to now is    12519.9 secs

     total energy              =  -27756.69967807 Ry
     estimated scf accuracy    <       0.00000163 Ry

     iteration # 18     ecut=    60.00 Ry     beta= 0.70
     Davidson diagonalization with overlap
     ethr =  4.51E-10,  avg # of iterations =  2.0

     negative rho (up, down):  1.300E-02 0.000E+00

     total cpu time spent up to now is    13128.5 secs

     total energy              =  -27756.69967812 Ry
     estimated scf accuracy    <       0.00000102 Ry

     iteration # 19     ecut=    60.00 Ry     beta= 0.70
     Davidson diagonalization with overlap
     ethr =  2.80E-10,  avg # of iterations =  2.0

     negative rho (up, down):  1.251E-02 0.000E+00

     total cpu time spent up to now is    13702.1 secs

     End of self-consistent calculation

          k = 0.0000 0.0000 0.0000 ( 91005 PWs)   bands (ev):

    -7.3980  -6.0853  -5.0078  -4.9759  -4.9758  -4.9757  -4.9755  -4.9754
    -4.9753  -4.9615  -4.4173  -4.4171  -4.4170  -4.4169  -4.4168  -4.4168
    -3.9429  -3.9423  -3.9422  -3.9420  -3.9419  -3.9419  -3.7312  -3.7260
    -3.7260  -3.7258  -3.7257  -3.7256  -3.5927  -3.5006  -3.5006  -3.4948
    -3.4948  -3.4776  -3.4776  -3.4774  -3.4774  -3.4773  -3.4756  -3.4637
    -3.4635  -2.8815  -2.8815  -2.8516  -2.8516  -2.7925  -2.7923  -2.7922
    -2.7921  -2.7921  -2.7916  -2.6550  -2.6550  -2.5538  -2.5536  -2.0431
    -2.0430  -2.0428  -2.0427  -2.0427  -2.0423  -1.9778  -1.8907  -1.8907
    -1.8580  -1.8580  -1.8462  -1.8462  -1.8286  -1.8248  -1.8248  -1.8248
    -1.8246  -1.8245  -1.8240  -1.7893  -1.7893  -1.6287  -1.6285  -1.6285
    -1.6284  -1.6283  -1.6280  -1.4780  -1.4779  -1.4779  -1.4775  -1.4774
    -1.4773  -1.3774  -1.3774  -1.2790  -1.2790  -1.2140  -1.2140  -1.2033
    -1.2030  -1.1673  -1.1672  -1.1535  -1.1532  -1.0020  -1.0017  -1.0014
    -1.0012  -1.0011  -1.0002  -0.9910  -0.5097  -0.5096  -0.5093  -0.5092
    -0.5091  -0.5091  -0.4327  -0.4323  -0.4318  -0.4317  -0.4316  -0.4312
    -0.3608  -0.3607  -0.1868  -0.1862  -0.1858  -0.1856  -0.1856  -0.1841
    -0.0439  -0.0438  -0.0422  -0.0422  -0.0333  -0.0333   0.2224   0.2226
     0.2227   0.2227   0.2228   0.2230   0.3022   0.3022   0.4861   0.4862
     0.4863   0.4864   0.4865   0.4872   0.6563   0.6564   0.6564   0.6565
     0.6566   0.6566   0.7033   0.7039   0.7041   0.7042   0.7043   0.7069
     0.8343   0.8345   0.8542   0.8542   0.8545   0.8546   0.8547   0.8549
     0.9606   0.9606   0.9608   0.9609   0.9610   0.9611   0.9669   0.9669
     1.0640   1.0640   1.0641   1.0642   1.0642   1.0644   1.1683   1.1685
     1.1746   1.1746   1.1764   1.1764   1.2594   1.3932   1.3932   1.5020
     1.5020   1.5022   1.5022   1.5023   1.5023   2.3541   2.3937   2.3958
     2.3962   2.3967   2.3971   2.4079   4.7190   4.7269   4.7295   4.7305
     4.7317   4.7466   6.2572   6.2583   6.3140   6.3143   6.3148   6.3151
     6.3967

          k = 0.0000 0.2309 0.0000 ( 90912 PWs)   bands (ev):

    -7.2510  -5.9403  -5.4915  -5.0918  -5.0918  -4.8603  -4.8255  -4.7851
    -4.7413  -4.7413  -4.5318  -4.5128  -4.3561  -4.3561  -4.3356  -4.3354
    -4.0593  -3.9242  -3.9241  -3.8943  -3.8846  -3.8260  -3.8255  -3.7564
    -3.7563  -3.7552  -3.7542  -3.6665  -3.6491  -3.6488  -3.6007  -3.5251
    -3.5249  -3.5184  -3.4630  -3.4623  -3.3080  -3.3080  -3.2713  -3.2711
    -3.2439  -3.0065  -3.0065  -2.9632  -2.9195  -2.9194  -2.8737  -2.8736
    -2.6968  -2.6966  -2.6290  -2.6289  -2.5840  -2.5506  -2.5505  -2.3467
    -2.2499  -2.2499  -2.1627  -2.1625  -2.1226  -2.0845  -2.0456  -2.0452
    -2.0274  -2.0036  -2.0036  -1.9594  -1.8837  -1.8685  -1.8535  -1.8535
    -1.7856  -1.7611  -1.7610  -1.7095  -1.6933  -1.6932  -1.6247  -1.5950
    -1.5716  -1.5709  -1.5709  -1.4783  -1.4781  -1.4685  -1.4684  -1.4543
    -1.3773  -1.3772  -1.3608  -1.3545  -1.2885  -1.2852  -1.2826  -1.2302
    -1.2301  -1.1922  -1.1921  -1.1784  -1.0829  -1.0064  -1.0017  -1.0013
    -0.9957  -0.9946  -0.9628  -0.9613  -0.9612  -0.9052  -0.9042  -0.8775
    -0.8774  -0.6764  -0.5977  -0.5386  -0.4889  -0.4888  -0.4764  -0.4764
    -0.4518  -0.4516  -0.2915  -0.2764  -0.2763  -0.1752  -0.1313  -0.1308
    -0.1226  -0.1111  -0.0087  -0.0087   0.0042   0.0044   0.0862   0.0973
     0.0973   0.1285   0.1285   0.3172   0.3361   0.3531   0.3531   0.3557
     0.3772   0.3899   0.4755   0.4771   0.5035   0.5308   0.5451   0.5972
     0.5973   0.5980   0.5980   0.7141   0.7146   0.7441   0.7442   0.8361
     0.8908   0.8911   0.9000   0.9002   0.9224   0.9625   0.9631   1.0301
     1.0302   1.0900   1.0902   1.0966   1.1462   1.1463   1.1464   1.1511
     1.1512   1.1585   1.2273   1.2273   1.3879   1.3880   1.4002   1.4151
     1.4257   1.4258   1.4643   1.5040   1.5041   1.5206   1.6195   1.6196
     1.6443   1.8029   1.8074   1.8074   1.8428   1.8794   2.2645   2.2686
     2.9835   2.9854   3.0231   3.1397   3.9983   4.4520   4.4637   5.1251
     5.1252   5.2878   5.2938   5.5603   6.1083   6.1097   6.2882   6.4928
     6.5086

          k = 0.0000 0.4619 0.0000 ( 90982 PWs)   bands (ev):

    -6.8278  -6.1926  -5.5338  -5.1258  -5.1257  -4.9784  -4.7589  -4.6042
    -4.4721  -4.4329  -4.4001  -4.4000  -4.2154  -4.2148  -4.1852  -4.1763
    -4.1763  -4.0516  -4.0182  -4.0182  -3.9658  -3.9658  -3.9001  -3.8741
    -3.8279  -3.8279  -3.7899  -3.5978  -3.5542  -3.5541  -3.5356  -3.5351
    -3.5348  -3.5324  -3.3093  -3.3085  -3.2474  -3.2471  -3.2375  -3.2374
    -3.0558  -2.9519  -2.9517  -2.9425  -2.9425  -2.8756  -2.8755  -2.8276
    -2.8117  -2.8114  -2.7312  -2.7311  -2.6034  -2.6034  -2.5496  -2.5495
    -2.4553  -2.4181  -2.3727  -2.3726  -2.3716  -2.2310  -2.1540  -2.1411
    -2.1288  -2.1284  -2.0393  -2.0392  -2.0163  -1.9042  -1.9042  -1.8816
    -1.8813  -1.7600  -1.7599  -1.7588  -1.7585  -1.7544  -1.6796  -1.6641
    -1.6640  -1.6615  -1.6309  -1.6303  -1.6300  -1.6132  -1.5719  -1.5090
    -1.4873  -1.4872  -1.4806  -1.4363  -1.4362  -1.4060  -1.3358  -1.2662
    -1.2309  -1.2307  -1.1894  -1.1890  -1.1566  -1.1495  -1.1493  -1.0211
    -1.0181  -1.0008  -0.9378  -0.9375  -0.8897  -0.7512  -0.7510  -0.7206
    -0.6701  -0.5806  -0.5806  -0.5691  -0.5491  -0.5489  -0.5435  -0.5434
    -0.4531  -0.4472  -0.4158  -0.4157  -0.3916  -0.3914  -0.3717  -0.3706
    -0.3250  -0.3147  -0.2106  -0.1739  -0.1738  -0.1048  -0.0469  -0.0134
    -0.0133   0.1266   0.1266   0.1850   0.2331   0.2918   0.2919   0.3216
     0.3428   0.3817   0.3818   0.4390   0.4397   0.4889   0.4890   0.5532
     0.5967   0.5967   0.6516   0.6517   0.6637   0.6637   0.7473   0.8481
     0.8499   0.9334   0.9461   0.9463   0.9524   1.0322   1.0539   1.0540
     1.1519   1.1522   1.1594   1.1595   1.2295   1.2522   1.2522   1.2634
     1.3858   1.3858   1.4101   1.4101   1.4180   1.4188   1.4335   1.4405
     1.6109   1.6541   1.6542   1.6615   1.6616   1.8511   1.8866   2.2725
     2.2767   2.3335   2.5769   2.7008   2.7008   3.1038   3.1041   3.2995
     3.4391   3.9130   3.9131   3.9426   4.0975   4.1938   4.1956   4.3468
     4.3608   4.5874   4.5878   5.2177   5.2318   5.7538   5.7554   6.2438
     6.2490

          k = 0.2000-0.1155 0.0000 ( 90912 PWs)   bands (ev):

    -7.2510  -5.9403  -5.4915  -5.0918  -5.0918  -4.8603  -4.8255  -4.7851
    -4.7413  -4.7413  -4.5318  -4.5128  -4.3561  -4.3561  -4.3356  -4.3353
    -4.0593  -3.9242  -3.9241  -3.8943  -3.8846  -3.8259  -3.8255  -3.7564
    -3.7563  -3.7552  -3.7542  -3.6666  -3.6491  -3.6488  -3.6006  -3.5251
    -3.5249  -3.5184  -3.4630  -3.4623  -3.3080  -3.3080  -3.2713  -3.2711
    -3.2439  -3.0065  -3.0065  -2.9632  -2.9195  -2.9194  -2.8737  -2.8736
    -2.6969  -2.6966  -2.6290  -2.6289  -2.5840  -2.5506  -2.5505  -2.3467
    -2.2499  -2.2499  -2.1627  -2.1625  -2.1226  -2.0845  -2.0457  -2.0452
    -2.0274  -2.0036  -2.0036  -1.9594  -1.8837  -1.8685  -1.8535  -1.8535
    -1.7856  -1.7611  -1.7610  -1.7095  -1.6933  -1.6932  -1.6247  -1.5950
    -1.5716  -1.5709  -1.5709  -1.4784  -1.4781  -1.4685  -1.4684  -1.4543
    -1.3773  -1.3772  -1.3608  -1.3545  -1.2885  -1.2852  -1.2826  -1.2302
    -1.2301  -1.1922  -1.1921  -1.1784  -1.0828  -1.0064  -1.0017  -1.0012
    -0.9958  -0.9946  -0.9627  -0.9613  -0.9612  -0.9053  -0.9042  -0.8775
    -0.8774  -0.6764  -0.5977  -0.5386  -0.4889  -0.4889  -0.4764  -0.4764
    -0.4517  -0.4516  -0.2915  -0.2765  -0.2762  -0.1752  -0.1314  -0.1308
    -0.1226  -0.1111  -0.0087  -0.0087   0.0041   0.0045   0.0862   0.0973
     0.0973   0.1285   0.1285   0.3172   0.3361   0.3531   0.3531   0.3557
     0.3772   0.3899   0.4754   0.4771   0.5034   0.5308   0.5451   0.5972
     0.5973   0.5980   0.5980   0.7141   0.7146   0.7441   0.7442   0.8362
     0.8908   0.8911   0.9000   0.9001   0.9224   0.9625   0.9631   1.0301
     1.0302   1.0900   1.0902   1.0966   1.1462   1.1463   1.1463   1.1511
     1.1512   1.1585   1.2273   1.2273   1.3879   1.3880   1.4002   1.4151
     1.4257   1.4258   1.4643   1.5040   1.5041   1.5206   1.6195   1.6196
     1.6443   1.8029   1.8074   1.8075   1.8429   1.8794   2.2641   2.2687
     2.9832   2.9855   3.0234   3.1399   3.9990   4.4505   4.4639   5.1251
     5.1252   5.2866   5.2945   5.5614   6.1089   6.1095   6.3132   6.4931
     6.5088

          k = 0.2000 0.1155 0.0000 ( 90912 PWs)   bands (ev):

    -7.2510  -5.9403  -5.4915  -5.0918  -5.0918  -4.8603  -4.8255  -4.7851
    -4.7413  -4.7413  -4.5318  -4.5127  -4.3561  -4.3561  -4.3356  -4.3354
    -4.0593  -3.9242  -3.9241  -3.8943  -3.8846  -3.8260  -3.8255  -3.7564
    -3.7563  -3.7553  -3.7542  -3.6664  -3.6491  -3.6488  -3.6007  -3.5251
    -3.5249  -3.5184  -3.4630  -3.4623  -3.3080  -3.3080  -3.2713  -3.2711
    -3.2439  -3.0065  -3.0065  -2.9632  -2.9195  -2.9195  -2.8737  -2.8736
    -2.6968  -2.6966  -2.6290  -2.6289  -2.5840  -2.5506  -2.5505  -2.3467
    -2.2499  -2.2499  -2.1626  -2.1625  -2.1226  -2.0845  -2.0456  -2.0452
    -2.0274  -2.0036  -2.0036  -1.9594  -1.8837  -1.8685  -1.8535  -1.8535
    -1.7856  -1.7611  -1.7610  -1.7095  -1.6933  -1.6932  -1.6247  -1.5950
    -1.5716  -1.5709  -1.5709  -1.4783  -1.4781  -1.4685  -1.4684  -1.4543
    -1.3773  -1.3772  -1.3608  -1.3545  -1.2885  -1.2852  -1.2826  -1.2302
    -1.2301  -1.1922  -1.1921  -1.1784  -1.0829  -1.0065  -1.0016  -1.0013
    -0.9956  -0.9947  -0.9628  -0.9613  -0.9612  -0.9051  -0.9043  -0.8775
    -0.8774  -0.6764  -0.5977  -0.5386  -0.4889  -0.4888  -0.4764  -0.4764
    -0.4518  -0.4516  -0.2915  -0.2764  -0.2763  -0.1752  -0.1313  -0.1309
    -0.1227  -0.1111  -0.0087  -0.0087   0.0043   0.0043   0.0862   0.0973
     0.0974   0.1284   0.1285   0.3172   0.3361   0.3531   0.3532   0.3557
     0.3771   0.3899   0.4757   0.4770   0.5035   0.5308   0.5450   0.5972
     0.5973   0.5980   0.5980   0.7142   0.7145   0.7440   0.7442   0.8360
     0.8909   0.8910   0.9000   0.9002   0.9224   0.9624   0.9631   1.0300
     1.0302   1.0900   1.0902   1.0966   1.1462   1.1462   1.1463   1.1511
     1.1512   1.1585   1.2273   1.2273   1.3879   1.3880   1.4002   1.4151
     1.4257   1.4258   1.4643   1.5040   1.5041   1.5206   1.6195   1.6196
     1.6443   1.8029   1.8074   1.8074   1.8426   1.8793   2.2649   2.2685
     2.9839   2.9852   3.0229   3.1395   3.9975   4.4539   4.4633   5.1251
     5.1253   5.2895   5.2924   5.5592   6.1073   6.1099   6.2628   6.4934
     6.5086

          k = 0.2000 0.3464 0.0000 ( 90938 PWs)   bands (ev):

    -6.9652  -5.7392  -5.7389  -5.6630  -4.6624  -4.6623  -4.6286  -4.6280
    -4.5884  -4.5881  -4.5825  -4.5657  -4.4722  -4.4720  -4.0828  -4.0826
    -4.0801  -4.0800  -4.0156  -3.9936  -3.8519  -3.8233  -3.8223  -3.7927
    -3.7924  -3.7304  -3.6740  -3.6733  -3.6315  -3.6292  -3.6014  -3.5918
    -3.5416  -3.5345  -3.4996  -3.4975  -3.4251  -3.1515  -3.0478  -3.0475
    -3.0370  -3.0136  -3.0134  -2.9956  -2.9955  -2.9418  -2.9241  -2.7627
    -2.7625  -2.7526  -2.6770  -2.6501  -2.5997  -2.5992  -2.5754  -2.4946
    -2.4945  -2.3207  -2.3204  -2.3036  -2.2176  -2.2175  -2.1875  -2.1872
    -2.1799  -2.1077  -2.1075  -1.9545  -1.9307  -1.9306  -1.9247  -1.8613
    -1.8611  -1.7944  -1.7943  -1.7914  -1.7912  -1.6634  -1.6251  -1.6249
    -1.6153  -1.6150  -1.6084  -1.5928  -1.5654  -1.5460  -1.4713  -1.4710
    -1.4436  -1.4351  -1.3783  -1.3781  -1.3112  -1.2904  -1.2495  -1.2493
    -1.2422  -1.1963  -1.1963  -1.1910  -1.1725  -1.1721  -1.1472  -1.1357
    -1.1348  -1.0736  -1.0710  -0.9717  -0.9273  -0.9264  -0.8537  -0.8534
    -0.8486  -0.8484  -0.6677  -0.6675  -0.5220  -0.5035  -0.4640  -0.4618
    -0.4609  -0.4355  -0.4354  -0.3860  -0.3857  -0.3549  -0.3542  -0.2942
    -0.2674  -0.1521  -0.0733  -0.0729  -0.0227  -0.0225  -0.0203   0.0344
     0.0479   0.1744   0.1752   0.1794   0.2331   0.2333   0.3126   0.3689
     0.3703   0.3944   0.3948   0.4683   0.4755   0.4758   0.4911   0.4916
     0.5146   0.5168   0.5170   0.5294   0.6558   0.7312   0.7313   0.8701
     0.8705   0.8919   1.0390   1.0396   1.0405   1.0406   1.1472   1.1780
     1.1797   1.1897   1.1897   1.2293   1.2294   1.2556   1.2605   1.2606
     1.3218   1.3222   1.3405   1.4094   1.4358   1.4360   1.4716   1.4716
     1.5163   1.6507   1.7035   1.7035   1.7877   1.7878   1.7927   1.7960
     1.9401   1.9405   2.3870   2.4677   2.4680   3.0067   3.0071   3.0452
     3.0477   3.7406   3.7449   3.8051   3.9240   3.9858   3.9869   4.6376
     5.1130   5.1892   5.1952   5.3574   5.8379   5.9101   5.9255   5.9492
     5.9748

          k = 0.2000-0.5774 0.0000 ( 90978 PWs)   bands (ev):

    -6.4301  -6.4296  -5.8221  -5.1680  -5.1675  -4.6586  -4.6527  -4.5235
    -4.4900  -4.3801  -4.3800  -4.2723  -4.2721  -4.1460  -4.1453  -4.1448
    -4.1078  -4.1077  -4.0738  -4.0723  -3.9495  -3.9385  -3.9384  -3.8953
    -3.8951  -3.7917  -3.6989  -3.6823  -3.6252  -3.5849  -3.5226  -3.5223
    -3.5038  -3.5034  -3.4882  -3.3736  -3.3731  -3.2804  -3.2802  -3.1060
    -3.0981  -3.0379  -2.9370  -2.9370  -2.8860  -2.8856  -2.7772  -2.7281
    -2.6785  -2.6783  -2.6575  -2.6130  -2.6126  -2.5818  -2.4762  -2.4760
    -2.4461  -2.4458  -2.4366  -2.4364  -2.4357  -2.3626  -2.3625  -2.2311
    -2.2072  -2.1585  -2.1583  -2.0404  -2.0006  -2.0003  -2.0001  -1.9548
    -1.9104  -1.9103  -1.8217  -1.7969  -1.7966  -1.7909  -1.7578  -1.7256
    -1.6767  -1.6765  -1.6370  -1.5780  -1.5776  -1.5569  -1.5564  -1.4475
    -1.4003  -1.4001  -1.3524  -1.3522  -1.3114  -1.3114  -1.2921  -1.2918
    -1.2622  -1.2621  -1.2106  -1.2105  -1.1786  -1.1630  -1.1628  -1.1611
    -1.1606  -1.1401  -1.1098  -1.0437  -1.0405  -1.0402  -0.8329  -0.8244
    -0.7312  -0.7309  -0.6240  -0.6113  -0.6110  -0.5822  -0.5243  -0.5187
    -0.5186  -0.4954  -0.4943  -0.4104  -0.3762  -0.3759  -0.3079  -0.2864
    -0.2835  -0.2241  -0.2220  -0.1719  -0.0310   0.0347   0.0351   0.0559
     0.0561   0.1489   0.1557   0.1560   0.1776   0.1916   0.1944   0.2347
     0.2350   0.3536   0.3541   0.3643   0.4221   0.4224   0.4427   0.4524
     0.4665   0.4680   0.6295   0.6801   0.7048   0.7873   0.7886   0.8712
     0.8712   0.9568   0.9990   1.0054   1.0055   1.1127   1.1132   1.1849
     1.2165   1.2249   1.2364   1.2365   1.2810   1.2825   1.3160   1.3934
     1.3934   1.4176   1.4464   1.4465   1.4517   1.4554   1.5103   1.6516
     1.6586   1.6586   1.6594   1.6595   1.7347   1.8021   1.8485   1.9889
     2.8078   2.8078   3.0499   3.0654   3.0827   3.2128   3.2134   3.2208
     3.6655   3.8204   3.8205   4.2819   4.3110   4.3132   4.4269   4.4272
     4.6419   4.7247   4.8187   4.8638   5.1699   5.2634   5.2642   5.7964
     5.9032

          k = 0.2000-0.3464 0.0000 ( 90938 PWs)   bands (ev):

    -6.9652  -5.7394  -5.7388  -5.6630  -4.6624  -4.6624  -4.6287  -4.6279
    -4.5884  -4.5881  -4.5825  -4.5657  -4.4721  -4.4721  -4.0827  -4.0826
    -4.0801  -4.0800  -4.0156  -3.9936  -3.8519  -3.8233  -3.8222  -3.7928
    -3.7924  -3.7304  -3.6738  -3.6734  -3.6318  -3.6292  -3.6010  -3.5918
    -3.5416  -3.5344  -3.4995  -3.4978  -3.4251  -3.1515  -3.0478  -3.0475
    -3.0371  -3.0137  -3.0134  -2.9956  -2.9955  -2.9418  -2.9241  -2.7628
    -2.7624  -2.7526  -2.6770  -2.6501  -2.5996  -2.5992  -2.5754  -2.4946
    -2.4945  -2.3207  -2.3204  -2.3036  -2.2176  -2.2175  -2.1875  -2.1872
    -2.1799  -2.1077  -2.1075  -1.9545  -1.9307  -1.9306  -1.9247  -1.8613
    -1.8611  -1.7944  -1.7943  -1.7914  -1.7912  -1.6634  -1.6251  -1.6249
    -1.6152  -1.6150  -1.6084  -1.5928  -1.5654  -1.5460  -1.4713  -1.4709
    -1.4435  -1.4351  -1.3783  -1.3781  -1.3112  -1.2904  -1.2496  -1.2492
    -1.2421  -1.1963  -1.1962  -1.1909  -1.1727  -1.1719  -1.1472  -1.1357
    -1.1349  -1.0736  -1.0710  -0.9717  -0.9273  -0.9265  -0.8539  -0.8533
    -0.8486  -0.8485  -0.6677  -0.6676  -0.5220  -0.5035  -0.4641  -0.4619
    -0.4607  -0.4355  -0.4353  -0.3860  -0.3857  -0.3549  -0.3541  -0.2942
    -0.2674  -0.1521  -0.0734  -0.0729  -0.0226  -0.0225  -0.0203   0.0344
     0.0479   0.1741   0.1755   0.1794   0.2330   0.2333   0.3126   0.3686
     0.3706   0.3945   0.3948   0.4683   0.4756   0.4758   0.4910   0.4916
     0.5147   0.5168   0.5170   0.5294   0.6558   0.7312   0.7313   0.8700
     0.8705   0.8919   1.0388   1.0398   1.0405   1.0406   1.1472   1.1780
     1.1797   1.1896   1.1897   1.2293   1.2295   1.2556   1.2605   1.2607
     1.3217   1.3223   1.3405   1.4094   1.4358   1.4360   1.4715   1.4716
     1.5163   1.6507   1.7035   1.7035   1.7877   1.7878   1.7921   1.7966
     1.9401   1.9405   2.3873   2.4678   2.4679   3.0069   3.0070   3.0443
     3.0480   3.7385   3.7481   3.8053   3.9240   3.9863   3.9870   4.6379
     5.1130   5.1842   5.1964   5.3572   5.8398   5.8967   5.9488   5.9518
     6.3639

          k = 0.4000-0.2309 0.0000 ( 90982 PWs)   bands (ev):

    -6.8278  -6.1926  -5.5338  -5.1258  -5.1257  -4.9784  -4.7589  -4.6042
    -4.4721  -4.4329  -4.4001  -4.4000  -4.2153  -4.2148  -4.1852  -4.1763
    -4.1763  -4.0516  -4.0182  -4.0182  -3.9658  -3.9657  -3.9001  -3.8741
    -3.8279  -3.8279  -3.7900  -3.5976  -3.5542  -3.5541  -3.5356  -3.5351
    -3.5348  -3.5325  -3.3093  -3.3085  -3.2474  -3.2471  -3.2375  -3.2374
    -3.0558  -2.9519  -2.9517  -2.9425  -2.9425  -2.8756  -2.8755  -2.8276
    -2.8117  -2.8114  -2.7312  -2.7311  -2.6034  -2.6034  -2.5496  -2.5495
    -2.4552  -2.4181  -2.3727  -2.3726  -2.3716  -2.2310  -2.1540  -2.1411
    -2.1288  -2.1284  -2.0393  -2.0392  -2.0163  -1.9042  -1.9042  -1.8816
    -1.8813  -1.7599  -1.7599  -1.7589  -1.7585  -1.7544  -1.6796  -1.6641
    -1.6640  -1.6615  -1.6310  -1.6303  -1.6300  -1.6132  -1.5719  -1.5090
    -1.4873  -1.4872  -1.4806  -1.4362  -1.4362  -1.4060  -1.3358  -1.2662
    -1.2309  -1.2307  -1.1895  -1.1890  -1.1565  -1.1495  -1.1492  -1.0211
    -1.0181  -1.0008  -0.9379  -0.9375  -0.8897  -0.7512  -0.7511  -0.7206
    -0.6701  -0.5807  -0.5805  -0.5691  -0.5492  -0.5488  -0.5435  -0.5434
    -0.4531  -0.4472  -0.4159  -0.4157  -0.3917  -0.3913  -0.3718  -0.3705
    -0.3250  -0.3146  -0.2106  -0.1739  -0.1737  -0.1048  -0.0469  -0.0134
    -0.0133   0.1266   0.1266   0.1851   0.2331   0.2918   0.2919   0.3216
     0.3428   0.3817   0.3818   0.4389   0.4397   0.4889   0.4890   0.5532
     0.5967   0.5967   0.6516   0.6517   0.6636   0.6637   0.7474   0.8480
     0.8499   0.9334   0.9461   0.9463   0.9524   1.0323   1.0539   1.0540
     1.1519   1.1523   1.1594   1.1596   1.2295   1.2522   1.2522   1.2634
     1.3858   1.3858   1.4101   1.4101   1.4180   1.4188   1.4336   1.4405
     1.6109   1.6541   1.6542   1.6615   1.6616   1.8511   1.8866   2.2722
     2.2768   2.3336   2.5772   2.7008   2.7008   3.1037   3.1041   3.3000
     3.4392   3.9130   3.9131   3.9427   4.0982   4.1934   4.1960   4.3451
     4.3609   4.5873   4.5880   5.2185   5.2349   5.7536   5.7558   6.2428
     6.2497

          k = 0.4000-0.0000 0.0000 ( 90938 PWs)   bands (ev):

    -6.9652  -5.7393  -5.7389  -5.6630  -4.6624  -4.6623  -4.6285  -4.6280
    -4.5884  -4.5881  -4.5825  -4.5657  -4.4722  -4.4720  -4.0828  -4.0826
    -4.0801  -4.0800  -4.0156  -3.9936  -3.8519  -3.8232  -3.8223  -3.7927
    -3.7924  -3.7305  -3.6740  -3.6732  -3.6317  -3.6292  -3.6012  -3.5918
    -3.5416  -3.5344  -3.4996  -3.4975  -3.4251  -3.1515  -3.0477  -3.0476
    -3.0371  -3.0136  -3.0135  -2.9956  -2.9955  -2.9418  -2.9241  -2.7627
    -2.7625  -2.7526  -2.6770  -2.6501  -2.5997  -2.5992  -2.5754  -2.4946
    -2.4945  -2.3207  -2.3204  -2.3036  -2.2176  -2.2175  -2.1875  -2.1872
    -2.1799  -2.1077  -2.1075  -1.9545  -1.9307  -1.9306  -1.9247  -1.8613
    -1.8611  -1.7944  -1.7943  -1.7914  -1.7912  -1.6634  -1.6250  -1.6250
    -1.6153  -1.6150  -1.6084  -1.5928  -1.5654  -1.5460  -1.4712  -1.4710
    -1.4435  -1.4351  -1.3783  -1.3781  -1.3112  -1.2904  -1.2495  -1.2493
    -1.2422  -1.1963  -1.1962  -1.1910  -1.1725  -1.1721  -1.1472  -1.1357
    -1.1349  -1.0736  -1.0710  -0.9717  -0.9273  -0.9264  -0.8538  -0.8534
    -0.8486  -0.8485  -0.6678  -0.6675  -0.5220  -0.5035  -0.4640  -0.4619
    -0.4608  -0.4355  -0.4354  -0.3860  -0.3857  -0.3549  -0.3541  -0.2942
    -0.2674  -0.1521  -0.0734  -0.0729  -0.0227  -0.0224  -0.0203   0.0344
     0.0479   0.1744   0.1752   0.1794   0.2331   0.2333   0.3126   0.3688
     0.3704   0.3944   0.3948   0.4683   0.4756   0.4758   0.4911   0.4916
     0.5146   0.5168   0.5170   0.5294   0.6558   0.7312   0.7313   0.8701
     0.8705   0.8919   1.0389   1.0397   1.0405   1.0406   1.1472   1.1780
     1.1797   1.1897   1.1897   1.2293   1.2295   1.2556   1.2605   1.2607
     1.3218   1.3222   1.3404   1.4094   1.4358   1.4360   1.4716   1.4716
     1.5163   1.6507   1.7035   1.7035   1.7877   1.7878   1.7924   1.7963
     1.9401   1.9405   2.3872   2.4678   2.4680   3.0067   3.0070   3.0447
     3.0479   3.7395   3.7466   3.8052   3.9240   3.9863   3.9867   4.6378
     5.1130   5.1868   5.1958   5.3573   5.8386   5.9030   5.9367   5.9491
     5.9751

          k = 0.4000 0.2309 0.0000 ( 90982 PWs)   bands (ev):

    -6.8278  -6.1926  -5.5338  -5.1258  -5.1257  -4.9784  -4.7589  -4.6042
    -4.4721  -4.4329  -4.4001  -4.4000  -4.2154  -4.2148  -4.1852  -4.1763
    -4.1763  -4.0516  -4.0182  -4.0182  -3.9658  -3.9658  -3.9001  -3.8741
    -3.8279  -3.8279  -3.7899  -3.5980  -3.5542  -3.5541  -3.5356  -3.5351
    -3.5348  -3.5323  -3.3093  -3.3084  -3.2474  -3.2472  -3.2375  -3.2374
    -3.0558  -2.9518  -2.9518  -2.9425  -2.9425  -2.8756  -2.8755  -2.8276
    -2.8116  -2.8114  -2.7311  -2.7311  -2.6034  -2.6034  -2.5496  -2.5495
    -2.4553  -2.4181  -2.3727  -2.3727  -2.3716  -2.2310  -2.1540  -2.1411
    -2.1288  -2.1284  -2.0393  -2.0392  -2.0163  -1.9042  -1.9042  -1.8816
    -1.8813  -1.7600  -1.7599  -1.7588  -1.7586  -1.7544  -1.6796  -1.6641
    -1.6640  -1.6615  -1.6309  -1.6303  -1.6300  -1.6132  -1.5719  -1.5090
    -1.4874  -1.4872  -1.4806  -1.4363  -1.4362  -1.4060  -1.3358  -1.2662
    -1.2308  -1.2308  -1.1894  -1.1890  -1.1566  -1.1494  -1.1493  -1.0211
    -1.0181  -1.0008  -0.9378  -0.9376  -0.8897  -0.7513  -0.7510  -0.7207
    -0.6701  -0.5806  -0.5805  -0.5691  -0.5491  -0.5489  -0.5436  -0.5433
    -0.4531  -0.4472  -0.4158  -0.4157  -0.3915  -0.3915  -0.3716  -0.3706
    -0.3250  -0.3147  -0.2106  -0.1738  -0.1738  -0.1048  -0.0470  -0.0134
    -0.0133   0.1265   0.1267   0.1849   0.2331   0.2918   0.2919   0.3216
     0.3428   0.3817   0.3818   0.4391   0.4397   0.4889   0.4890   0.5532
     0.5967   0.5968   0.6516   0.6517   0.6637   0.6637   0.7473   0.8483
     0.8498   0.9334   0.9461   0.9463   0.9524   1.0322   1.0539   1.0540
     1.1519   1.1522   1.1594   1.1595   1.2295   1.2522   1.2522   1.2634
     1.3858   1.3858   1.4101   1.4101   1.4180   1.4188   1.4333   1.4405
     1.6109   1.6542   1.6542   1.6615   1.6616   1.8511   1.8866   2.2729
     2.2767   2.3335   2.5767   2.7008   2.7008   3.1039   3.1040   3.2990
     3.4391   3.9130   3.9131   3.9424   4.0967   4.1943   4.1950   4.3488
     4.3607   4.5874   4.5877   5.2161   5.2288   5.7534   5.7553   6.2442
     6.2484

          k = 0.4000-0.6928 0.0000 ( 90978 PWs)   bands (ev):

    -6.4301  -6.4296  -5.8221  -5.1682  -5.1673  -4.6586  -4.6527  -4.5235
    -4.4900  -4.3801  -4.3801  -4.2723  -4.2722  -4.1460  -4.1452  -4.1448
    -4.1078  -4.1077  -4.0741  -4.0720  -3.9495  -3.9385  -3.9384  -3.8952
    -3.8952  -3.7917  -3.6988  -3.6823  -3.6254  -3.5848  -3.5226  -3.5222
    -3.5038  -3.5033  -3.4882  -3.3735  -3.3731  -3.2804  -3.2802  -3.1060
    -3.0981  -3.0379  -2.9370  -2.9370  -2.8859  -2.8857  -2.7771  -2.7281
    -2.6785  -2.6783  -2.6575  -2.6130  -2.6126  -2.5818  -2.4762  -2.4760
    -2.4461  -2.4458  -2.4366  -2.4363  -2.4358  -2.3626  -2.3625  -2.2311
    -2.2072  -2.1585  -2.1584  -2.0404  -2.0006  -2.0002  -2.0001  -1.9548
    -1.9104  -1.9103  -1.8217  -1.7968  -1.7967  -1.7909  -1.7577  -1.7256
    -1.6767  -1.6765  -1.6370  -1.5780  -1.5777  -1.5568  -1.5565  -1.4475
    -1.4003  -1.4000  -1.3524  -1.3522  -1.3114  -1.3113  -1.2922  -1.2917
    -1.2622  -1.2621  -1.2106  -1.2105  -1.1786  -1.1630  -1.1628  -1.1611
    -1.1605  -1.1401  -1.1098  -1.0437  -1.0406  -1.0402  -0.8329  -0.8244
    -0.7313  -0.7309  -0.6240  -0.6113  -0.6109  -0.5822  -0.5243  -0.5188
    -0.5186  -0.4954  -0.4943  -0.4104  -0.3762  -0.3759  -0.3079  -0.2866
    -0.2835  -0.2243  -0.2218  -0.1719  -0.0310   0.0347   0.0351   0.0559
     0.0561   0.1489   0.1557   0.1560   0.1776   0.1914   0.1945   0.2347
     0.2350   0.3537   0.3540   0.3643   0.4221   0.4224   0.4427   0.4524
     0.4665   0.4681   0.6295   0.6800   0.7049   0.7872   0.7886   0.8711
     0.8713   0.9568   0.9990   1.0054   1.0055   1.1126   1.1133   1.1849
     1.2166   1.2249   1.2364   1.2365   1.2810   1.2825   1.3160   1.3934
     1.3935   1.4176   1.4464   1.4465   1.4515   1.4555   1.5103   1.6516
     1.6585   1.6586   1.6594   1.6595   1.7347   1.8022   1.8485   1.9889
     2.8078   2.8079   3.0488   3.0659   3.0829   3.2127   3.2135   3.2208
     3.6662   3.8204   3.8205   4.2817   4.3103   4.3136   4.4269   4.4273
     4.6418   4.7245   4.8136   4.8652   5.1714   5.2633   5.2645   5.8058
     5.9037

          k = 0.4000-0.4619 0.0000 ( 90978 PWs)   bands (ev):

    -6.4300  -6.4297  -5.8221  -5.1681  -5.1674  -4.6586  -4.6527  -4.5235
    -4.4900  -4.3801  -4.3800  -4.2723  -4.2721  -4.1460  -4.1452  -4.1448
    -4.1078  -4.1077  -4.0740  -4.0721  -3.9495  -3.9385  -3.9384  -3.8953
    -3.8951  -3.7917  -3.6989  -3.6823  -3.6250  -3.5849  -3.5226  -3.5222
    -3.5038  -3.5034  -3.4882  -3.3735  -3.3731  -3.2804  -3.2802  -3.1060
    -3.0981  -3.0379  -2.9370  -2.9370  -2.8859  -2.8857  -2.7772  -2.7281
    -2.6785  -2.6783  -2.6575  -2.6130  -2.6126  -2.5819  -2.4762  -2.4760
    -2.4460  -2.4459  -2.4366  -2.4363  -2.4357  -2.3626  -2.3625  -2.2311
    -2.2072  -2.1585  -2.1583  -2.0404  -2.0006  -2.0002  -2.0001  -1.9548
    -1.9104  -1.9103  -1.8217  -1.7969  -1.7966  -1.7909  -1.7578  -1.7257
    -1.6767  -1.6765  -1.6370  -1.5780  -1.5776  -1.5568  -1.5564  -1.4475
    -1.4003  -1.4001  -1.3524  -1.3522  -1.3114  -1.3114  -1.2921  -1.2917
    -1.2621  -1.2621  -1.2106  -1.2105  -1.1786  -1.1630  -1.1628  -1.1610
    -1.1606  -1.1401  -1.1098  -1.0437  -1.0407  -1.0401  -0.8329  -0.8245
    -0.7312  -0.7310  -0.6240  -0.6112  -0.6110  -0.5822  -0.5244  -0.5188
    -0.5186  -0.4954  -0.4943  -0.4104  -0.3762  -0.3759  -0.3079  -0.2862
    -0.2836  -0.2240  -0.2221  -0.1719  -0.0310   0.0346   0.0351   0.0559
     0.0561   0.1488   0.1557   0.1560   0.1776   0.1918   0.1942   0.2347
     0.2350   0.3536   0.3541   0.3643   0.4221   0.4225   0.4427   0.4524
     0.4666   0.4680   0.6295   0.6801   0.7048   0.7874   0.7885   0.8712
     0.8713   0.9568   0.9989   1.0054   1.0055   1.1128   1.1131   1.1849
     1.2165   1.2249   1.2364   1.2365   1.2811   1.2824   1.3160   1.3934
     1.3935   1.4176   1.4464   1.4465   1.4519   1.4553   1.5103   1.6516
     1.6586   1.6586   1.6594   1.6595   1.7347   1.8020   1.8485   1.9888
     2.8078   2.8079   3.0511   3.0648   3.0825   3.2129   3.2134   3.2209
     3.6649   3.8203   3.8205   4.2820   4.3115   4.3128   4.4268   4.4272
     4.6420   4.7248   4.8235   4.8623   5.1686   5.2631   5.2642   5.7888
     5.9033

     the Fermi energy is     1.4247 ev

!    total energy              =  -27756.69967849 Ry

     total all-electron energy =  -1326643.465091 Ry
     estimated scf accuracy    <       0.00000073 Ry
     smearing contrib. (-TS)   =       0.00225918 Ry
     internal energy E=F+TS    =  -27756.70193767 Ry

     The total energy is F=E-TS. E is the sum of the following terms:
     one-electron contribution =  -27943.31591757 Ry
     hartree contribution      =   14264.67249759 Ry
     xc contribution           =    -891.43467520 Ry
     ewald contribution        =   12287.33189446 Ry
     one-center paw contrib.   =  -25473.95573696 Ry

     convergence has been achieved in  19 iterations

     negative rho (up, down):  1.251E-02 0.000E+00

     Forces acting on atoms (cartesian axes, Ry/au):

     atom    1 type  1   force =    -0.00001264   -0.00001099   -0.00330386
     atom    2 type  1   force =     0.00000369    0.00000996   -0.00327619
     atom    3 type  1   force =     0.00000811   -0.00001156   -0.00327306
     atom    4 type  1   force =     0.00001538   -0.00000155   -0.00328692
     atom    5 type  1   force =    -0.00001982   -0.00001671   -0.00325359
     atom    6 type  1   force =     0.00000347   -0.00003184   -0.00332405
     atom    7 type  1   force =    -0.00000532    0.00001145   -0.00327006
     atom    8 type  1   force =    -0.00002127    0.00002349   -0.00331516
     atom    9 type  1   force =     0.00002524    0.00001701   -0.00341804
     atom   10 type  1   force =     0.00007741    0.00001624    0.00308768
     atom   11 type  1   force =    -0.00001902    0.00004838    0.00312820
     atom   12 type  1   force =    -0.00006044   -0.00004028    0.00300928
     atom   13 type  1   force =     0.00004755   -0.00004361    0.00310582
     atom   14 type  1   force =    -0.00011405   -0.00006069    0.00300416
     atom   15 type  1   force =     0.00005972   -0.00000025    0.00305304
     atom   16 type  1   force =    -0.00003947   -0.00002715    0.00302139
     atom   17 type  1   force =     0.00001634    0.00006951    0.00308754
     atom   18 type  1   force =     0.00001157    0.00001677    0.00309508
     atom   19 type  1   force =     0.00009172   -0.00008351    0.00002031
     atom   20 type  1   force =     0.00005523   -0.00003409   -0.00003139
     atom   21 type  1   force =    -0.00014487   -0.00010812    0.00001687
     atom   22 type  1   force =     0.00009550   -0.00000976   -0.00004950
     atom   23 type  1   force =    -0.00011530   -0.00007288   -0.00001203
     atom   24 type  1   force =     0.00001858    0.00002933    0.00005760
     atom   25 type  1   force =    -0.00003210    0.00001058   -0.00005434
     atom   26 type  1   force =     0.00002848    0.00012633   -0.00002910
     atom   27 type  1   force =     0.00001498    0.00013295   -0.00006832
     atom   28 type  1   force =     0.00001344    0.00003256   -0.00005182
     atom   29 type  1   force =     0.00009285    0.00013333    0.00025694
     atom   30 type  1   force =    -0.00011034    0.00007483    0.00027146
     atom   31 type  1   force =     0.00013530   -0.00001074    0.00028857
     atom   32 type  1   force =    -0.00006672   -0.00008146    0.00031967
     atom   33 type  1   force =    -0.00007161   -0.00001797    0.00031530
     atom   34 type  1   force =    -0.00001671   -0.00011114    0.00031260
     atom   35 type  1   force =    -0.00002460   -0.00005480    0.00031760
     atom   36 type  1   force =     0.00003641    0.00002908    0.00035367
     atom   37 type  2   force =     0.00010767    0.00012740   -0.00005041
     atom   38 type  2   force =    -0.00008436   -0.00008011   -0.00005493

     Total force =     0.001015     Total SCF correction =     0.001891
     SCF correction compared to forces is large: reduce conv_thr to get better values

     negative rho (up, down):  1.251E-02 0.000E+00

     negative rho (up, down):  1.251E-02 0.000E+00

     negative rho (up, down):  1.251E-02 0.000E+00

     negative rho (up, down):  1.251E-02 0.000E+00

     negative rho (up, down):  1.251E-02 0.000E+00

     negative rho (up, down):  1.251E-02 0.000E+00

     negative rho (up, down):  1.251E-02 0.000E+00

     negative rho (up, down):  1.251E-02 0.000E+00

     negative rho (up, down):  1.251E-02 0.000E+00

     negative rho (up, down):  1.251E-02 0.000E+00

     negative rho (up, down):  1.251E-02 0.000E+00

     negative rho (up, down):  1.251E-02 0.000E+00

     negative rho (up, down):  1.251E-02 0.000E+00

     negative rho (up, down):  1.251E-02 0.000E+00

     negative rho (up, down):  1.251E-02 0.000E+00

     negative rho (up, down):  1.251E-02 0.000E+00

     negative rho (up, down):  1.251E-02 0.000E+00

     negative rho (up, down):  1.251E-02 0.000E+00

     negative rho (up, down):  1.251E-02 0.000E+00

     negative rho (up, down):  1.251E-02 0.000E+00

     negative rho (up, down):  1.251E-02 0.000E+00

     negative rho (up, down):  1.251E-02 0.000E+00

     negative rho (up, down):  1.251E-02 0.000E+00

     negative rho (up, down):  1.251E-02 0.000E+00

     negative rho (up, down):  1.251E-02 0.000E+00

     negative rho (up, down):  1.251E-02 0.000E+00

     negative rho (up, down):  1.251E-02 0.000E+00

     negative rho (up, down):  1.251E-02 0.000E+00

     negative rho (up, down):  1.251E-02 0.000E+00

     negative rho (up, down):  1.251E-02 0.000E+00

     negative rho (up, down):  1.251E-02 0.000E+00

     negative rho (up, down):  1.251E-02 0.000E+00

     negative rho (up, down):  1.251E-02 0.000E+00

     negative rho (up, down):  1.251E-02 0.000E+00
 BEEFens 2000 ensemble energies
             -0.595517652710884E+02
             -0.354709581550517E+01
             -0.155926520548608E+02
              0.421753137919409E+02
             -0.217774690283590E+02
             -0.202570207962549E+02
             -0.344126535125042E+02
             -0.848055122159229E+02
             -0.459195867348668E+02
             -0.466551876966665E+02
             -0.362769675693611E+02
              0.216627390532621E+01
              0.397881540552245E+01
              0.773526456932541E+01
              0.257714905554644E+01
              0.466763386945214E+02
             -0.205525907711220E+02
             -0.228497846417802E+02
              0.188783701679624E+02
             -0.110485486017998E+03
              0.526392173779481E+02
             -0.286644351142711E+02
             -0.323369355554930E+01
             -0.112756844144903E+02
             -0.887690540421272E+01
             -0.454157522054945E+01
              0.867815720294739E+02
             -0.182856831598102E+02
             -0.884989296447395E+01
             -0.508424587070162E+02
              0.803899599960625E+02
             -0.186587098226344E+02
             -0.367691784266202E+02
              0.246028970851430E+02
             -0.280056113048073E+01
              0.158884526471693E+02
             -0.491150407889052E+01
              0.108319200228308E+02
              0.281748880175150E+02
             -0.101555368410776E+03
              0.549126088909476E+02
              0.140180769391241E+02
             -0.150464724317629E+01
             -0.356107063547734E+02
              0.121186916694223E+02
             -0.143657441743363E+02
              0.389527725094522E+02
              0.358870974059145E+02
             -0.305067887015828E+02
             -0.269367391656632E+02
             -0.322988196402154E+02
             -0.345826103290673E+02
              0.132694857372670E+02
             -0.481667695280387E+02
              0.112720189676172E+02
              0.612505556315253E+02
              0.622098916578819E+02
              0.350630512227197E+02
              0.151274606244886E+02
              0.264865739874443E+02
              0.876075085865943E+02
              0.209868313290465E+02
             -0.539139618793928E+02
             -0.155674789376777E+02
             -0.230944108777750E+02
              0.618870635633992E+02
             -0.761204257695804E+02
             -0.661837061122701E+02
             -0.253778077496210E+02
             -0.614755815595220E+01
             -0.463906102023786E+02
              0.266077554044377E+02
              0.780350717296096E+01
              0.838439221287194E+01
             -0.390949145765581E+02
             -0.340573787388363E+02
             -0.531555500084381E+02
              0.384975032081533E+02
             -0.290009542057116E+02
              0.260042550027419E+02
             -0.703215879151202E+01
             -0.313281864773527E+02
             -0.567472266787645E+02
             -0.173890555718423E+02
             -0.874571371626257E+01
             -0.122027501829786E+02
              0.405822288398447E+02
              0.669329137539127E+02
             -0.377518063643683E+02
             -0.780692920168741E+02
             -0.216530738706985E+02
              0.109636872912327E+03
             -0.583080179767718E+02
              0.350863082497663E+02
             -0.933244656149100E+01
             -0.653124655870466E+02
              0.249762585451945E+02
              0.392900966567965E+02
             -0.196149614032734E+02
              0.395499870649326E+02
             -0.291866865484658E+02
             -0.467318449050081E+02
              0.848349158540902E+02
              0.445781749062610E+02
              0.333026714340069E+02
              0.143898200392850E+02
              0.201205045428218E+02
              0.842453017951109E+02
             -0.252432443466036E+02
              0.784073453037459E+01
             -0.140025022562126E+03
              0.178263513107826E+02
             -0.704841007737493E+02
              0.148892422638838E+02
              0.200827076088302E+02
             -0.326292505409129E+02
             -0.548701741242839E+02
              0.649175749124674E+01
             -0.298951659654199E+02
              0.299994951975857E+02
             -0.521975942401159E+02
              0.186038786322729E+01
             -0.350331719339590E+02
             -0.414439523246330E+01
             -0.114164977314883E+01
              0.177035898782943E+02
              0.144095204308417E+01
             -0.642233548415732E+01
              0.578851844834924E+02
              0.892410490483349E+02
              0.475581572267832E+02
              0.819278843273382E+02
             -0.113016835606871E+02
              0.141277723311475E+02
              0.532215243789179E+02
             -0.111914179203458E+02
             -0.722845364799771E+02
             -0.376636750397843E+02
             -0.513545846167896E+02
             -0.271771830982926E+02
              0.322943418252340E+02
             -0.114662323931552E+03
             -0.185199326119942E+02
              0.405687936218604E+02
             -0.379415555849404E+02
             -0.360680266043184E+02
              0.533901212704150E+02
              0.392400754942794E+02
             -0.349350463753369E+02
              0.131946673057657E+02
             -0.269116361887243E+02
              0.336697709208523E+02
              0.432849708339847E+01
              0.209380511464882E+02
             -0.870888869384812E+02
             -0.472001198027693E+02
             -0.983197700050300E+01
              0.322667067158084E+01
             -0.359241687987544E+02
              0.104113109989239E+03
             -0.228982331064258E+02
             -0.394356005312579E+02
              0.382012914622780E+02
             -0.486406812964616E+02
             -0.356653886398056E+02
              0.319078923867241E+02
              0.122238652028093E+02
              0.162732697309598E+02
              0.113606629038002E+02
             -0.130990790117791E+02
              0.223663092789872E+02
              0.580100761275081E+02
             -0.307030015611272E+02
              0.158458092859897E+02
              0.919362471386923E+02
              0.335320547488915E+02
             -0.720782857123891E+01
             -0.184831461100867E+02
              0.150640706504225E+03
             -0.159688230989816E+02
              0.356632241880661E+02
              0.189045494845042E+02
              0.356922329774854E+02
              0.875953979272044E+02
              0.534821964776910E+02
             -0.227586905160755E+01
              0.223182665352414E+02
              0.475802943637397E+02
              0.356559092069291E+02
             -0.514958703190040E+02
              0.919860563334204E+02
             -0.811284437563973E+02
             -0.196295832758782E+02
              0.573084369008061E+02
              0.644272036143124E+01
              0.776263124493585E+01
              0.336176201680450E+02
              0.296647097882862E+02
              0.347929330140867E+02
             -0.626638467038764E+02
              0.281311297755985E+01
             -0.293599032779772E+02
             -0.857263396435535E+01
             -0.138873789900617E+01
             -0.700479840595265E+01
             -0.403947879886647E+01
              0.845267632498649E+02
             -0.100162143826898E+02
             -0.271459989974600E+02
             -0.495423434960199E+01
              0.137348660458482E+02
             -0.552663081118847E+02
             -0.397561767484236E+02
             -0.376086520732753E+02
             -0.619290173372884E+02
             -0.166123030984410E+02
             -0.440447826238503E+02
              0.160099671967805E+02
             -0.244690514747137E+01
             -0.102173182366020E+02
             -0.920077455467481E+01
              0.800435934837117E+01
             -0.240821932919247E+02
              0.678226838348580E+02
             -0.792051849427888E+02
             -0.138622310268633E+02
             -0.171771293150931E+02
              0.179528124518304E+02
              0.210553478329262E+02
             -0.454759298486765E+02
             -0.199653033009027E+02
              0.433283144366203E+02
             -0.273080719261087E+02
              0.184633510518237E+02
              0.377293594125436E+02
             -0.319885416697980E+01
              0.112128240611822E+03
             -0.228052887892701E+02
             -0.335213935347813E+02
              0.576372140091314E+01
             -0.223551177062055E+02
              0.517617646276266E+02
             -0.329040748943478E+02
              0.104237196141322E+02
              0.631630259327025E+02
             -0.124227445231750E+02
              0.118203076092860E+03
              0.123651982064237E+03
             -0.637982560039738E+02
              0.580685015014333E+02
              0.162256607838393E+02
             -0.507984342581535E+02
              0.213239131730313E+02
              0.346523664264237E+02
              0.354460779257407E+02
              0.126571159566296E+01
              0.156914749071955E+02
              0.682991326589299E+02
             -0.242959508841240E+02
              0.179893222804139E+02
              0.727248002668468E+02
             -0.366215002325140E+02
             -0.125469182621293E+02
              0.498416880819151E+02
              0.292101016295920E+02
              0.766749422860148E+02
              0.216989072985023E+02
              0.602094912496915E+01
              0.275877793330581E+02
              0.376090677251888E+02
             -0.462745976851606E+02
              0.317035421245714E+01
              0.125089346591512E+02
              0.111458656053770E+02
              0.216425872082377E+02
             -0.564393065903052E+02
              0.360519002029857E+02
             -0.436324311805157E+02
             -0.342146220616414E+02
              0.174736827027894E+02
             -0.180147161551182E+02
              0.544530675510488E+02
             -0.253830719796807E+02
              0.261545203162462E+02
              0.362874312509407E+02
              0.815886942791882E+02
              0.565843268481042E+02
              0.453184548856804E+02
             -0.105303335166106E+02
             -0.370000156754628E+01
             -0.327267832329645E+02
              0.736499272327813E+02
              0.782789962151181E+02
              0.354843862310859E+02
             -0.187029562951129E+02
              0.503208250975749E+02
             -0.162978733098666E+02
              0.212087027339642E+02
              0.602491626191193E+02
              0.216247059806145E+01
             -0.102758896519057E+02
             -0.279641977805906E+02
             -0.501175985061417E+02
              0.928763837996240E+02
              0.430880751404304E+02
             -0.547806757656883E+02
             -0.923846220417039E+01
              0.245428583222656E+02
             -0.980909848747473E+01
              0.580525046449549E+02
              0.149432351663498E+02
              0.784895889958565E+02
              0.274128209661968E+02
             -0.259679844738622E+02
              0.245554587839201E+02
             -0.488878064443321E+01
             -0.319068530352739E+02
              0.130289956452990E+02
              0.203013300753969E+02
              0.917360620218939E+02
              0.784109463035822E+02
              0.541274225028658E+02
              0.719316643300240E+02
              0.792441664348792E+01
             -0.269555175356595E+02
              0.160746873911201E+02
             -0.362210117340932E+02
             -0.466519094957825E+02
             -0.553702375879425E+02
             -0.260960064480302E+02
             -0.107854118165781E+03
             -0.284983327656729E+02
             -0.822257325647313E+02
              0.206354644105694E+02
             -0.469390759388101E+02
              0.388018212982785E+02
             -0.924222053731146E+02
             -0.324989128377771E+02
              0.541822954018216E+02
              0.203738803762044E+02
             -0.814810368669224E+02
              0.621686296289703E+02
             -0.251904341430136E+02
              0.502863289195197E+02
             -0.237789051107162E+02
             -0.737497179505484E+02
              0.108808070737857E+02
             -0.599589638536396E+02
             -0.167738845348596E+02
             -0.147176541786023E+01
              0.411010785888645E+02
              0.124829972667743E+03
             -0.454328935116109E+02
             -0.355843571928217E+02
             -0.890090363319132E+00
             -0.129100185677658E+02
             -0.808503872579473E+02
             -0.587211626050873E+02
              0.508738919620795E+02
             -0.285839419788051E+02
              0.165164515214723E+02
             -0.480738937010021E+02
             -0.128966658043910E+02
             -0.430062980545521E+02
              0.557101763343215E+02
              0.148769512284302E+02
             -0.227526128686085E+02
             -0.123730597421641E+02
              0.645007240443479E+01
             -0.606317951811002E+01
              0.434296005026550E+02
             -0.247521468167404E+02
              0.259334018232153E+01
              0.333689318229855E+02
              0.169022793270832E+02
             -0.155845146521759E+02
              0.153592224567465E+03
              0.527889933507111E+02
              0.975805751330569E+00
              0.160259129005956E+02
             -0.604525463597070E+02
              0.309170805757475E+02
             -0.707948862353796E+02
             -0.246067989065703E+02
             -0.512552885226258E+02
             -0.216968060786882E+02
              0.559098461819285E+02
             -0.527155282928172E+02
              0.156166650864126E+02
             -0.403174992235222E+01
              0.383854997518043E+01
             -0.428434574127858E+02
             -0.471134047500402E+02
             -0.393330874922594E+01
             -0.419287864802328E+02
             -0.213056284112150E+02
             -0.431375803985591E+02
             -0.118251479105615E+02
             -0.353401491884568E+02
             -0.508028877606924E+02
              0.209255638262358E+02
             -0.207047457857023E+02
              0.183724016048515E+02
              0.962526798599007E+01
             -0.724931185241140E+02
             -0.539352188825925E+02
             -0.389652744840299E+02
              0.348678547985910E+02
              0.282799813318155E+01
             -0.615944595087349E+02
              0.576078927353304E+02
             -0.393921266071272E+02
              0.534448705235215E+02
             -0.284303034521452E+02
             -0.437549670537078E+02
              0.293983643212844E+02
             -0.644920441268329E+02
             -0.374669305772515E+02
              0.663038897061639E+02
              0.200805554111628E+02
             -0.352683157487457E+02
              0.480290826952227E+02
             -0.171249392536620E+02
             -0.316515192775395E+02
             -0.296671663212999E+02
             -0.491766965985403E+02
              0.245107379944901E+02
             -0.918346243345781E+02
             -0.827224230160280E+02
             -0.719684870249819E+01
             -0.301765371395757E+02
             -0.565400092800122E+02
              0.708450264120843E+02
              0.129152707089678E+03
             -0.357295316318050E+02
             -0.247597652794650E+01
             -0.627035126068057E+02
              0.639004362397401E+02
              0.166958278358089E+02
             -0.178146568218302E+02
             -0.403897361345815E+02
              0.145932391572644E+02
             -0.575744501985067E+02
             -0.195887572304997E+02
             -0.889738764293232E+02
              0.330891488242660E+02
              0.167281156253386E+02
              0.196241473780231E+01
             -0.686712520647905E+01
             -0.322447025270956E+02
             -0.738168529813510E+01
              0.123198719132923E+03
             -0.196126810637267E+02
             -0.429320837223243E+02
             -0.671910768980979E+02
              0.106969729985187E+02
             -0.335555437636905E+02
              0.572652052851770E+01
              0.255689135617600E+02
              0.101458654664448E+02
              0.271895418509830E+02
              0.116888379488528E+02
              0.619533430747423E+02
              0.312487785044588E+02
             -0.320292456205301E+02
              0.346060654996855E+02
              0.373658507754851E+02
              0.118647574177334E+02
              0.481052577894226E+02
             -0.219214901894981E+02
              0.753325406677401E+02
              0.167717407253825E+02
             -0.266094779651526E+02
             -0.717540930186038E+01
             -0.183631445517774E+02
              0.259182042566637E+02
             -0.229848021963455E+02
              0.791287861069634E-01
             -0.827127620194187E+01
              0.795440780294560E+02
              0.490132875085206E+02
             -0.675929387790041E+02
             -0.462933010927620E+01
             -0.546870765805656E+02
             -0.157067644863149E+02
             -0.264928387783212E+02
              0.356044590383510E+01
              0.661907329136186E+00
             -0.252831911562220E+02
              0.783177401531751E+01
             -0.586239111534634E+01
             -0.127468040986873E+02
              0.843668909416342E+02
              0.179207878943948E+02
             -0.792715720308023E+02
             -0.452186555019704E+02
              0.928389721684513E+02
              0.273661233763743E+02
             -0.105357125472456E+02
              0.102672831621159E+03
             -0.191726470936280E+02
             -0.121756657459190E+02
             -0.521511856132474E+01
              0.104803657025985E+02
              0.266734939181314E+02
              0.777129958133054E+01
              0.300446805233487E+02
             -0.185972935534249E+02
             -0.296999653652931E+02
             -0.411165509223234E+02
             -0.468626555802658E+02
              0.457357475887531E+02
              0.124317772949068E+02
              0.381206506628645E+02
              0.130966846117780E+02
              0.840092515031064E+02
              0.152672971308025E+02
             -0.832721994386276E+02
             -0.328941840768980E+02
              0.133175083096880E+02
             -0.297990842492158E+02
              0.615534435057650E+02
             -0.856602300655209E+01
              0.145483132898150E+02
              0.487550279876901E+02
             -0.693253064132098E+02
              0.147184536050037E+03
              0.205517801241128E+02
              0.267126886783013E+02
              0.341165201109617E+02
              0.103174052965761E+02
             -0.152456689406085E+01
              0.352748810140042E+02
             -0.351384334125179E+02
              0.758335713565330E+02
              0.671968742074934E+02
             -0.399340499184087E+02
              0.146912687405164E+02
              0.657530327917494E+02
             -0.220101597218020E+02
              0.150863794280257E+02
              0.429424624859361E+02
              0.415084184749101E+02
             -0.772038935508050E+02
             -0.151769071325098E+02
             -0.351353394034404E+02
             -0.139699293619992E+01
             -0.757479669058096E+01
             -0.554215925623214E+01
             -0.178608292566039E+02
             -0.288701120224973E+02
              0.607134820353110E+01
              0.110722413839147E+02
              0.526586133076742E+02
             -0.382338464919594E+02
              0.366530398692320E+02
              0.430167345373134E+02
             -0.184776107390573E+02
              0.859037845101207E+02
             -0.686145062316187E+02
             -0.101398351006842E+03
             -0.643644839875197E+01
             -0.257043341354506E+01
              0.388709494673924E+01
              0.776112173832018E+02
             -0.106821715872877E+02
              0.409350237631063E+02
              0.433445000996985E+02
              0.378608618869551E+02
             -0.982973893306041E+01
              0.617287755868757E+02
             -0.130828612075115E+02
             -0.300613882144889E+02
             -0.473595064825320E+02
              0.567793079127657E+01
              0.363565731876039E+02
             -0.598709492661806E+01
              0.387125310867989E+02
             -0.174084545689084E+01
              0.645421010565062E+02
              0.184281256207878E+02
              0.984507025033808E+01
             -0.122291951760051E+02
              0.327039559895195E+02
              0.355354056427612E+02
              0.230040823558105E+02
             -0.443164552225937E+00
             -0.541125436170325E+02
              0.255383474380105E+02
              0.171513920337047E+02
              0.396886851978149E+02
              0.266950994384950E+02
              0.366032537763043E+02
             -0.584859230337781E+01
              0.245320610981981E+02
             -0.293789175019706E+02
             -0.195939529829116E+01
             -0.560210140707308E+02
             -0.301656336072156E+02
              0.371299594594382E+02
             -0.920582942435298E+02
              0.290270942735727E+02
              0.181787950514259E+02
              0.825646442597136E+02
             -0.298198389668331E+02
              0.323976822438405E+02
             -0.135892251766438E+02
             -0.455397756123280E+02
             -0.750111933014616E+02
             -0.501427817574029E+01
             -0.844610239661230E+02
              0.198387762756491E+02
             -0.243965188335632E+02
              0.300144750484364E+02
              0.233070733562312E+02
             -0.236254543788336E+02
             -0.260508474547358E+02
              0.383578002778581E+02
             -0.578479665136138E+02
             -0.114563411718148E+02
             -0.193207485513204E+02
              0.208048222781913E+02
             -0.899948915550726E+01
              0.355253309898038E+01
             -0.198018306627494E+02
              0.549470467489058E+02
             -0.429691028363759E+02
              0.777919285807786E+01
              0.575182233512789E+02
             -0.316875538790685E+02
              0.354222851323507E+01
             -0.886431030453411E+01
             -0.658309427867752E+02
             -0.475976785722723E+02
             -0.857245574815502E+01
              0.235533589540738E+02
              0.296367006135521E+02
              0.854796289746753E+01
             -0.391671823986530E+01
              0.148887202740484E+02
             -0.432940248159398E+02
              0.340248093231281E+01
             -0.522232448800243E+02
             -0.320290064929857E+02
              0.466004823988208E+02
             -0.289891339607167E+02
              0.610485421694805E+02
             -0.210999014040661E+02
              0.347789901561656E+02
              0.237547460110555E+02
             -0.633761109611323E+02
             -0.276004924859635E+02
              0.914785643635207E+01
             -0.364601192914771E+02
             -0.332629609660618E+02
             -0.814588521764322E+02
             -0.529889802175729E+02
             -0.501869035379562E+02
             -0.407519380375453E+02
             -0.996668896407641E+00
              0.953658747445093E+01
              0.874323981457650E+00
              0.148460388714049E+02
             -0.539373321940232E+02
              0.139660150265770E+02
              0.252319003126663E+02
             -0.654958738706014E+02
             -0.692111090614898E+02
             -0.424738904310555E+02
             -0.166403784753689E+02
              0.175980916906238E+02
              0.462319921471044E+01
             -0.418185052732733E+02
              0.361330599786512E+02
             -0.212084728693327E+02
              0.508617462049741E+02
             -0.871858371105180E+02
              0.586706638181173E+02
             -0.193131019359586E+01
             -0.361365746030010E+02
             -0.211272690608133E+02
              0.470054094393397E+01
              0.365805777640877E+02
             -0.744328721293570E+02
             -0.118377067847044E+02
             -0.213919035723748E+02
              0.504103256115012E+02
              0.851026166072050E+02
             -0.948262584555966E+02
              0.928161023465727E+02
              0.460700316746959E+02
             -0.712313800334668E+02
             -0.361140823905926E+02
              0.738422191087893E+02
              0.622320888083038E+02
             -0.177975876684471E+02
             -0.450653308908971E+01
              0.701203600024762E+01
              0.635727958640622E+02
             -0.498141604965682E+02
              0.156253879707238E+02
             -0.457485024331997E+01
              0.343163905311333E+02
             -0.734915622059484E+02
             -0.643429401869015E+01
             -0.346493962397999E+02
              0.452210675727180E+02
              0.461875980676402E+02
             -0.846756717895528E+02
             -0.478896508012289E+02
             -0.252692614109510E+02
             -0.331828549959389E+02
             -0.107126086643034E+02
             -0.239504219395126E+02
              0.419752253631809E+02
              0.393349315378791E+02
             -0.562396816111755E+01
             -0.408575343652145E+02
             -0.835986985214180E+02
              0.434434278198254E+02
             -0.515331548655258E+02
             -0.306520661027632E+02
              0.534322841553011E+01
             -0.316292029262127E+02
             -0.390884269709819E+02
             -0.235091998306140E+02
             -0.376955064430368E+02
             -0.266335816239610E+02
             -0.473795681387256E+02
              0.554393272400485E+02
              0.627963334013664E+02
             -0.152419269143570E+01
             -0.257558275532751E+02
             -0.634319802259120E+01
              0.433938501708612E+02
             -0.853335473758057E+02
             -0.142194168894235E+02
              0.515228453065537E+02
              0.651656049603968E+02
             -0.242866668921914E+02
              0.895320856301578E+01
              0.514797550960656E+02
              0.195680924487786E+02
             -0.826872092242337E+01
             -0.446415439290948E+02
              0.278181173152428E+02
             -0.346955407753982E+02
             -0.163583512756783E+02
             -0.149198410871408E+02
             -0.197741737915996E+02
              0.190821222592440E+02
              0.787001612772373E+02
              0.198794531341716E+01
              0.530662809450268E+01
             -0.871993400698684E+02
             -0.172980772611351E+02
             -0.346307017173569E+02
              0.274633543385943E+01
             -0.401511353760529E+02
              0.714979348904970E+02
              0.769786401794285E+02
              0.120881157492275E+02
             -0.137848633570362E+02
              0.140871430210444E+02
              0.257025282194943E+02
             -0.474071397011715E+02
             -0.860609039891654E+01
              0.134932617472696E+02
              0.162267771482497E+02
              0.554648505732111E+02
              0.414850793239999E+02
             -0.194096985108308E+02
              0.327038284059679E+02
             -0.951949589779361E+02
             -0.508691451297793E+00
              0.832086399911894E+02
              0.882643759927981E+01
              0.144080106874367E+01
              0.331046381264840E+02
             -0.294009822221533E+02
              0.943553921524451E+02
             -0.117383386490654E+02
              0.856570150149649E+02
              0.373797361536923E+02
             -0.385486127561937E+02
              0.309192649352837E+02
             -0.328581519446038E+02
             -0.706749291190242E+02
             -0.639437520196714E+01
             -0.533050584412982E+02
             -0.539207534297265E+02
             -0.677370864391929E+01
              0.289201842114604E+02
             -0.484998143665544E+01
             -0.354523304992676E+02
              0.113351605688788E+02
             -0.726531789857827E+02
             -0.100278978088903E+02
             -0.814583712165961E+02
              0.479445862308620E+02
              0.215841030974403E+01
             -0.476188510628167E+02
             -0.227709198196785E+02
              0.209264767624310E+02
             -0.294828161654620E+02
             -0.447837786404686E+02
              0.892799452603807E+02
             -0.193897749367482E+02
             -0.463732362912049E+02
              0.244742124069600E+02
[...]
              0.279846249481047E+02
              0.139443272211647E+03
              0.237116665528786E+02
              0.119436961447718E+02
             -0.455931193895964E+02
             -0.627540039448226E+02
             -0.187039740826215E+02
              0.324934190038956E+02
             -0.417662489700569E+01
              0.185955801326000E+02
              0.330188542691394E+02
             -0.575442115928710E+02
              0.217801223442376E+02
              0.575855323116201E+02
              0.542781720263254E+02
             -0.401342310943505E+01
             -0.146738508533201E+01
             -0.982173856979782E+01
             -0.474706151157048E+02
             -0.662237655699973E+02
              0.772065553300221E+02
             -0.503043204861831E+01
             -0.578503987606855E+02
              0.156073831860476E+01
             -0.200128718340545E+02
              0.923725391665596E+02
             -0.212631299528950E+02
             -0.346983420450570E+02
              0.329147720784943E+02
             -0.142951422027337E+02
              0.381418356043846E+02
             -0.237888887757504E+01
              0.994520494512356E+02
              0.480197345960826E+02
             -0.531589075541986E+01
             -0.315007283151350E+02
              0.227250072411812E+02
             -0.519036125983177E+02
             -0.126992859475430E+02
              0.574687323283886E+02
             -0.283275550101791E+02
             -0.430661575746533E+02
             -0.219113304167758E+02
              0.509673655773796E+02
              0.122490896972878E+02
             -0.834641257005760E+02
              0.298158207438588E+02
              0.151086465104457E+02
              0.559245904601056E+01
             -0.505181105351791E+02
             -0.393145688908578E+01
              0.317054841222743E+02
              0.504826546885135E+02
              0.621322747801521E+02
              0.223088927496978E+02
              0.592750540861033E+00
             -0.488531703560330E+02
             -0.502799129075747E+02
             -0.736470320005711E+02
             -0.591364293996173E+01
              0.303349563363011E+02
             -0.381797939241693E+01
              0.537941545804463E+02
             -0.312390961023148E+02
              0.163187313821156E+02
             -0.990101560197076E+01
             -0.284968767406233E+02
              0.575470124686327E+02
              0.783480346172803E+01
              0.593387374444079E+02
              0.499803404745990E+01
              0.261619001918784E+02
             -0.189783132591812E+02
              0.575450586425773E+02
             -0.108848324370362E+02
             -0.982974417971754E-01
             -0.776565492592612E+02
             -0.127161627537095E+02
              0.706969922961001E+02
              0.661955990419561E+02
              0.247340398543221E+02
             -0.127172991282216E+02
              0.336341033422059E+01
             -0.169467649094723E+02
             -0.171476781416510E+01
              0.892078432393576E+02
              0.112504641114367E+01
             -0.185172787365659E+02
             -0.108879511444128E+03
             -0.545004953002483E+02
             -0.368496420756952E+02
             -0.647521301638311E+02
             -0.545363838633002E+02
             -0.670298711069076E+02
             -0.439369224682902E+02
             -0.406126559664566E+02
             -0.443257557762880E+02
              0.475909434557588E+02
             -0.291130711592933E+02
             -0.980444036169172E+02
              0.411890179454434E+02
             -0.254374692709660E+02
             -0.776764703533634E+02
              0.926321096623682E+02
             -0.215282711943625E+02
              0.225420284114048E+02
              0.448635755726114E+02
             -0.154759026241197E+01
              0.249855648601962E+02
              0.467751331966770E+01
              0.387731714582957E+00
             -0.148703616748577E+02
             -0.703075442910575E+02
              0.131376278379631E+02
             -0.127299491521962E+03
              0.611733206188363E+02
             -0.433635835160636E+02
             -0.159433230531633E+02
             -0.154277139367131E+02
              0.678060095451142E+01
             -0.225077292123029E+02
              0.291981002062183E+02
             -0.510073702995172E+02
              0.361082047532126E+02
              0.363688463832796E+02
              0.166715930270181E+02
              0.992650374483071E+01
              0.194001515135954E+02
              0.603038774081222E+01
              0.305163368463831E+02
             -0.792345130905437E+01
             -0.579329481499131E+02
              0.741218408676053E+01
             -0.146787208196701E+02
             -0.187186499537455E+01
              0.496679173571583E+02
             -0.813137145758792E+02
             -0.149498008214624E+01
              0.511772593338890E+00
              0.979806325198024E+01
              0.312977686402278E+02
             -0.121554172895435E+02
              0.820899323948133E+02
              0.481031761483899E+02
             -0.180491949887402E+02
             -0.938772838354396E+01
              0.952565933768909E+00
              0.755760876189539E+02
             -0.577424149276571E+02
             -0.104002064385475E+03
              0.304414250577468E+02
             -0.161757775935633E+02
             -0.137102338170013E+02
              0.127033813119203E+02
              0.755134800676221E+02
              0.456821990572621E+02
             -0.150533426308928E+02
             -0.493585568985374E+02
             -0.527640194603802E+01
              0.301566441881970E+02
             -0.108459371064440E+02
             -0.742495789711954E+02
             -0.256255295194941E+01
             -0.872758759798441E+02
             -0.466294065934505E+02
              0.753404150358224E+02
             -0.474493250449353E+02
             -0.623954660836912E+02
             -0.505361817895422E+02
             -0.342816897640790E+02
              0.335336991091242E+02
              0.806624891950892E+02
             -0.342844333769352E+01
              0.271899311230281E+02
             -0.180171908983785E+02
             -0.681855202123517E+02
              0.456425643147996E+02
             -0.436557483014941E+02
              0.317420128822250E+02
              0.370977032507020E+02
             -0.627618677044865E+01
              0.383767480139889E+02
              0.431463187891835E+02
              0.985597938967662E+02
             -0.154283646227110E+02
             -0.446233767361608E+02
             -0.601091089200431E+02
             -0.120294263216212E+02
             -0.225798337233082E+02
              0.101407915204220E+03
             -0.441589875834421E+02
              0.103105023768368E+02
              0.966797828216284E+01
             -0.261231538790614E+02
             -0.783803336103343E+02
             -0.689184260241444E+01
              0.962319373381125E+02
              0.898882693767845E+01
              0.795091228231661E+01
             -0.516585739200800E+02
             -0.595574531167138E+02
             -0.530540511717732E+01
              0.492443482548362E+02
             -0.217302880525131E+02
              0.106200069289186E+03
             -0.427606371707389E+02
              0.142702709303088E+02
             -0.221720271181201E+02
             -0.707736779620844E+02
              0.155281803463282E+01
             -0.491843002966973E+02
             -0.747551399196710E+02
              0.595430503735338E+01
              0.231695572101009E+01
              0.505420599018720E+02
              0.182382673135640E+02
             -0.317684137299938E+02
              0.226134631298704E+02
             -0.795476357524836E+02
             -0.513336068591406E+02
              0.885541599774880E+02
              0.141266342226633E+02
             -0.187223434866592E+02
             -0.347859812512646E+02
             -0.268446215781182E+01
             -0.565377858719273E+01
              0.814523072335027E+02
              0.410766320419400E+02
             -0.164412752283612E+02
             -0.121915986166092E+02
             -0.420899667478742E+02
             -0.198181917361663E+02
             -0.658934402437968E+02
              0.450920525660187E+02
              0.536617897948980E+01
              0.143615387335997E+02
              0.152772375765249E+02
             -0.332909800685989E+00
             -0.164467802173712E+02
             -0.323193592591196E+01
             -0.984545766801165E+02
             -0.228186315249345E+02
             -0.749999716897884E+01
             -0.937506111057786E+01
              0.537531766747398E+02
              0.612560175934098E+02
              0.161649664976628E+02
             -0.954142889521177E+02
              0.636179068319697E+02
             -0.210732323844837E+02
             -0.370341827530725E+02
             -0.848615744363372E+02
             -0.382281817380566E+02
              0.553483252673650E+02
              0.238743373102292E+02
              0.488335652941549E+01
              0.285961307746960E+02
             -0.555056949857296E+02
             -0.413468674387947E+02
              0.504530813449680E+02
              0.379752526448790E+02
              0.510473598899882E+02
             -0.133563058071476E+01
              0.668658260077558E+01
              0.560109161367889E+02
              0.945232316297829E+02
             -0.297102858015655E+02
              0.315765197472797E+02
             -0.113533423614193E+02
             -0.404398828617192E+02
             -0.308307348311026E+02
             -0.294331142830280E+02
             -0.128841956658621E+02
             -0.514732693422523E+02
             -0.213797086317358E+02
             -0.138881842783807E+03
              0.363808488530282E+02
              0.201697168290984E+02
             -0.387770447711403E+01
             -0.373275282256652E+02
             -0.200720936519260E+02
             -0.516832712520029E+02
              0.150458421306663E+02
              0.806064376974101E+02
             -0.248892907250258E+02
             -0.159763011739411E+02
              0.234493803862381E+02
             -0.480779515316698E+02
              0.865430016664133E+02
              0.151687860390438E+02
              0.225092664130329E+02
              0.480856499300345E+02
              0.328686275558886E+01
              0.531560703867648E+02
              0.139444786199407E+02
             -0.106326468299068E+02
              0.706846967107862E+01
              0.924143900065872E+00
              0.715412817158393E+02
              0.100095749259456E+02
              0.116879787452130E+02
             -0.128660679201713E+02
              0.130511302439558E+02
             -0.894535249469532E+02
             -0.319490259786695E+02
             -0.448549546547086E+02
              0.476241532254909E+02
             -0.284893956888890E+02
             -0.648607203998655E+02
              0.527695223005254E+02
             -0.119563887362981E+02
              0.432899020681518E+02
             -0.882709970730898E+02
              0.229053172812807E+02
              0.847782920497812E+01
              0.571354236598233E+01
             -0.808447170266248E+01
             -0.891569405366033E+01
              0.470684138171360E+02
              0.194225940700642E+01
             -0.465592631045289E+02
             -0.172592263969522E+02
              0.273096631023974E+02
             -0.115928143105627E+03
             -0.914421593251738E+02
              0.395211731668149E+01
              0.114702722629389E+02
             -0.404559659636199E+02
             -0.391184489331476E+01
              0.110300715072682E+03
              0.300983635898800E+02
             -0.562255342093432E+02
              0.909418742993529E+01
             -0.943251159397734E+01
              0.103683396479792E+02
             -0.331474568811465E+02
              0.191452853361034E+02
              0.280379834863807E+02
             -0.280475968012718E+01
              0.106170529883226E+03
             -0.139820495704757E+02
             -0.310358025179733E+02
              0.137184309338455E+02
              0.459162464977103E+02
             -0.350313110955596E+02
             -0.314712042401403E+01
              0.947723729605881E+02
             -0.461744016755370E+01
              0.612274615113973E+02
              0.132591329118283E+02
             -0.888039584173160E+01
             -0.302533129506228E+02
              0.557830431082676E+02
             -0.503430756984403E+02
             -0.218590493345368E+01
             -0.166447393900918E+02
             -0.398202784376649E+02
              0.183031713386286E+02
              0.235069567512689E+02
              0.116358716186331E+02
              0.747174442612732E+00
             -0.376981883322394E+02
              0.212350188402367E+02
             -0.673453571635514E+01
             -0.242417995198202E+02
             -0.206990644823016E+02
              0.200218363544212E+02
             -0.599453352660839E+01
             -0.342342554007600E+02
             -0.104739468061973E+03
              0.101636345942867E+02
              0.246258031268039E+02
             -0.378518171279392E+02
             -0.206657689200136E+02
              0.792586067433673E+02
              0.628774538379395E+01
              0.302753743757937E+02
              0.369987228609520E+01
              0.314484506152435E+02
              0.643350042569273E+01
             -0.365822329021380E+02
             -0.212443762815192E+01
              0.867292293930734E+01
              0.268145093293206E+02
              0.768454228603982E+02
              0.498654294578851E+02
              0.119657536042894E+00
              0.167404719164523E+02
              0.602629567112292E+02
              0.230767887716100E+02
             -0.740649393624508E+02
             -0.268832016553134E+02
              0.149351718532679E+02
              0.543153611634881E+01
              0.250376323166566E+02
             -0.538722357390391E+02
              0.888168744620106E+01
              0.378695900488154E+02
              0.489261297495182E+02
             -0.427220167057119E+02
             -0.696900507738997E+01
             -0.202255130071404E+01
             -0.129885680621027E+02
             -0.360787903724081E+02
             -0.213170966841892E+02
             -0.181622907414720E+01
              0.773426689648409E+01
              0.413949162884016E+02
             -0.302138058450533E+02
              0.812009685075309E+02
              0.321228573346510E+02
              0.215150929558538E+02
              0.326828383334073E+02
              0.318767133040141E+02
              0.340184248046478E+02
              0.527296459629947E+02
             -0.425520499818362E+02
              0.608626840195380E+02
             -0.110268770930116E+03
              0.301716295056723E+02
             -0.104658034033152E+03
              0.840229354716397E+02
              0.676730891981370E+02
             -0.108337058554555E+02
             -0.484911510455739E+02
             -0.422189707939739E+02
             -0.614055286025007E+02
             -0.617204115118820E+02
              0.542189565581210E+02
              0.397854786667035E+02
              0.232325537896565E+02
              0.369327917903313E+02
              0.395033758581279E+02
             -0.374905556549706E+02
             -0.195233451789905E+02
              0.577483029106299E+02
             -0.114156427869695E+02
              0.543243568516747E+02
              0.685683632791240E+02
             -0.549534356686859E+01
             -0.693013879990217E+02
             -0.956737533204773E+00
             -0.249639655089351E+01
             -0.862547325438857E+01
             -0.188449425608951E+01
             -0.641658169321978E+02
             -0.209149021940087E+02
              0.516985199049690E+01
              0.875705988295911E+01
              0.460010759124881E+02
             -0.390066232190059E+02
              0.648435485794816E+02
             -0.418519820672356E+02
              0.205616928610108E+02
              0.342583903363345E+02
 
 BEEF-vdW xc energy contributions
           1 :   -770.128793121338     
           2 :    708.207155646665     
           3 :   -600.828852492399     
           4 :    474.143359985997     
           5 :   -354.897218145388     
           6 :    262.524797592832     
           7 :   -204.657129527481     
           8 :    177.003607298200     
           9 :   -167.216521181918     
          10 :    160.907519852059     
          11 :   -147.349207076826     
          12 :    122.709539239229     
          13 :   -89.9661874506079     
          14 :    56.0811502042584     
          15 :   -28.0648805487752     
          16 :    9.71984149301306     
          17 :  -0.330179704028410     
          18 :   -4.42782179285018     
          19 :    10.0363104827727     
          20 :   -20.4342284217236     
          21 :    36.3036003087508     
          22 :   -55.0321950683275     
          23 :    72.2095010379257     
          24 :   -83.8333638052168     
          25 :    88.1405420371899     
          26 :   -86.2542479260024     
          27 :    81.4411291986142     
          28 :   -77.4291303479420     
          29 :    76.6357755531099     
          30 :   -79.1477702758203     
          31 :   -84.1953155675562     
          32 :   -64.6655144675428     

     Writing output data file ./pwscf.save/
 
     init_run     :    334.62s CPU    338.95s WALL (       1 calls)
     electrons    :  13241.56s CPU  13363.03s WALL (       1 calls)
     forces       :     96.45s CPU     97.58s WALL (       1 calls)

     Called by init_run:
     wfcinit      :    288.00s CPU    291.42s WALL (       1 calls)
     potinit      :     44.11s CPU     44.45s WALL (       1 calls)
     hinit0       :      0.78s CPU      0.82s WALL (       1 calls)

     Called by electrons:
     c_bands      :  10956.87s CPU  11053.84s WALL (      20 calls)
     sum_band     :   1586.61s CPU   1597.13s WALL (      20 calls)
     v_of_rho     :    109.86s CPU    114.31s WALL (      20 calls)
     newd         :     27.60s CPU     37.26s WALL (      20 calls)
     PAW_pot      :    131.73s CPU    131.73s WALL (      20 calls)
     mix_rho      :    473.74s CPU    474.39s WALL (      20 calls)
     vdW_kernel   :     33.46s CPU     33.46s WALL (       1 calls)

     Called by c_bands:
     init_us_2    :     76.20s CPU     76.45s WALL (     546 calls)
     cegterg      :  10158.68s CPU  10255.36s WALL (     260 calls)

     Called by *egterg:
     cdiaghg      :     61.20s CPU     61.25s WALL (    1199 calls)
     h_psi        :   6704.76s CPU   6738.33s WALL (    1225 calls)
     s_psi        :   1007.45s CPU   1007.48s WALL (    1225 calls)
     g_psi        :     16.38s CPU     16.39s WALL (     952 calls)

     Called by h_psi:
     h_psi:calbec :    953.45s CPU    953.61s WALL (    1225 calls)
     vloc_psi     :   4717.80s CPU   4719.13s WALL (    1225 calls)
     add_vuspsi   :   1006.93s CPU   1007.02s WALL (    1225 calls)

     General routines
     calbec       :   1407.36s CPU   1407.53s WALL (    1537 calls)
     fft          :     53.26s CPU     53.28s WALL (    3220 calls)
     ffts         :    151.72s CPU    151.73s WALL (    9828 calls)
     fftw         :   4775.91s CPU   4776.71s WALL (  325490 calls)
 
     Parallel routines
 
     PWSCF        :      3h49m CPU      3h52m WALL

 
   This run was terminated on:  13:24:40  21Dec2022            

=------------------------------------------------------------------------------=
   JOB DONE.
=------------------------------------------------------------------------------=
