
     Program PWSCF v.6.7MaX starts on 27Sep2022 at  8:37:19 

     This program is part of the open-source Quantum ESPRESSO suite
     for quantum simulation of materials; please cite
         "P. Giannozzi et al., J. Phys.:Condens. Matter 21 395502 (2009);
         "P. Giannozzi et al., J. Phys.:Condens. Matter 29 465901 (2017);
          URL http://www.quantum-espresso.org", 
     in publications or presentations arising from this work. More details at
     http://www.quantum-espresso.org/quote

     Parallel version (MPI), running on     1 processors

     MPI processes distributed on     1 nodes
     Reading input from h2co-ensemble.in
Warning: card &CELL ignored
Warning: card / ignored

     Current dimensions of program PWSCF are:
     Max number of different atomic species (ntypx) = 10
     Max number of k-points (npk) =  40000
     Max angular momentum in pseudopotentials (lmaxx) =  3
     file Pt.pbe-n-kjpaw_psl.1.0.0.UPF: wavefunction(s)  6S 5D renormalized
     file C.pbe-n-kjpaw_psl.1.0.0.UPF: wavefunction(s)  2S 2P renormalized
     file H.pbe-kjpaw_psl.1.0.0.UPF: wavefunction(s)  1S renormalized
     file O.pbe-nl-kjpaw_psl.1.0.0.UPF: wavefunction(s)  2S 2P renormalized

     **************************************************************************
     Initializing libbeef V0.1.2 with the BEEF-vdW functional.
     Citation: Wellendorff et al., PRB 85, 235149 (2012).
     **************************************************************************


     IMPORTANT: XC functional enforced from input :
     Exchange-correlation= BEEF-VDW
                           (   1   4  43  14   2   0   0)
     Any further DFT definition will be discarded
     Please, verify this is what you really want


     Subspace diagonalization in iterative solution of the eigenvalue problem:
     a serial algorithm will be used

 
     G-vector sticks info
     --------------------
     sticks:   dense  smooth     PW     G-vecs:    dense   smooth      PW
     Sum        4267    4267   1159               724809   724809  102259
 


     bravais-lattice index     =            0
     lattice parameter (alat)  =      16.0349  a.u.
     unit-cell volume          =   11539.9598 (a.u.)^3
     number of atoms/cell      =           40
     number of atomic types    =            4
     number of electrons       =       372.00
     number of Kohn-Sham states=          223
     kinetic-energy cutoff     =      60.0000  Ry
     charge density cutoff     =     240.0000  Ry
     scf convergence threshold =      1.0E-06
     mixing beta               =       0.7000
     number of iterations used =            8  local-TF  mixing
     Exchange-correlation= BEEF-VDW
                           (   1   4  43  14   2   0   0)

     celldm(1)=  16.034858  celldm(2)=   0.000000  celldm(3)=   0.000000
     celldm(4)=   0.000000  celldm(5)=   0.000000  celldm(6)=   0.000000

     crystal axes: (cart. coord. in units of alat)
               a(1) = (   1.000000   0.000000   0.000000 )  
               a(2) = (   0.500000   0.866025   0.000000 )  
               a(3) = (   0.000000   0.000000   3.232052 )  

     reciprocal axes: (cart. coord. in units 2 pi/alat)
               b(1) = (  1.000000 -0.577350  0.000000 )  
               b(2) = (  0.000000  1.154701  0.000000 )  
               b(3) = (  0.000000  0.000000  0.309401 )  


     PseudoPot. # 1 for Pt read from file:
     /users/bkreitz1/quantum-espresso/potentials/Pt.pbe-n-kjpaw_psl.1.0.0.UPF
     MD5 check sum: 04dc8a03c51ece93fc7b5889c2958091
     Pseudo is Projector augmented-wave + core cor, Zval = 10.0
     Generated using 'atomic' code by A. Dal Corso  v.6.7MaX
     Shape of augmentation charge: PSQ
     Using radial grid of 1277 points,  6 beta functions with: 
                l(1) =   0
                l(2) =   0
                l(3) =   1
                l(4) =   1
                l(5) =   2
                l(6) =   2
     Q(r) pseudized with 0 coefficients 


     PseudoPot. # 2 for C  read from file:
     /users/bkreitz1/quantum-espresso/potentials/C.pbe-n-kjpaw_psl.1.0.0.UPF
     MD5 check sum: a169b0ebad56f5ec0d79c4633f80bf22
     Pseudo is Projector augmented-wave + core cor, Zval =  4.0
     Generated using 'atomic' code by A. Dal Corso  v.6.7MaX
     Shape of augmentation charge: PSQ
     Using radial grid of 1073 points,  4 beta functions with: 
                l(1) =   0
                l(2) =   0
                l(3) =   1
                l(4) =   1
     Q(r) pseudized with 0 coefficients 


     PseudoPot. # 3 for H  read from file:
     /users/bkreitz1/quantum-espresso/potentials/H.pbe-kjpaw_psl.1.0.0.UPF
     MD5 check sum: ae98473e6dc62675f0d0baffdab24f65
     Pseudo is Projector augmented-wave, Zval =  1.0
     Generated using 'atomic' code by A. Dal Corso  v.6.7MaX
     Shape of augmentation charge: PSQ
     Using radial grid of  929 points,  2 beta functions with: 
                l(1) =   0
                l(2) =   0
     Q(r) pseudized with 0 coefficients 


     PseudoPot. # 4 for O  read from file:
     /users/bkreitz1/quantum-espresso/potentials/O.pbe-nl-kjpaw_psl.1.0.0.UPF
     MD5 check sum: eef08af8b58d9ec80f8fdb78829eb7cf
     Pseudo is Projector augmented-wave + core cor, Zval =  6.0
     Generated using 'atomic' code by A. Dal Corso  v.6.7MaX
     Shape of augmentation charge: PSQ
     Using radial grid of 1095 points,  4 beta functions with: 
                l(1) =   0
                l(2) =   0
                l(3) =   1
                l(4) =   1
     Q(r) pseudized with 0 coefficients 


     atomic species   valence    mass     pseudopotential
        Pt            10.00   195.08400     Pt( 1.00)
        C              4.00    12.01100     C ( 1.00)
        H              1.00     1.00800     H ( 1.00)
        O              6.00    15.99900     O ( 1.00)

     No symmetry found



   Cartesian axes

     site n.     atom                  positions (alat units)
         1           Pt  tau(   1) = (   0.0000000   0.0000000   1.0017346  )
         2           Pt  tau(   2) = (   0.3333333   0.0000000   1.0017346  )
         3           Pt  tau(   3) = (   0.6666667   0.0000000   1.0017346  )
         4           Pt  tau(   4) = (   0.1666667   0.2886751   1.0017346  )
         5           Pt  tau(   5) = (   0.5000000   0.2886751   1.0017346  )
         6           Pt  tau(   6) = (   0.8333333   0.2886751   1.0017346  )
         7           Pt  tau(   7) = (   0.3333333   0.5773503   1.0017346  )
         8           Pt  tau(   8) = (   0.6666667   0.5773503   1.0017346  )
         9           Pt  tau(   9) = (   1.0000000   0.5773503   1.0017346  )
        10           Pt  tau(  10) = (   0.1666667   0.0962250   1.2739001  )
        11           Pt  tau(  11) = (   0.5000000   0.0962250   1.2739001  )
        12           Pt  tau(  12) = (   0.8333333   0.0962250   1.2739001  )
        13           Pt  tau(  13) = (   0.3333333   0.3849002   1.2739001  )
        14           Pt  tau(  14) = (   0.6666667   0.3849002   1.2739001  )
        15           Pt  tau(  15) = (   1.0000000   0.3849002   1.2739001  )
        16           Pt  tau(  16) = (   0.5000000   0.6735753   1.2739001  )
        17           Pt  tau(  17) = (   0.8333333   0.6735753   1.2739001  )
        18           Pt  tau(  18) = (   1.1666667   0.6735753   1.2739001  )
        19           Pt  tau(  19) = (  -0.0000763   0.1922478   1.5441500  )
        20           Pt  tau(  20) = (   0.3332243   0.1923365   1.5438150  )
        21           Pt  tau(  21) = (   0.6666563   0.1923117   1.5440516  )
        22           Pt  tau(  22) = (   0.1665761   0.4810744   1.5440536  )
        23           Pt  tau(  23) = (   0.4999581   0.4810892   1.5437582  )
        24           Pt  tau(  24) = (   0.8332748   0.4810619   1.5441725  )
        25           Pt  tau(  25) = (   0.3333459   0.7697121   1.5441596  )
        26           Pt  tau(  26) = (   0.6665283   0.7696785   1.5441472  )
        27           Pt  tau(  27) = (   0.9999614   0.7696454   1.5442080  )
        28           Pt  tau(  28) = (  -0.0000977  -0.0002349   1.8196947  )
        29           Pt  tau(  29) = (   0.3331723  -0.0002399   1.8192328  )
        30           Pt  tau(  30) = (   0.6665501  -0.0002326   1.8195302  )
        31           Pt  tau(  31) = (   0.1664753   0.2885128   1.8190024  )
        32           Pt  tau(  32) = (   0.4998923   0.2884458   1.8184023  )
        33           Pt  tau(  33) = (   0.8331432   0.2885022   1.8194597  )
        34           Pt  tau(  34) = (   0.3331894   0.5771231   1.8190708  )
        35           Pt  tau(  35) = (   0.6665754   0.5771323   1.8192965  )
        36           Pt  tau(  36) = (   0.9998074   0.5771373   1.8195230  )
        37           C   tau(  37) = (   0.4668345   0.2474159   2.2163500  )
        38           H   tau(  38) = (   0.3683818   0.1618989   2.2097066  )
        39           H   tau(  39) = (   0.5870541   0.1966052   2.2129899  )
        40           O   tau(  40) = (   0.4442908   0.3882554   2.2286888  )

     number of k points=    13  Marzari-Vanderbilt smearing, width (Ry)=  0.0050
                       cart. coord. in units 2pi/alat
        k(    1) = (   0.0000000   0.0000000   0.0000000), wk =   0.0800000
        k(    2) = (   0.0000000   0.2309401   0.0000000), wk =   0.1600000
        k(    3) = (   0.0000000   0.4618802   0.0000000), wk =   0.1600000
        k(    4) = (   0.2000000  -0.1154701   0.0000000), wk =   0.1600000
        k(    5) = (   0.2000000   0.1154701   0.0000000), wk =   0.1600000
        k(    6) = (   0.2000000   0.3464102   0.0000000), wk =   0.1600000
        k(    7) = (   0.2000000  -0.5773503   0.0000000), wk =   0.1600000
        k(    8) = (   0.2000000  -0.3464102   0.0000000), wk =   0.1600000
        k(    9) = (   0.4000000  -0.2309401   0.0000000), wk =   0.1600000
        k(   10) = (   0.4000000  -0.0000000   0.0000000), wk =   0.1600000
        k(   11) = (   0.4000000   0.2309401   0.0000000), wk =   0.1600000
        k(   12) = (   0.4000000  -0.6928203   0.0000000), wk =   0.1600000
        k(   13) = (   0.4000000  -0.4618802   0.0000000), wk =   0.1600000

     Dense  grid:   724809 G-vectors     FFT dimensions: (  80,  80, 256)

     Estimated max dynamical RAM per process >       8.75 GB

     Check: negative core charge=   -0.000001

     Initial potential from superposition of free atoms

     starting charge  371.99383, renormalised to  372.00000

     negative rho (up, down):  1.155E-02 0.000E+00


     %%%%%%%%%%%%%%%%%%%%%%%%%%%%%%%%%%%%%%%%%%%%%%%%%%%%%%%%%%%%%%%%%%%%%%%%
     %                                                                      %
     % You are using vdW-DF, which was implemented by the Thonhauser group. %
     % Please cite the following two papers that made this development      %
     % possible and the two reviews that describe the various versions:     %
     %                                                                      %
     %   T. Thonhauser et al., PRL 115, 136402 (2015).                      %
     %   T. Thonhauser et al., PRB 76, 125112 (2007).                       %
     %   K. Berland et al., Rep. Prog. Phys. 78, 066501 (2015).             %
     %   D.C. Langreth et al., J. Phys.: Condens. Matter 21, 084203 (2009). %
     %                                                                      %
     %                                                                      %
     % If you are calculating the stress with vdW-DF, please also cite:     %
     %                                                                      %
     %   R. Sabatini et al., J. Phys.: Condens. Matter 24, 424209 (2012).   %
     %                                                                      %
     %%%%%%%%%%%%%%%%%%%%%%%%%%%%%%%%%%%%%%%%%%%%%%%%%%%%%%%%%%%%%%%%%%%%%%%%


     Starting wfcs are  334 randomized atomic wfcs
     Checking if some PAW data can be deallocated... 

     total cpu time spent up to now is      341.7 secs

     Self-consistent Calculation

     iteration #  1     ecut=    60.00 Ry     beta= 0.70
     Davidson diagonalization with overlap
     ethr =  1.00E-02,  avg # of iterations =  2.0

     negative rho (up, down):  1.897E-02 0.000E+00

     total cpu time spent up to now is      964.7 secs

     total energy              =  -27817.09108570 Ry
     estimated scf accuracy    <       5.40056341 Ry

     iteration #  2     ecut=    60.00 Ry     beta= 0.70
     Davidson diagonalization with overlap
     ethr =  1.45E-03,  avg # of iterations =  2.6

     negative rho (up, down):  1.780E-02 0.000E+00

     total cpu time spent up to now is     1587.4 secs

     total energy              =  -27817.92165840 Ry
     estimated scf accuracy    <       0.83103849 Ry

     iteration #  3     ecut=    60.00 Ry     beta= 0.70
     Davidson diagonalization with overlap
     ethr =  2.23E-04,  avg # of iterations =  4.5

     negative rho (up, down):  1.540E-02 0.000E+00

     total cpu time spent up to now is     2367.5 secs

     total energy              =  -27818.09290957 Ry
     estimated scf accuracy    <       0.29092731 Ry

     iteration #  4     ecut=    60.00 Ry     beta= 0.70
     Davidson diagonalization with overlap
     ethr =  7.82E-05,  avg # of iterations =  5.0

     negative rho (up, down):  1.103E-02 0.000E+00

     total cpu time spent up to now is     3097.3 secs

     total energy              =  -27818.12953543 Ry
     estimated scf accuracy    <       0.10227582 Ry

     iteration #  5     ecut=    60.00 Ry     beta= 0.70
     Davidson diagonalization with overlap
     ethr =  2.75E-05,  avg # of iterations =  7.5

     negative rho (up, down):  1.008E-02 0.000E+00

     total cpu time spent up to now is     3878.8 secs

     total energy              =  -27818.14506378 Ry
     estimated scf accuracy    <       0.04749266 Ry

     iteration #  6     ecut=    60.00 Ry     beta= 0.70
     Davidson diagonalization with overlap
     ethr =  1.28E-05,  avg # of iterations =  6.2

     negative rho (up, down):  9.012E-03 0.000E+00

     total cpu time spent up to now is     4552.8 secs

     total energy              =  -27818.14933156 Ry
     estimated scf accuracy    <       0.00677227 Ry

     iteration #  7     ecut=    60.00 Ry     beta= 0.70
     Davidson diagonalization with overlap
     c_bands:  2 eigenvalues not converged
     c_bands:  4 eigenvalues not converged
     c_bands:  3 eigenvalues not converged
     c_bands:  4 eigenvalues not converged
     ethr =  1.82E-06,  avg # of iterations = 10.5

     negative rho (up, down):  8.825E-03 0.000E+00

     total cpu time spent up to now is     5617.9 secs

     total energy              =  -27818.15237332 Ry
     estimated scf accuracy    <       0.00272739 Ry

     iteration #  8     ecut=    60.00 Ry     beta= 0.70
     Davidson diagonalization with overlap
     c_bands:  1 eigenvalues not converged
     ethr =  7.33E-07,  avg # of iterations =  4.4

     negative rho (up, down):  8.776E-03 0.000E+00

     total cpu time spent up to now is     6297.8 secs

     total energy              =  -27818.15254615 Ry
     estimated scf accuracy    <       0.00076279 Ry

     iteration #  9     ecut=    60.00 Ry     beta= 0.70
     Davidson diagonalization with overlap
     c_bands:  1 eigenvalues not converged
     ethr =  2.05E-07,  avg # of iterations =  5.5

     negative rho (up, down):  8.980E-03 0.000E+00

     total cpu time spent up to now is     7008.4 secs

     total energy              =  -27818.15263105 Ry
     estimated scf accuracy    <       0.00070276 Ry

     iteration # 10     ecut=    60.00 Ry     beta= 0.70
     Davidson diagonalization with overlap
     ethr =  1.89E-07,  avg # of iterations =  1.7

     negative rho (up, down):  9.568E-03 0.000E+00

     total cpu time spent up to now is     7567.1 secs

     total energy              =  -27818.15265156 Ry
     estimated scf accuracy    <       0.00022948 Ry

     iteration # 11     ecut=    60.00 Ry     beta= 0.70
     Davidson diagonalization with overlap
     ethr =  6.17E-08,  avg # of iterations =  3.2

     negative rho (up, down):  1.051E-02 0.000E+00

     total cpu time spent up to now is     8191.4 secs

     total energy              =  -27818.15265908 Ry
     estimated scf accuracy    <       0.00020356 Ry

     iteration # 12     ecut=    60.00 Ry     beta= 0.70
     Davidson diagonalization with overlap
     ethr =  5.47E-08,  avg # of iterations =  1.2

     negative rho (up, down):  1.104E-02 0.000E+00

     total cpu time spent up to now is     8756.6 secs

     total energy              =  -27818.15266353 Ry
     estimated scf accuracy    <       0.00005536 Ry

     iteration # 13     ecut=    60.00 Ry     beta= 0.70
     Davidson diagonalization with overlap
     ethr =  1.49E-08,  avg # of iterations =  4.2

     negative rho (up, down):  1.159E-02 0.000E+00

     total cpu time spent up to now is     9438.2 secs

     total energy              =  -27818.15266979 Ry
     estimated scf accuracy    <       0.00002286 Ry

     iteration # 14     ecut=    60.00 Ry     beta= 0.70
     Davidson diagonalization with overlap
     ethr =  6.15E-09,  avg # of iterations =  3.8

     negative rho (up, down):  1.200E-02 0.000E+00

     total cpu time spent up to now is    10115.2 secs

     total energy              =  -27818.15267153 Ry
     estimated scf accuracy    <       0.00000695 Ry

     iteration # 15     ecut=    60.00 Ry     beta= 0.70
     Davidson diagonalization with overlap
     ethr =  1.87E-09,  avg # of iterations =  4.4

     negative rho (up, down):  1.202E-02 0.000E+00

     total cpu time spent up to now is    10876.3 secs

     total energy              =  -27818.15267320 Ry
     estimated scf accuracy    <       0.00000265 Ry

     iteration # 16     ecut=    60.00 Ry     beta= 0.70
     Davidson diagonalization with overlap
     ethr =  7.12E-10,  avg # of iterations =  3.1

     negative rho (up, down):  1.228E-02 0.000E+00

     total cpu time spent up to now is    11522.9 secs

     total energy              =  -27818.15267269 Ry
     estimated scf accuracy    <       0.00000234 Ry

     iteration # 17     ecut=    60.00 Ry     beta= 0.70
     Davidson diagonalization with overlap
     ethr =  6.30E-10,  avg # of iterations =  1.1

     negative rho (up, down):  1.247E-02 0.000E+00

     total cpu time spent up to now is    12076.6 secs

     total energy              =  -27818.15267220 Ry
     estimated scf accuracy    <       0.00000112 Ry

     iteration # 18     ecut=    60.00 Ry     beta= 0.70
     Davidson diagonalization with overlap
     ethr =  3.01E-10,  avg # of iterations =  2.0

     negative rho (up, down):  1.289E-02 0.000E+00

     total cpu time spent up to now is    12654.9 secs

     End of self-consistent calculation

          k = 0.0000 0.0000 0.0000 ( 90595 PWs)   bands (ev):

   -19.6598  -8.7602  -7.2501  -5.9653  -5.0719  -4.8983  -4.8314  -4.8271
    -4.8267  -4.8259  -4.8248  -4.8238  -4.8233  -4.2792  -4.2777  -4.2775
    -4.2770  -4.2764  -4.2762  -3.8818  -3.8107  -3.8098  -3.8089  -3.8079
    -3.8075  -3.8072  -3.5937  -3.5886  -3.5881  -3.5873  -3.5868  -3.5866
    -3.3666  -3.3651  -3.3646  -3.3632  -3.3628  -3.3627  -3.3434  -3.3429
    -3.3331  -3.3327  -3.2975  -3.2961  -2.9201  -2.7573  -2.7571  -2.7039
    -2.7038  -2.6660  -2.6652  -2.6647  -2.6637  -2.6631  -2.6576  -2.5204
    -2.5203  -2.4125  -2.4122  -1.9293  -1.9291  -1.9282  -1.9262  -1.9261
    -1.9244  -1.8608  -1.7576  -1.7576  -1.7408  -1.7406  -1.7217  -1.7212
    -1.7038  -1.6851  -1.6849  -1.6836  -1.6827  -1.6824  -1.6803  -1.6481
    -1.6479  -1.5111  -1.5096  -1.5090  -1.5081  -1.5078  -1.5066  -1.3160
    -1.3148  -1.3139  -1.3123  -1.3116  -1.3105  -1.2726  -1.2725  -1.1731
    -1.1729  -1.1154  -1.1152  -1.1002  -1.0982  -1.0662  -1.0656  -1.0467
    -1.0432  -0.8838  -0.8806  -0.8798  -0.8778  -0.8764  -0.8761  -0.8611
    -0.3793  -0.3787  -0.3763  -0.3756  -0.3750  -0.3747  -0.3271  -0.3250
    -0.3227  -0.3203  -0.3196  -0.3186  -0.2550  -0.2544  -0.0845  -0.0832
    -0.0797  -0.0757  -0.0754  -0.0694   0.0590   0.0592   0.0802   0.0803
     0.0876   0.0902   0.3481   0.3487   0.3501   0.3510   0.3513   0.3520
     0.4288   0.4293   0.5874   0.5959   0.5974   0.5988   0.5998   0.6009
     0.7284   0.7725   0.7730   0.7734   0.7745   0.7747   0.7758   0.8112
     0.8161   0.8176   0.8184   0.8234   0.8493   0.9479   0.9510   0.9643
     0.9649   0.9668   0.9669   0.9673   0.9677   1.0601   1.0605   1.0612
     1.0617   1.0619   1.0622   1.0830   1.0831   1.1689   1.1695   1.1705
     1.1711   1.1714   1.1719   1.2755   1.2783   1.2915   1.2920   1.2944
     1.2949   1.3868   1.5015   1.5031   1.6049   1.6052   1.6057   1.6059
     1.6064   1.6069   2.4571   2.4813   2.4932   2.4963   2.4987   2.5057
     2.5314   4.3891   4.7991   4.8090   4.8134   4.8233   4.8318   5.0071
     6.2947   6.3757   6.3762   6.4317   6.4322   6.4335   6.4360

          k = 0.0000 0.2309 0.0000 ( 90526 PWs)   bands (ev):

   -19.6598  -8.7602  -7.1029  -5.8200  -5.3415  -5.0721  -4.9409  -4.9402
    -4.7505  -4.6946  -4.6361  -4.5907  -4.5902  -4.4004  -4.3688  -4.2127
    -4.2123  -4.1995  -4.1982  -3.9068  -3.8802  -3.7775  -3.7774  -3.7701
    -3.7616  -3.6904  -3.6900  -3.6309  -3.6297  -3.5951  -3.5946  -3.5552
    -3.4913  -3.4911  -3.4014  -3.3874  -3.3847  -3.3521  -3.3516  -3.1562
    -3.1555  -3.1513  -3.1507  -3.1103  -2.9210  -2.8724  -2.8694  -2.8341
    -2.7790  -2.7780  -2.7463  -2.7435  -2.5693  -2.5671  -2.4950  -2.4943
    -2.4544  -2.4192  -2.4187  -2.2038  -2.1089  -2.1085  -2.0390  -2.0379
    -2.0050  -1.9486  -1.9259  -1.9241  -1.9001  -1.8844  -1.8841  -1.8301
    -1.7702  -1.7512  -1.7282  -1.7276  -1.6525  -1.6382  -1.6378  -1.5664
    -1.5505  -1.5496  -1.4998  -1.4547  -1.4423  -1.4413  -1.4311  -1.3482
    -1.3398  -1.3383  -1.3227  -1.3221  -1.2670  -1.2665  -1.2500  -1.1912
    -1.1770  -1.1657  -1.1524  -1.1207  -1.1197  -1.0725  -1.0701  -1.0690
    -0.9664  -0.9023  -0.8875  -0.8839  -0.8748  -0.8736  -0.8586  -0.8580
    -0.8508  -0.7937  -0.7900  -0.7740  -0.7733  -0.5464  -0.4617  -0.4081
    -0.3696  -0.3690  -0.3622  -0.3618  -0.3223  -0.3220  -0.1663  -0.1653
    -0.1643  -0.0655  -0.0189  -0.0172   0.0092   0.0185   0.1011   0.1015
     0.1114   0.1134   0.1971   0.2219   0.2221   0.2387   0.2393   0.4412
     0.4560   0.4565   0.4738   0.4742   0.4945   0.5033   0.5879   0.5948
     0.6246   0.6374   0.6677   0.6985   0.7089   0.7113   0.7116   0.7501
     0.8298   0.8400   0.8594   0.8660   0.9484   0.9935   0.9940   1.0134
     1.0144   1.0362   1.0794   1.0802   1.1376   1.1379   1.2053   1.2075
     1.2181   1.2553   1.2582   1.2642   1.2648   1.2653   1.2703   1.3402
     1.3413   1.4929   1.4935   1.5098   1.5234   1.5399   1.5404   1.5706
     1.6106   1.6111   1.6201   1.7266   1.7267   1.7440   1.9109   1.9127
     1.9131   1.9562   1.9873   2.3689   2.3733   3.0755   3.0863   3.1326
     3.2338   4.0556   4.4273   4.5462   4.6856   5.2464   5.2481   5.3769
     5.4070   5.6591   6.2129   6.2181   6.3338   6.4918   6.6128

          k = 0.0000 0.4619 0.0000 ( 90536 PWs)   bands (ev):

   -19.6598  -8.7602  -6.6793  -6.0434  -5.4124  -5.0726  -4.9740  -4.9729
    -4.8539  -4.6106  -4.4589  -4.3530  -4.3083  -4.2477  -4.2473  -4.0816
    -4.0789  -4.0312  -4.0257  -4.0253  -3.9244  -3.8769  -3.8605  -3.8604
    -3.8107  -3.8102  -3.7906  -3.7505  -3.6799  -3.6795  -3.6783  -3.4138
    -3.4131  -3.4096  -3.4094  -3.3961  -3.3950  -3.1690  -3.1638  -3.1362
    -3.1350  -3.1063  -3.1053  -2.9284  -2.9192  -2.8306  -2.8269  -2.8150
    -2.8144  -2.7500  -2.7482  -2.6857  -2.6800  -2.6762  -2.6085  -2.6078
    -2.4598  -2.4594  -2.4271  -2.4258  -2.3204  -2.2767  -2.2356  -2.2347
    -2.2331  -2.0970  -2.0235  -2.0215  -2.0116  -2.0099  -1.9117  -1.9110
    -1.9018  -1.7728  -1.7716  -1.7710  -1.7691  -1.6457  -1.6452  -1.6437
    -1.6246  -1.6240  -1.5665  -1.5323  -1.5315  -1.5211  -1.4978  -1.4976
    -1.4925  -1.4891  -1.4575  -1.3630  -1.3585  -1.3574  -1.3442  -1.3191
    -1.3183  -1.2867  -1.1772  -1.1629  -1.1156  -1.1152  -1.0764  -1.0744
    -1.0500  -1.0238  -1.0232  -0.9085  -0.8863  -0.8653  -0.8189  -0.8177
    -0.7828  -0.6428  -0.6419  -0.6038  -0.5494  -0.4758  -0.4749  -0.4394
    -0.4286  -0.4267  -0.4237  -0.4222  -0.3455  -0.3171  -0.3053  -0.3049
    -0.2819  -0.2807  -0.2503  -0.2470  -0.2039  -0.1988  -0.0868  -0.0654
    -0.0649   0.0036   0.0730   0.1143   0.1145   0.2394   0.2397   0.3085
     0.3554   0.4087   0.4103   0.4403   0.4551   0.4936   0.4942   0.5565
     0.5583   0.5973   0.5983   0.6716   0.6964   0.7121   0.7470   0.7674
     0.7762   0.7764   0.7866   0.8563   0.9638   0.9684   1.0484   1.0511
     1.0516   1.0687   1.1517   1.1613   1.1614   1.2592   1.2636   1.2681
     1.2728   1.3445   1.3583   1.3589   1.3765   1.4964   1.4976   1.5207
     1.5216   1.5272   1.5448   1.5452   1.5486   1.7250   1.7667   1.7672
     1.7735   1.7743   1.9488   1.9870   2.3766   2.3813   2.4444   2.6843
     2.8173   2.8175   3.2075   3.2099   3.3895   3.5480   4.0251   4.0336
     4.0365   4.1654   4.2509   4.2958   4.4047   4.4439   4.6257   4.6933
     4.7484   5.3285   5.3642   5.8566   5.8726   6.3365   6.3523

          k = 0.2000-0.1155 0.0000 ( 90526 PWs)   bands (ev):

   -19.6598  -8.7602  -7.1029  -5.8201  -5.3414  -5.0720  -4.9412  -4.9403
    -4.7505  -4.6945  -4.6357  -4.5911  -4.5902  -4.4005  -4.3689  -4.2126
    -4.2122  -4.1995  -4.1980  -3.9070  -3.8805  -3.7777  -3.7772  -3.7700
    -3.7611  -3.6909  -3.6898  -3.6310  -3.6296  -3.5952  -3.5942  -3.5551
    -3.4917  -3.4911  -3.4009  -3.3873  -3.3848  -3.3525  -3.3513  -3.1565
    -3.1551  -3.1517  -3.1505  -3.1109  -2.9236  -2.8725  -2.8691  -2.8303
    -2.7790  -2.7775  -2.7462  -2.7448  -2.5693  -2.5677  -2.4952  -2.4943
    -2.4541  -2.4193  -2.4187  -2.2041  -2.1089  -2.1086  -2.0394  -2.0383
    -2.0050  -1.9491  -1.9255  -1.9238  -1.8998  -1.8843  -1.8840  -1.8300
    -1.7703  -1.7515  -1.7286  -1.7274  -1.6525  -1.6372  -1.6367  -1.5664
    -1.5510  -1.5499  -1.4997  -1.4549  -1.4434  -1.4418  -1.4305  -1.3482
    -1.3395  -1.3382  -1.3227  -1.3220  -1.2672  -1.2662  -1.2499  -1.1905
    -1.1769  -1.1664  -1.1519  -1.1207  -1.1193  -1.0726  -1.0700  -1.0686
    -0.9663  -0.9021  -0.8887  -0.8841  -0.8743  -0.8729  -0.8593  -0.8575
    -0.8500  -0.7944  -0.7902  -0.7745  -0.7735  -0.5474  -0.4621  -0.4080
    -0.3695  -0.3685  -0.3623  -0.3617  -0.3228  -0.3215  -0.1667  -0.1652
    -0.1641  -0.0650  -0.0188  -0.0177   0.0082   0.0194   0.1013   0.1017
     0.1114   0.1133   0.1971   0.2219   0.2225   0.2384   0.2393   0.4413
     0.4561   0.4565   0.4738   0.4749   0.4931   0.5015   0.5890   0.5916
     0.6245   0.6373   0.6674   0.7053   0.7086   0.7109   0.7116   0.7558
     0.8287   0.8330   0.8592   0.8617   0.9557   0.9929   0.9940   1.0128
     1.0143   1.0364   1.0793   1.0809   1.1371   1.1382   1.2054   1.2066
     1.2181   1.2552   1.2579   1.2644   1.2646   1.2653   1.2718   1.3407
     1.3417   1.4933   1.4938   1.5092   1.5233   1.5393   1.5404   1.5703
     1.6099   1.6105   1.6201   1.7259   1.7267   1.7440   1.9107   1.9127
     1.9130   1.9583   1.9905   2.3632   2.3737   3.0724   3.0837   3.1373
     3.2383   4.0661   4.4025   4.5469   4.7013   5.2462   5.2476   5.3718
     5.4052   5.6624   6.2107   6.2165   6.3701   6.5019   6.6125

          k = 0.2000 0.1155 0.0000 ( 90526 PWs)   bands (ev):

   -19.6598  -8.7602  -7.1029  -5.8201  -5.3413  -5.0719  -4.9413  -4.9406
    -4.7505  -4.6944  -4.6354  -4.5911  -4.5906  -4.4005  -4.3689  -4.2125
    -4.2122  -4.1992  -4.1981  -3.9071  -3.8808  -3.7777  -3.7773  -3.7696
    -3.7607  -3.6910  -3.6900  -3.6312  -3.6297  -3.5950  -3.5943  -3.5551
    -3.4917  -3.4914  -3.4006  -3.3873  -3.3847  -3.3523  -3.3516  -3.1563
    -3.1554  -3.1514  -3.1507  -3.1110  -2.9211  -2.8726  -2.8701  -2.8338
    -2.7788  -2.7778  -2.7464  -2.7432  -2.5695  -2.5677  -2.4949  -2.4945
    -2.4542  -2.4191  -2.4185  -2.2045  -2.1088  -2.1086  -2.0400  -2.0388
    -2.0053  -1.9498  -1.9249  -1.9235  -1.8995  -1.8844  -1.8839  -1.8299
    -1.7703  -1.7521  -1.7285  -1.7278  -1.6525  -1.6359  -1.6356  -1.5665
    -1.5513  -1.5500  -1.4996  -1.4553  -1.4439  -1.4431  -1.4299  -1.3483
    -1.3391  -1.3378  -1.3230  -1.3222  -1.2674  -1.2662  -1.2497  -1.1897
    -1.1769  -1.1671  -1.1520  -1.1206  -1.1193  -1.0727  -1.0695  -1.0685
    -0.9663  -0.9022  -0.8888  -0.8844  -0.8739  -0.8724  -0.8594  -0.8572
    -0.8503  -0.7945  -0.7900  -0.7747  -0.7732  -0.5476  -0.4623  -0.4078
    -0.3692  -0.3684  -0.3628  -0.3617  -0.3227  -0.3214  -0.1667  -0.1650
    -0.1639  -0.0642  -0.0190  -0.0174   0.0073   0.0202   0.1014   0.1019
     0.1108   0.1137   0.1970   0.2219   0.2226   0.2383   0.2389   0.4419
     0.4562   0.4565   0.4735   0.4746   0.4952   0.5029   0.5876   0.5934
     0.6246   0.6374   0.6669   0.7040   0.7078   0.7110   0.7117   0.7514
     0.8293   0.8356   0.8592   0.8634   0.9538   0.9927   0.9943   1.0124
     1.0142   1.0367   1.0793   1.0814   1.1369   1.1381   1.2055   1.2070
     1.2182   1.2553   1.2579   1.2643   1.2647   1.2652   1.2713   1.3410
     1.3420   1.4935   1.4942   1.5085   1.5233   1.5393   1.5400   1.5700
     1.6093   1.6101   1.6201   1.7260   1.7269   1.7440   1.9105   1.9127
     1.9130   1.9594   1.9918   2.3609   2.3715   3.0725   3.0837   3.1385
     3.2411   4.0776   4.3738   4.5444   4.7197   5.2463   5.2476   5.3729
     5.4138   5.6532   6.2114   6.2163   6.3719   6.5066   6.6122

          k = 0.2000 0.3464 0.0000 ( 90572 PWs)   bands (ev):

   -19.6598  -8.7602  -6.8168  -5.5903  -5.5879  -5.5421  -5.0720  -4.5133
    -4.5126  -4.5023  -4.4984  -4.4705  -4.4362  -4.4347  -4.4334  -4.3261
    -4.3258  -3.9370  -3.9368  -3.9272  -3.9266  -3.8798  -3.8570  -3.8394
    -3.6898  -3.6892  -3.6876  -3.6804  -3.6797  -3.5755  -3.5329  -3.5303
    -3.5185  -3.5182  -3.4478  -3.4193  -3.4146  -3.3649  -3.3617  -3.2753
    -3.0288  -2.9488  -2.9330  -2.9167  -2.9021  -2.8772  -2.8712  -2.8668
    -2.8633  -2.8129  -2.7816  -2.6373  -2.6352  -2.6271  -2.5356  -2.5075
    -2.4651  -2.4624  -2.4459  -2.3597  -2.3595  -2.1939  -2.1923  -2.1628
    -2.0895  -2.0883  -2.0504  -2.0477  -2.0465  -1.9883  -1.9788  -1.8284
    -1.8150  -1.8127  -1.7991  -1.7452  -1.7438  -1.6858  -1.6845  -1.6509
    -1.6470  -1.5278  -1.5116  -1.5104  -1.4919  -1.4758  -1.4645  -1.4627
    -1.4278  -1.4115  -1.3578  -1.3555  -1.3222  -1.3185  -1.2307  -1.2276
    -1.1975  -1.1766  -1.1350  -1.1328  -1.1314  -1.0858  -1.0616  -1.0600
    -1.0594  -1.0574  -1.0368  -1.0267  -1.0218  -0.9678  -0.9667  -0.8642
    -0.8155  -0.8100  -0.7328  -0.7326  -0.7178  -0.7162  -0.5334  -0.5326
    -0.4070  -0.3975  -0.3572  -0.3445  -0.3411  -0.3163  -0.3152  -0.2603
    -0.2581  -0.2342  -0.2316  -0.1885  -0.1360  -0.0302   0.0403   0.0417
     0.0853   0.0860   0.0998   0.1455   0.1644   0.2789   0.2827   0.2913
     0.3530   0.3559   0.4289   0.4839   0.4891   0.5083   0.5108   0.5825
     0.5885   0.5912   0.6069   0.6087   0.6244   0.6264   0.6390   0.6404
     0.7493   0.7782   0.8418   0.8467   0.9849   0.9876   1.0067   1.1511
     1.1550   1.1576   1.1584   1.2572   1.2887   1.2949   1.3021   1.3030
     1.3415   1.3423   1.3656   1.3698   1.3706   1.4286   1.4309   1.4499
     1.5213   1.5465   1.5481   1.5802   1.5810   1.6301   1.7635   1.8086
     1.8098   1.8962   1.8984   1.8991   1.9078   2.0436   2.0455   2.4991
     2.5802   2.5818   3.1121   3.1164   3.1383   3.1484   3.8036   3.8406
     3.9072   4.0430   4.0667   4.0908   4.5587   4.7600   5.2353   5.2778
     5.3160   5.4788   5.9425   6.0070   6.0553   6.0662   6.1215

          k = 0.2000-0.5774 0.0000 ( 90636 PWs)   bands (ev):

   -19.6598  -8.7602  -6.2819  -6.2798  -5.6720  -5.0741  -5.0454  -5.0422
    -4.5258  -4.5098  -4.3767  -4.3345  -4.2293  -4.2284  -4.1205  -4.1199
    -4.0198  -4.0166  -3.9917  -3.9616  -3.9499  -3.9488  -3.9482  -3.8709
    -3.8030  -3.7903  -3.7892  -3.7421  -3.7413  -3.6822  -3.5866  -3.5420
    -3.4913  -3.3900  -3.3887  -3.3784  -3.3778  -3.3437  -3.2612  -3.2600
    -3.1461  -3.1417  -2.9754  -2.9558  -2.9148  -2.9086  -2.8091  -2.8071
    -2.7602  -2.7581  -2.6427  -2.5870  -2.5549  -2.5545  -2.5299  -2.4725
    -2.4708  -2.4520  -2.3455  -2.3439  -2.3226  -2.3025  -2.3015  -2.3004
    -2.2976  -2.2296  -2.2272  -2.0992  -2.0904  -2.0257  -2.0233  -1.9308
    -1.8865  -1.8701  -1.8675  -1.8106  -1.7929  -1.7918  -1.7050  -1.6890
    -1.6874  -1.6777  -1.6505  -1.6145  -1.5615  -1.5584  -1.4853  -1.4437
    -1.4409  -1.4401  -1.4385  -1.3142  -1.2671  -1.2654  -1.2391  -1.2375
    -1.1836  -1.1792  -1.1768  -1.1759  -1.1402  -1.1388  -1.1032  -1.1022
    -1.0528  -1.0373  -1.0355  -1.0282  -1.0278  -1.0261  -0.9954  -0.9319
    -0.9288  -0.9075  -0.7050  -0.7022  -0.6174  -0.6169  -0.4972  -0.4956
    -0.4907  -0.4626  -0.4070  -0.4065  -0.4024  -0.3803  -0.3749  -0.2863
    -0.2558  -0.2520  -0.1818  -0.1772  -0.1680  -0.1104  -0.1020  -0.0522
     0.0778   0.1451   0.1486   0.1688   0.1702   0.2534   0.2734   0.2770
     0.3010   0.3079   0.3165   0.3417   0.3423   0.4677   0.4719   0.4812
     0.5323   0.5365   0.5554   0.5701   0.5832   0.5881   0.7425   0.7504
     0.7890   0.8266   0.9043   0.9075   0.9848   0.9856   1.0703   1.1125
     1.1166   1.1196   1.2205   1.2262   1.2977   1.3243   1.3368   1.3427
     1.3481   1.3901   1.3936   1.4345   1.5012   1.5023   1.5307   1.5562
     1.5581   1.5614   1.5701   1.6230   1.7514   1.7701   1.7715   1.7725
     1.7734   1.8409   1.9125   1.9607   2.0925   2.9251   2.9253   3.1365
     3.1682   3.1871   3.3132   3.3185   3.3333   3.7591   3.9394   3.9397
     4.2885   4.3996   4.4118   4.5203   4.5360   4.6053   4.7537   4.8437
     4.9430   5.0178   5.2769   5.3712   5.3865   5.9415   6.0202

          k = 0.2000-0.3464 0.0000 ( 90572 PWs)   bands (ev):

   -19.6598  -8.7602  -6.8168  -5.5900  -5.5882  -5.5420  -5.0720  -4.5134
    -4.5127  -4.5023  -4.4985  -4.4705  -4.4358  -4.4347  -4.4334  -4.3261
    -4.3257  -3.9378  -3.9370  -3.9272  -3.9265  -3.8795  -3.8572  -3.8394
    -3.6897  -3.6892  -3.6877  -3.6803  -3.6799  -3.5751  -3.5324  -3.5304
    -3.5187  -3.5181  -3.4476  -3.4189  -3.4151  -3.3649  -3.3616  -3.2758
    -3.0280  -2.9556  -2.9338  -2.9204  -2.8967  -2.8768  -2.8721  -2.8670
    -2.8554  -2.8129  -2.7818  -2.6376  -2.6353  -2.6275  -2.5356  -2.5075
    -2.4650  -2.4624  -2.4464  -2.3598  -2.3592  -2.1941  -2.1917  -2.1626
    -2.0886  -2.0882  -2.0494  -2.0483  -2.0465  -1.9885  -1.9787  -1.8281
    -1.8148  -1.8136  -1.7994  -1.7453  -1.7443  -1.6851  -1.6847  -1.6498
    -1.6482  -1.5274  -1.5110  -1.5105  -1.4917  -1.4757  -1.4643  -1.4630
    -1.4281  -1.4112  -1.3574  -1.3565  -1.3224  -1.3189  -1.2305  -1.2278
    -1.1976  -1.1768  -1.1344  -1.1339  -1.1318  -1.0857  -1.0612  -1.0600
    -1.0595  -1.0574  -1.0369  -1.0268  -1.0220  -0.9676  -0.9669  -0.8642
    -0.8148  -0.8107  -0.7331  -0.7330  -0.7180  -0.7166  -0.5334  -0.5323
    -0.4075  -0.3975  -0.3572  -0.3451  -0.3416  -0.3160  -0.3148  -0.2599
    -0.2581  -0.2338  -0.2319  -0.1887  -0.1353  -0.0308   0.0407   0.0417
     0.0854   0.0857   0.0996   0.1451   0.1643   0.2789   0.2822   0.2915
     0.3538   0.3554   0.4287   0.4829   0.4891   0.5082   0.5104   0.5837
     0.5874   0.5905   0.6068   0.6096   0.6242   0.6263   0.6394   0.6409
     0.7512   0.7762   0.8412   0.8489   0.9853   0.9871   1.0069   1.1522
     1.1547   1.1573   1.1588   1.2559   1.2892   1.2945   1.3024   1.3029
     1.3413   1.3420   1.3656   1.3690   1.3702   1.4289   1.4303   1.4506
     1.5209   1.5468   1.5479   1.5803   1.5809   1.6300   1.7641   1.8092
     1.8099   1.8981   1.8986   1.8998   1.9062   2.0437   2.0453   2.4973
     2.5801   2.5819   3.1132   3.1162   3.1431   3.1479   3.8040   3.8363
     3.9049   4.0433   4.0636   4.0896   4.5653   4.7649   5.2354   5.2764
     5.3068   5.4786   5.9430   6.0165   6.0560   6.0602   6.0692

          k = 0.4000-0.2309 0.0000 ( 90536 PWs)   bands (ev):

   -19.6598  -8.7602  -6.6793  -6.0433  -5.4127  -5.0726  -4.9743  -4.9732
    -4.8534  -4.6103  -4.4589  -4.3530  -4.3082  -4.2480  -4.2474  -4.0813
    -4.0785  -4.0314  -4.0256  -4.0252  -3.9252  -3.8770  -3.8609  -3.8601
    -3.8106  -3.8099  -3.7906  -3.7495  -3.6800  -3.6795  -3.6783  -3.4140
    -3.4128  -3.4097  -3.4094  -3.3964  -3.3952  -3.1690  -3.1640  -3.1368
    -3.1347  -3.1065  -3.1054  -2.9419  -2.9053  -2.8303  -2.8253  -2.8150
    -2.8142  -2.7499  -2.7493  -2.6861  -2.6801  -2.6763  -2.6086  -2.6080
    -2.4600  -2.4596  -2.4268  -2.4263  -2.3207  -2.2773  -2.2352  -2.2349
    -2.2336  -2.0970  -2.0235  -2.0210  -2.0114  -2.0100  -1.9117  -1.9105
    -1.9022  -1.7723  -1.7712  -1.7699  -1.7694  -1.6459  -1.6455  -1.6440
    -1.6246  -1.6239  -1.5667  -1.5325  -1.5321  -1.5212  -1.4978  -1.4971
    -1.4927  -1.4898  -1.4573  -1.3628  -1.3585  -1.3571  -1.3442  -1.3196
    -1.3185  -1.2863  -1.1766  -1.1628  -1.1153  -1.1145  -1.0769  -1.0753
    -1.0498  -1.0232  -1.0225  -0.9084  -0.8865  -0.8649  -0.8190  -0.8179
    -0.7828  -0.6425  -0.6416  -0.6040  -0.5494  -0.4762  -0.4748  -0.4393
    -0.4273  -0.4264  -0.4244  -0.4241  -0.3454  -0.3183  -0.3058  -0.3045
    -0.2821  -0.2808  -0.2502  -0.2482  -0.2039  -0.1981  -0.0865  -0.0658
    -0.0646   0.0036   0.0737   0.1144   0.1150   0.2396   0.2402   0.3087
     0.3553   0.4101   0.4107   0.4407   0.4553   0.4931   0.4942   0.5548
     0.5563   0.5976   0.5987   0.6714   0.7100   0.7119   0.7375   0.7663
     0.7692   0.7765   0.7792   0.8687   0.9610   0.9719   1.0484   1.0507
     1.0520   1.0688   1.1535   1.1607   1.1618   1.2602   1.2626   1.2676
     1.2698   1.3438   1.3590   1.3592   1.3764   1.4964   1.4977   1.5205
     1.5215   1.5267   1.5445   1.5476   1.5491   1.7251   1.7660   1.7672
     1.7728   1.7738   1.9488   1.9870   2.3718   2.3813   2.4495   2.6873
     2.8168   2.8176   3.2072   3.2100   3.3965   3.5489   4.0264   4.0334
     4.0389   4.1632   4.2538   4.2970   4.3778   4.4466   4.6371   4.6933
     4.7539   5.3309   5.3720   5.8549   5.8692   6.3254   6.3478

          k = 0.4000-0.0000 0.0000 ( 90572 PWs)   bands (ev):

   -19.6598  -8.7601  -6.8168  -5.5901  -5.5880  -5.5423  -5.0720  -4.5132
    -4.5123  -4.5022  -4.4987  -4.4704  -4.4363  -4.4345  -4.4340  -4.3262
    -4.3256  -3.9371  -3.9360  -3.9275  -3.9266  -3.8798  -3.8566  -3.8395
    -3.6899  -3.6891  -3.6876  -3.6805  -3.6797  -3.5760  -3.5325  -3.5309
    -3.5187  -3.5180  -3.4478  -3.4185  -3.4150  -3.3650  -3.3617  -3.2748
    -3.0281  -2.9523  -2.9338  -2.9209  -2.8998  -2.8773  -2.8724  -2.8671
    -2.8559  -2.8128  -2.7813  -2.6382  -2.6353  -2.6276  -2.5357  -2.5073
    -2.4653  -2.4626  -2.4457  -2.3599  -2.3591  -2.1949  -2.1922  -2.1630
    -2.0904  -2.0879  -2.0497  -2.0481  -2.0472  -1.9884  -1.9787  -1.8283
    -1.8142  -1.8130  -1.7986  -1.7452  -1.7437  -1.6854  -1.6849  -1.6495
    -1.6481  -1.5287  -1.5115  -1.5103  -1.4920  -1.4760  -1.4643  -1.4623
    -1.4274  -1.4115  -1.3568  -1.3560  -1.3220  -1.3181  -1.2304  -1.2279
    -1.1978  -1.1763  -1.1345  -1.1333  -1.1308  -1.0851  -1.0612  -1.0607
    -1.0593  -1.0582  -1.0370  -1.0279  -1.0216  -0.9674  -0.9663  -0.8641
    -0.8160  -0.8103  -0.7346  -0.7307  -0.7178  -0.7163  -0.5340  -0.5321
    -0.4064  -0.3977  -0.3583  -0.3451  -0.3396  -0.3171  -0.3147  -0.2603
    -0.2583  -0.2339  -0.2318  -0.1889  -0.1367  -0.0297   0.0402   0.0415
     0.0850   0.0863   0.1004   0.1453   0.1644   0.2776   0.2834   0.2921
     0.3540   0.3557   0.4294   0.4798   0.4905   0.5077   0.5105   0.5842
     0.5882   0.5918   0.6054   0.6086   0.6244   0.6264   0.6396   0.6403
     0.7503   0.7780   0.8431   0.8496   0.9864   0.9869   1.0056   1.1504
     1.1528   1.1564   1.1594   1.2571   1.2876   1.2956   1.3023   1.3028
     1.3408   1.3427   1.3663   1.3697   1.3713   1.4286   1.4319   1.4492
     1.5216   1.5470   1.5476   1.5803   1.5808   1.6303   1.7628   1.8078
     1.8098   1.8958   1.8979   1.8998   1.9088   2.0433   2.0454   2.5013
     2.5811   2.5829   3.1140   3.1156   3.1330   3.1456   3.8051   3.8464
     3.9099   4.0442   4.0697   4.0957   4.5531   4.7460   5.2357   5.2690
     5.3244   5.4821   5.9364   6.0175   6.0562   6.0716   6.1227

          k = 0.4000 0.2309 0.0000 ( 90536 PWs)   bands (ev):

   -19.6598  -8.7601  -6.6793  -6.0433  -5.4128  -5.0726  -4.9744  -4.9735
    -4.8531  -4.6100  -4.4589  -4.3529  -4.3081  -4.2481  -4.2476  -4.0807
    -4.0787  -4.0314  -4.0254  -4.0251  -3.9255  -3.8770  -3.8609  -3.8604
    -3.8104  -3.8099  -3.7904  -3.7490  -3.6802  -3.6796  -3.6782  -3.4140
    -3.4131  -3.4098  -3.4095  -3.3967  -3.3955  -3.1687  -3.1640  -3.1361
    -3.1350  -3.1064  -3.1056  -2.9279  -2.9200  -2.8303  -2.8274  -2.8150
    -2.8143  -2.7500  -2.7478  -2.6868  -2.6799  -2.6765  -2.6085  -2.6073
    -2.4602  -2.4597  -2.4272  -2.4261  -2.3208  -2.2781  -2.2360  -2.2354
    -2.2335  -2.0970  -2.0230  -2.0215  -2.0110  -2.0099  -1.9113  -1.9103
    -1.9030  -1.7715  -1.7712  -1.7695  -1.7683  -1.6464  -1.6454  -1.6439
    -1.6247  -1.6241  -1.5668  -1.5328  -1.5322  -1.5214  -1.4981  -1.4965
    -1.4928  -1.4900  -1.4574  -1.3627  -1.3589  -1.3576  -1.3443  -1.3203
    -1.3190  -1.2856  -1.1760  -1.1628  -1.1145  -1.1137  -1.0773  -1.0756
    -1.0494  -1.0223  -1.0218  -0.9084  -0.8867  -0.8648  -0.8188  -0.8175
    -0.7828  -0.6429  -0.6412  -0.6044  -0.5494  -0.4762  -0.4745  -0.4391
    -0.4278  -0.4269  -0.4250  -0.4244  -0.3455  -0.3183  -0.3050  -0.3044
    -0.2822  -0.2806  -0.2502  -0.2471  -0.2043  -0.1979  -0.0860  -0.0658
    -0.0642   0.0037   0.0743   0.1146   0.1154   0.2395   0.2401   0.3092
     0.3555   0.4094   0.4103   0.4413   0.4557   0.4929   0.4938   0.5546
     0.5575   0.5973   0.5981   0.6716   0.7030   0.7117   0.7464   0.7669
     0.7735   0.7765   0.7800   0.8623   0.9603   0.9682   1.0487   1.0509
     1.0521   1.0689   1.1543   1.1606   1.1617   1.2604   1.2639   1.2679
     1.2709   1.3448   1.3592   1.3596   1.3764   1.4965   1.4976   1.5205
     1.5214   1.5261   1.5442   1.5476   1.5497   1.7251   1.7658   1.7667
     1.7723   1.7734   1.9489   1.9871   2.3688   2.3785   2.4492   2.6895
     2.8168   2.8177   3.2074   3.2103   3.4014   3.5479   4.0276   4.0334
     4.0408   4.1604   4.2518   4.2992   4.3626   4.4431   4.6499   4.6938
     4.7617   5.3280   5.3730   5.8571   5.8681   6.3298   6.3506

          k = 0.4000-0.6928 0.0000 ( 90636 PWs)   bands (ev):

   -19.6598  -8.7602  -6.2818  -6.2798  -5.6720  -5.0815  -5.0466  -5.0336
    -4.5260  -4.5093  -4.3767  -4.3346  -4.2294  -4.2288  -4.1203  -4.1199
    -4.0203  -4.0162  -3.9919  -3.9630  -3.9501  -3.9489  -3.9482  -3.8679
    -3.8026  -3.7903  -3.7893  -3.7420  -3.7412  -3.6821  -3.5867  -3.5423
    -3.4923  -3.3898  -3.3890  -3.3782  -3.3779  -3.3443  -3.2606  -3.2602
    -3.1461  -3.1425  -2.9740  -2.9562  -2.9156  -2.9089  -2.8094  -2.8067
    -2.7599  -2.7582  -2.6422  -2.5867  -2.5546  -2.5542  -2.5304  -2.4739
    -2.4717  -2.4523  -2.3454  -2.3442  -2.3229  -2.3022  -2.3016  -2.3014
    -2.2974  -2.2292  -2.2273  -2.0991  -2.0904  -2.0254  -2.0239  -1.9306
    -1.8878  -1.8694  -1.8665  -1.8108  -1.7915  -1.7909  -1.7049  -1.6894
    -1.6876  -1.6779  -1.6507  -1.6157  -1.5615  -1.5591  -1.4842  -1.4449
    -1.4424  -1.4397  -1.4381  -1.3129  -1.2672  -1.2658  -1.2392  -1.2383
    -1.1828  -1.1793  -1.1762  -1.1755  -1.1391  -1.1378  -1.1022  -1.1017
    -1.0558  -1.0368  -1.0352  -1.0287  -1.0275  -1.0252  -0.9965  -0.9312
    -0.9284  -0.9073  -0.7047  -0.7020  -0.6176  -0.6169  -0.4968  -0.4957
    -0.4905  -0.4640  -0.4069  -0.4060  -0.4031  -0.3805  -0.3759  -0.2873
    -0.2546  -0.2522  -0.1812  -0.1771  -0.1681  -0.1094  -0.1016  -0.0521
     0.0776   0.1457   0.1479   0.1686   0.1699   0.2531   0.2749   0.2760
     0.3015   0.3084   0.3169   0.3415   0.3424   0.4689   0.4708   0.4805
     0.5325   0.5361   0.5541   0.5698   0.5845   0.5880   0.7396   0.7498
     0.7961   0.8245   0.9050   0.9092   0.9841   0.9850   1.0703   1.1107
     1.1164   1.1189   1.2220   1.2250   1.2978   1.3251   1.3367   1.3433
     1.3469   1.3908   1.3933   1.4348   1.5013   1.5018   1.5319   1.5568
     1.5579   1.5626   1.5712   1.6235   1.7517   1.7695   1.7707   1.7716
     1.7727   1.8411   1.9084   1.9607   2.0921   2.9249   2.9253   3.1493
     3.1624   3.1869   3.3158   3.3187   3.3373   3.7442   3.9358   3.9398
     4.3256   4.3948   4.4120   4.5056   4.5369   4.6006   4.7528   4.8399
     4.9313   5.0320   5.2819   5.3710   5.3906   5.9202   6.0186

          k = 0.4000-0.4619 0.0000 ( 90636 PWs)   bands (ev):

   -19.6598  -8.7602  -6.2822  -6.2795  -5.6720  -5.0792  -5.0466  -5.0359
    -4.5260  -4.5095  -4.3767  -4.3346  -4.2293  -4.2287  -4.1204  -4.1199
    -4.0206  -4.0161  -3.9918  -3.9629  -3.9500  -3.9486  -3.9482  -3.8688
    -3.8030  -3.7900  -3.7894  -3.7422  -3.7410  -3.6822  -3.5866  -3.5422
    -3.4919  -3.3896  -3.3890  -3.3785  -3.3776  -3.3441  -3.2614  -3.2600
    -3.1461  -3.1424  -2.9751  -2.9562  -2.9271  -2.8935  -2.8095  -2.8088
    -2.7602  -2.7579  -2.6424  -2.5869  -2.5554  -2.5541  -2.5301  -2.4735
    -2.4706  -2.4522  -2.3453  -2.3439  -2.3229  -2.3023  -2.3015  -2.3008
    -2.2977  -2.2293  -2.2272  -2.0991  -2.0905  -2.0260  -2.0234  -1.9307
    -1.8870  -1.8695  -1.8667  -1.8107  -1.7922  -1.7914  -1.7050  -1.6890
    -1.6877  -1.6778  -1.6507  -1.6154  -1.5614  -1.5587  -1.4847  -1.4443
    -1.4418  -1.4397  -1.4385  -1.3136  -1.2675  -1.2653  -1.2390  -1.2379
    -1.1826  -1.1793  -1.1766  -1.1757  -1.1403  -1.1377  -1.1031  -1.1021
    -1.0542  -1.0368  -1.0353  -1.0287  -1.0274  -1.0259  -0.9962  -0.9318
    -0.9285  -0.9073  -0.7049  -0.7028  -0.6175  -0.6169  -0.4975  -0.4952
    -0.4905  -0.4631  -0.4073  -0.4059  -0.4036  -0.3804  -0.3749  -0.2867
    -0.2549  -0.2524  -0.1819  -0.1768  -0.1679  -0.1097  -0.1019  -0.0527
     0.0775   0.1452   0.1483   0.1686   0.1701   0.2529   0.2755   0.2760
     0.3013   0.3085   0.3166   0.3410   0.3432   0.4683   0.4725   0.4802
     0.5330   0.5369   0.5539   0.5696   0.5844   0.5873   0.7287   0.7464
     0.8040   0.8292   0.9040   0.9092   0.9841   0.9855   1.0709   1.1129
     1.1169   1.1188   1.2210   1.2240   1.2978   1.3248   1.3370   1.3435
     1.3460   1.3908   1.3933   1.4345   1.5012   1.5021   1.5314   1.5564
     1.5581   1.5616   1.5714   1.6232   1.7514   1.7698   1.7711   1.7719
     1.7732   1.8410   1.9106   1.9607   2.0922   2.9249   2.9253   3.1425
     3.1673   3.1868   3.3153   3.3184   3.3375   3.7513   3.9355   3.9397
     4.3180   4.3942   4.4120   4.5025   4.5364   4.5996   4.7569   4.8418
     4.9375   5.0280   5.2791   5.3704   5.3899   5.9301   6.0191

     the Fermi energy is     1.5353 ev

!    total energy              =  -27818.15267070 Ry

     total all-electron energy =  -1326871.529075 Ry
     estimated scf accuracy    <       0.00000078 Ry
     smearing contrib. (-TS)   =      -0.00583547 Ry
     internal energy E=F+TS    =  -27818.14683523 Ry

     The total energy is F=E-TS. E is the sum of the following terms:
     one-electron contribution =  -27488.96994494 Ry
     hartree contribution      =   14043.94933883 Ry
     xc contribution           =    -903.84339262 Ry
     ewald contribution        =   12021.34658932 Ry
     one-center paw contrib.   =  -25490.62942581 Ry

     convergence has been achieved in  18 iterations

     negative rho (up, down):  1.289E-02 0.000E+00

     Forces acting on atoms (cartesian axes, Ry/au):

     atom    1 type  1   force =    -0.00004919    0.00012589   -0.00529380
     atom    2 type  1   force =    -0.00000651    0.00002649   -0.00518979
     atom    3 type  1   force =     0.00001892    0.00004852   -0.00516500
     atom    4 type  1   force =     0.00001735   -0.00000196   -0.00524784
     atom    5 type  1   force =    -0.00002119    0.00002444   -0.00523411
     atom    6 type  1   force =    -0.00001433   -0.00004760   -0.00524386
     atom    7 type  1   force =    -0.00003395   -0.00006118   -0.00522686
     atom    8 type  1   force =     0.00000808   -0.00002991   -0.00520222
     atom    9 type  1   force =    -0.00002732    0.00000868   -0.00525941
     atom   10 type  1   force =    -0.00018164   -0.00020638    0.00511973
     atom   11 type  1   force =     0.00002115   -0.00019425    0.00497078
     atom   12 type  1   force =     0.00004748   -0.00011452    0.00562258
     atom   13 type  1   force =    -0.00015345    0.00015042    0.00458406
     atom   14 type  1   force =     0.00016349    0.00011108    0.00491979
     atom   15 type  1   force =    -0.00012474    0.00002614    0.00539643
     atom   16 type  1   force =     0.00002356    0.00020421    0.00458740
     atom   17 type  1   force =    -0.00007076   -0.00006674    0.00508668
     atom   18 type  1   force =    -0.00005717   -0.00002164    0.00508895
     atom   19 type  1   force =    -0.00022131    0.00008238    0.00018659
     atom   20 type  1   force =    -0.00020215   -0.00021553    0.00041078
     atom   21 type  1   force =     0.00028526   -0.00019443    0.00012509
     atom   22 type  1   force =    -0.00006463   -0.00004726    0.00033171
     atom   23 type  1   force =    -0.00004277    0.00016486    0.00047764
     atom   24 type  1   force =     0.00000025   -0.00024761    0.00030347
     atom   25 type  1   force =    -0.00015738    0.00011442    0.00037276
     atom   26 type  1   force =    -0.00000329    0.00003864    0.00028731
     atom   27 type  1   force =     0.00003618    0.00003643    0.00026574
     atom   28 type  1   force =    -0.00012527    0.00009238   -0.00046259
     atom   29 type  1   force =    -0.00015292   -0.00020099    0.00018109
     atom   30 type  1   force =     0.00012798   -0.00013000   -0.00010715
     atom   31 type  1   force =    -0.00031077   -0.00008820   -0.00004360
     atom   32 type  1   force =     0.00009656   -0.00015153   -0.00085732
     atom   33 type  1   force =     0.00021955   -0.00018842   -0.00008632
     atom   34 type  1   force =    -0.00017063    0.00014303   -0.00000663
     atom   35 type  1   force =    -0.00001060    0.00012960   -0.00010981
     atom   36 type  1   force =     0.00006126    0.00009689   -0.00024662
     atom   37 type  2   force =     0.00044400    0.00280599    0.00280654
     atom   38 type  3   force =    -0.00003581    0.00005381   -0.00080643
     atom   39 type  3   force =     0.00026937   -0.00000778   -0.00057697
     atom   40 type  4   force =     0.00039734   -0.00226840   -0.00075879

     Total force =     0.005072     Total SCF correction =     0.003167
     SCF correction compared to forces is large: reduce conv_thr to get better values

     negative rho (up, down):  1.289E-02 0.000E+00

     negative rho (up, down):  1.289E-02 0.000E+00

     negative rho (up, down):  1.289E-02 0.000E+00

     negative rho (up, down):  1.289E-02 0.000E+00

     negative rho (up, down):  1.289E-02 0.000E+00

     negative rho (up, down):  1.289E-02 0.000E+00

     negative rho (up, down):  1.289E-02 0.000E+00

     negative rho (up, down):  1.289E-02 0.000E+00

     negative rho (up, down):  1.289E-02 0.000E+00

     negative rho (up, down):  1.289E-02 0.000E+00

     negative rho (up, down):  1.289E-02 0.000E+00

     negative rho (up, down):  1.289E-02 0.000E+00

     negative rho (up, down):  1.289E-02 0.000E+00

     negative rho (up, down):  1.289E-02 0.000E+00

     negative rho (up, down):  1.289E-02 0.000E+00

     negative rho (up, down):  1.289E-02 0.000E+00

     negative rho (up, down):  1.289E-02 0.000E+00

     negative rho (up, down):  1.289E-02 0.000E+00

     negative rho (up, down):  1.289E-02 0.000E+00

     negative rho (up, down):  1.289E-02 0.000E+00

     negative rho (up, down):  1.289E-02 0.000E+00

     negative rho (up, down):  1.289E-02 0.000E+00

     negative rho (up, down):  1.289E-02 0.000E+00

     negative rho (up, down):  1.289E-02 0.000E+00

     negative rho (up, down):  1.289E-02 0.000E+00

     negative rho (up, down):  1.289E-02 0.000E+00

     negative rho (up, down):  1.289E-02 0.000E+00

     negative rho (up, down):  1.289E-02 0.000E+00

     negative rho (up, down):  1.289E-02 0.000E+00

     negative rho (up, down):  1.289E-02 0.000E+00

     negative rho (up, down):  1.289E-02 0.000E+00

     negative rho (up, down):  1.289E-02 0.000E+00

     negative rho (up, down):  1.289E-02 0.000E+00

     negative rho (up, down):  1.289E-02 0.000E+00
 BEEFens 2000 ensemble energies
             -0.604695894102214E+02
             -0.360149875582209E+01
             -0.157872397091101E+02
              0.428341998452400E+02
             -0.220804430185078E+02
             -0.204902934279783E+02
             -0.350916456703631E+02
             -0.862047391855816E+02
             -0.464265089545009E+02
             -0.472013231596936E+02
             -0.368203601138508E+02
              0.226746007245650E+01
              0.402835491838354E+01
              0.767214214556111E+01
              0.264084285905346E+01
              0.473502177784864E+02
             -0.208351458110259E+02
             -0.229906457729772E+02
              0.191871572806518E+02
             -0.112081672399319E+03
              0.534731339593588E+02
             -0.289444481400828E+02
             -0.333104442428137E+01
             -0.114122034890894E+02
             -0.883970072265959E+01
             -0.459982887904917E+01
              0.880302459609446E+02
             -0.186440333679307E+02
             -0.896862798829216E+01
             -0.516407610755224E+02
              0.813591202052653E+02
             -0.187280951716889E+02
             -0.373587392594187E+02
              0.248752830585539E+02
             -0.285235023684021E+01
              0.162939054362542E+02
             -0.487574834324761E+01
              0.108392699081540E+02
              0.287005186459452E+02
             -0.102980606598889E+03
              0.557061887795534E+02
              0.141971101738515E+02
             -0.168282431173577E+01
             -0.360560642050234E+02
              0.122818413307367E+02
             -0.146650276313322E+02
              0.396721526050935E+02
              0.363870392166529E+02
             -0.307770682531343E+02
             -0.273875609858878E+02
             -0.327345340186454E+02
             -0.351070599505060E+02
              0.135610080832714E+02
             -0.489173829539767E+02
              0.115178303132253E+02
              0.621311401565065E+02
              0.633023001707832E+02
              0.355329979149803E+02
              0.153589136571124E+02
              0.269581637600907E+02
              0.889066699376829E+02
              0.212132411130284E+02
             -0.547070152485117E+02
             -0.156923909377754E+02
             -0.235055219623634E+02
              0.627772090774631E+02
             -0.771558401185430E+02
             -0.670315756201127E+02
             -0.258632889331545E+02
             -0.642864450657146E+01
             -0.469425989078933E+02
              0.269976639705003E+02
              0.796738004168242E+01
              0.861218869069501E+01
             -0.396426563297895E+02
             -0.345784166160186E+02
             -0.540075453996771E+02
              0.389532878538006E+02
             -0.295099572512692E+02
              0.264454432734422E+02
             -0.714423598661832E+01
             -0.317209191469283E+02
             -0.574914630066670E+02
             -0.176017854316147E+02
             -0.896761356272896E+01
             -0.124207104537176E+02
              0.411368674219602E+02
              0.680578991850961E+02
             -0.384151893028790E+02
             -0.792270624981462E+02
             -0.219102204293705E+02
              0.111202780463695E+03
             -0.591213374768144E+02
              0.355230798380730E+02
             -0.951534636623705E+01
             -0.661548930064632E+02
              0.253521946746367E+02
              0.397267502487770E+02
             -0.198407977762909E+02
              0.399577467876921E+02
             -0.295224485865187E+02
             -0.476226080751887E+02
              0.862648501970572E+02
              0.452360732770393E+02
              0.336315211187267E+02
              0.145868184811289E+02
              0.204886223568697E+02
              0.854067331298647E+02
             -0.256077300772693E+02
              0.788992098499773E+01
             -0.141986066476095E+03
              0.180685659911454E+02
             -0.714276603619056E+02
              0.150859466259501E+02
              0.204045599064527E+02
             -0.331682744708720E+02
             -0.555923691638470E+02
              0.652449095761722E+01
             -0.303323551139793E+02
              0.306246932421473E+02
             -0.528686801534923E+02
              0.175658273184376E+01
             -0.355692758302576E+02
             -0.421225796552693E+01
             -0.108832396754323E+01
              0.180450417492977E+02
              0.143156701150929E+01
             -0.650284317311093E+01
              0.588479388610776E+02
              0.905705735521834E+02
              0.482649252036367E+02
              0.828777640564904E+02
             -0.114873235578674E+02
              0.142720861068971E+02
              0.539885829387504E+02
             -0.111397593330577E+02
             -0.734026514059497E+02
             -0.383018645914702E+02
             -0.520622828879808E+02
             -0.275976771994248E+02
              0.326585037958106E+02
             -0.116403494898772E+03
             -0.187114689784967E+02
              0.412449635148027E+02
             -0.384953260735393E+02
             -0.364858194195998E+02
              0.542313655976063E+02
              0.399139199631883E+02
             -0.353607610190954E+02
              0.136446159559526E+02
             -0.272763418574006E+02
              0.342070950522910E+02
              0.441259632317878E+01
              0.210807883369796E+02
             -0.882781102637717E+02
             -0.478863180584727E+02
             -0.996342583816397E+01
              0.319237828818141E+01
             -0.365444386027447E+02
              0.105681788701299E+03
             -0.230915062768499E+02
             -0.398352691932688E+02
              0.387504892935376E+02
             -0.492838390607548E+02
             -0.361999009229470E+02
              0.323686573190477E+02
              0.123974407929200E+02
              0.164478709965313E+02
              0.115919605922715E+02
             -0.132486994992672E+02
              0.225187828352486E+02
              0.588286223895744E+02
             -0.310907110167411E+02
              0.161404171204014E+02
              0.932144158251897E+02
              0.339921590630829E+02
             -0.728653076690659E+01
             -0.187958450807561E+02
              0.152886602794487E+03
             -0.163134180828779E+02
              0.362179728259795E+02
              0.193328521754413E+02
              0.360842375611465E+02
              0.889053042177485E+02
              0.541469002101310E+02
             -0.235135607482213E+01
              0.226895232330286E+02
              0.483171683847087E+02
              0.362365904576732E+02
             -0.523776309235227E+02
              0.933308038642779E+02
             -0.823527408942836E+02
             -0.197925413760547E+02
              0.581078872957179E+02
              0.669568417480420E+01
              0.783882012373965E+01
              0.340077632211594E+02
              0.299006014529762E+02
              0.352782444912841E+02
             -0.635575575887216E+02
              0.285129963093141E+01
             -0.297014653784150E+02
             -0.867106009766317E+01
             -0.144129083850169E+01
             -0.719115188256821E+01
             -0.413861624550998E+01
              0.857148270382716E+02
             -0.100966055135022E+02
             -0.275604145720790E+02
             -0.497031147030490E+01
              0.139321881855752E+02
             -0.561831023673620E+02
             -0.405502719290999E+02
             -0.380958924086513E+02
             -0.628435709166602E+02
             -0.168842984831080E+02
             -0.446209665328529E+02
              0.162867217590943E+02
             -0.241063243853816E+01
             -0.104064836855550E+02
             -0.931739957613937E+01
              0.806867459168217E+01
             -0.242499184885576E+02
              0.687628115390461E+02
             -0.804660216346851E+02
             -0.140749826909946E+02
             -0.173650044323760E+02
              0.181652931312537E+02
              0.213765155118691E+02
             -0.461924633719730E+02
             -0.201404136215590E+02
              0.439633186956261E+02
             -0.275822695750038E+02
              0.186771719069887E+02
              0.382102744773118E+02
             -0.322175299997446E+01
              0.113779339005114E+03
             -0.229636683174053E+02
             -0.339901711335838E+02
              0.579656537434516E+01
             -0.227411252411471E+02
              0.525665950771402E+02
             -0.335618583877184E+02
              0.105873251396015E+02
              0.639200118060480E+02
             -0.126100501226833E+02
              0.119913104475514E+03
              0.125516615127556E+03
             -0.647874285113221E+02
              0.588954150906957E+02
              0.165516923941372E+02
             -0.516087249736613E+02
              0.215498073124446E+02
              0.352685922629867E+02
              0.361142160274172E+02
              0.132332832119033E+01
              0.159081183422254E+02
              0.693863533085575E+02
             -0.246208941976948E+02
              0.181372683408808E+02
              0.737250683854545E+02
             -0.371471185283515E+02
             -0.128949234659284E+02
              0.506814181969353E+02
              0.296446861005476E+02
              0.777583267089634E+02
              0.221656930914235E+02
              0.620952668882842E+01
              0.279483549923966E+02
              0.382099785370008E+02
             -0.470474159511305E+02
              0.328550685732165E+01
              0.129035560270686E+02
              0.113404524901415E+02
              0.219878424540395E+02
             -0.573266881698814E+02
              0.365021500549119E+02
             -0.442561142803607E+02
             -0.346655860386732E+02
              0.177579555629409E+02
             -0.181296660229186E+02
              0.553082416907936E+02
             -0.255866113660197E+02
              0.265834162034535E+02
              0.367026484911789E+02
              0.826952809791832E+02
              0.573420737575271E+02
              0.460495847653988E+02
             -0.105505353998208E+02
             -0.385891094836927E+01
             -0.331605416940542E+02
              0.748164588219993E+02
              0.794539490522226E+02
              0.360651863442386E+02
             -0.191085464357730E+02
              0.510282248350234E+02
             -0.162999672908082E+02
              0.214465727516483E+02
              0.612327170046043E+02
              0.214059802885089E+01
             -0.104117117905567E+02
             -0.282332182187142E+02
             -0.510016465318256E+02
              0.942722110185840E+02
              0.438347482941928E+02
             -0.557006800541061E+02
             -0.955097294809286E+01
              0.249103629220838E+02
             -0.994503988076877E+01
              0.590060684520114E+02
              0.151425841683928E+02
              0.796469569092853E+02
              0.278735626739551E+02
             -0.263082506522566E+02
              0.248271965316002E+02
             -0.497466123771301E+01
             -0.322840424065771E+02
              0.132535024898822E+02
              0.205074161383162E+02
              0.930416866242373E+02
              0.795236368964855E+02
              0.549339842141835E+02
              0.728692077313742E+02
              0.801026842699483E+01
             -0.273207448615619E+02
              0.162730597728251E+02
             -0.366859134675299E+02
             -0.474701730281378E+02
             -0.561974545687664E+02
             -0.265427083237970E+02
             -0.109393930965195E+03
             -0.290251247395496E+02
             -0.834986060378773E+02
              0.209548017663360E+02
             -0.475876191525079E+02
              0.395068399620404E+02
             -0.938599857883918E+02
             -0.329293904226379E+02
              0.547442617146277E+02
              0.206930562432646E+02
             -0.827918657723232E+02
              0.629451751276612E+02
             -0.255985945364405E+02
              0.510715018561393E+02
             -0.241541104577215E+02
             -0.749172772597860E+02
              0.111056336328995E+02
             -0.609219603382246E+02
             -0.168335223406933E+02
             -0.149174254225757E+01
              0.416970365075367E+02
              0.126640572779763E+03
             -0.460499854682738E+02
             -0.361145155753517E+02
             -0.944370165096814E+00
             -0.130470770857144E+02
             -0.820162540268210E+02
             -0.595170872792353E+02
              0.515759687948711E+02
             -0.288624596913503E+02
              0.168397623731256E+02
             -0.487792139585642E+02
             -0.131283119981724E+02
             -0.435833384218912E+02
              0.564212886260782E+02
              0.150492729436587E+02
             -0.230965940549011E+02
             -0.126367023505282E+02
              0.663536773850070E+01
             -0.617599152734743E+01
              0.440354791468800E+02
             -0.251157989612615E+02
              0.275639394392806E+01
              0.338730673564157E+02
              0.170841132668079E+02
             -0.159201322669645E+02
              0.155814762525719E+03
              0.536463641173480E+02
              0.111321516628426E+01
              0.161046390683921E+02
             -0.613383527035140E+02
              0.313815511835217E+02
             -0.719284179544314E+02
             -0.250743135809431E+02
             -0.521038284080575E+02
             -0.219604949922590E+02
              0.567496255597789E+02
             -0.535453777620578E+02
              0.159972029158360E+02
             -0.409224996652085E+01
              0.385653900102221E+01
             -0.433040966690170E+02
             -0.477069062929729E+02
             -0.399550249503227E+01
             -0.424138987956081E+02
             -0.216355782409836E+02
             -0.437330821248154E+02
             -0.119169857891702E+02
             -0.358180049850128E+02
             -0.515231777433006E+02
              0.212319472153412E+02
             -0.208846849135851E+02
              0.187025111234941E+02
              0.974549283214370E+01
             -0.735865372827355E+02
             -0.546686089667640E+02
             -0.396678355582831E+02
              0.353397212352343E+02
              0.274382943734275E+01
             -0.624839851658683E+02
              0.584357275676419E+02
             -0.400005602652813E+02
              0.543095605603210E+02
             -0.288851925477895E+02
             -0.444518494137734E+02
              0.297474155196002E+02
             -0.655349580771397E+02
             -0.379549776941186E+02
              0.671305455600391E+02
              0.203646052980413E+02
             -0.359122640214753E+02
              0.488195663142284E+02
             -0.173717186659957E+02
             -0.322109578659769E+02
             -0.301057836989982E+02
             -0.499121051733728E+02
              0.248736954251739E+02
             -0.930869289488899E+02
             -0.838366248208334E+02
             -0.732630846089648E+01
             -0.305874069219983E+02
             -0.573877947561352E+02
              0.719364177021223E+02
              0.131116817246941E+03
             -0.360717452033276E+02
             -0.253001861889635E+01
             -0.635707244670177E+02
              0.648491866296475E+02
              0.170101502606474E+02
             -0.181325351367494E+02
             -0.409051272709746E+02
              0.148148576138353E+02
             -0.584361883205426E+02
             -0.197942452233737E+02
             -0.902203799043135E+02
              0.336065651373210E+02
              0.168685474886394E+02
              0.188740531090104E+01
             -0.702548977221784E+01
             -0.328529090820857E+02
             -0.755407825988505E+01
              0.125156523606769E+03
             -0.198387117244824E+02
             -0.436414778430142E+02
             -0.681853133296120E+02
              0.109026319324959E+02
             -0.341148190580054E+02
              0.588423288884074E+01
              0.260497673179637E+02
              0.102137792275338E+02
              0.276895630174890E+02
              0.119390366551113E+02
              0.627953073017633E+02
              0.316122543387863E+02
             -0.325589827675821E+02
              0.353881486004677E+02
              0.378470618605389E+02
              0.120356157419878E+02
              0.486508521504788E+02
             -0.223755669343606E+02
              0.763589976008160E+02
              0.171237830598465E+02
             -0.271019341410026E+02
             -0.724928068406294E+01
             -0.186153525446504E+02
              0.261564152666101E+02
             -0.233512361193279E+02
             -0.774129552720240E-01
             -0.846445699870026E+01
              0.807248945471224E+02
              0.498391970874628E+02
             -0.685100205954999E+02
             -0.473774681039811E+01
             -0.553975251640713E+02
             -0.158965064951922E+02
             -0.267905459314817E+02
              0.372658070374973E+01
              0.623033240754644E+00
             -0.256914540117116E+02
              0.806952160906627E+01
             -0.599345362921432E+01
             -0.128453847600816E+02
              0.856244391273684E+02
              0.181471000150775E+02
             -0.804819215287479E+02
             -0.457730548852555E+02
              0.942213487864482E+02
              0.277333941382083E+02
             -0.106503278980751E+02
              0.104265917243074E+03
             -0.194089864354811E+02
             -0.122858522013668E+02
             -0.535844695281446E+01
              0.107058515948169E+02
              0.271540609110850E+02
              0.779836302398570E+01
              0.304414145398441E+02
             -0.187613894515416E+02
             -0.302648413857562E+02
             -0.417169105253735E+02
             -0.475655792641871E+02
              0.463207751967439E+02
              0.126264950563903E+02
              0.386688915093180E+02
              0.133177582397778E+02
              0.853076608899319E+02
              0.155596662427752E+02
             -0.844018527624374E+02
             -0.333616094212260E+02
              0.133755915492431E+02
             -0.301906431464504E+02
              0.624708517313892E+02
             -0.881381198225313E+01
              0.148081454638226E+02
              0.495399465263071E+02
             -0.704865716934015E+02
              0.149315038725270E+03
              0.208210662354827E+02
              0.270450863129921E+02
              0.346585132192259E+02
              0.103879024020916E+02
             -0.154149837965736E+01
              0.357438942109878E+02
             -0.356514566229305E+02
              0.770920005349146E+02
              0.682824164915681E+02
             -0.405148111788884E+02
              0.149259123841297E+02
              0.668039984161778E+02
             -0.223151269304813E+02
              0.153657427757104E+02
              0.434406609114450E+02
              0.421016288248372E+02
             -0.783018242790022E+02
             -0.152871851319128E+02
             -0.355511864427037E+02
             -0.148593324337480E+01
             -0.764742341424812E+01
             -0.544880934449009E+01
             -0.180409234671422E+02
             -0.293250080292210E+02
              0.628857263234971E+01
              0.111725178740595E+02
              0.534266866584138E+02
             -0.389035777840831E+02
              0.373183739044357E+02
              0.437205531216113E+02
             -0.186337518825935E+02
              0.870523546915199E+02
             -0.695953855373858E+02
             -0.102911126611658E+03
             -0.656254858895856E+01
             -0.269214928386236E+01
              0.386088144230905E+01
              0.787533180067217E+02
             -0.107138478177835E+02
              0.415441055424958E+02
              0.441855099813177E+02
              0.384117094905855E+02
             -0.993814414678911E+01
              0.625784212867023E+02
             -0.133178828797079E+02
             -0.306234195351217E+02
             -0.478877115084325E+02
              0.581943080267060E+01
              0.368592775627966E+02
             -0.603121740273389E+01
              0.392021528016501E+02
             -0.175966262119431E+01
              0.653697969756658E+02
              0.186822671069870E+02
              0.996018961710223E+01
             -0.122023104558239E+02
              0.331468614181366E+02
              0.361163618146819E+02
              0.232299222102847E+02
             -0.480772779157661E+00
             -0.548983438483279E+02
              0.259910112842869E+02
              0.174561864293221E+02
              0.401750139620472E+02
              0.271420389057783E+02
              0.371219490742106E+02
             -0.596361905269470E+01
              0.250197445408925E+02
             -0.297668242568934E+02
             -0.198766801541603E+01
             -0.567879345183782E+02
             -0.306561303192681E+02
              0.377437407085613E+02
             -0.933390838009670E+02
              0.293892793800393E+02
              0.183867653062076E+02
              0.838039108270719E+02
             -0.300218422623886E+02
              0.328675632364278E+02
             -0.137358826122911E+02
             -0.462537063783350E+02
             -0.759667132016858E+02
             -0.521872664634728E+01
             -0.857679815837149E+02
              0.199621100267857E+02
             -0.247046020678088E+02
              0.304801391490308E+02
              0.236356431583051E+02
             -0.240514165460344E+02
             -0.264800578714151E+02
              0.389539738059469E+02
             -0.586972754273876E+02
             -0.116595424596015E+02
             -0.195785614489981E+02
              0.211941683158785E+02
             -0.893302283837454E+01
              0.361915563412080E+01
             -0.200411424818606E+02
              0.557430667412195E+02
             -0.437962668137570E+02
              0.789764612360011E+01
              0.584157386980266E+02
             -0.322335231797979E+02
              0.359992471872840E+01
             -0.882826661733930E+01
             -0.667822227093352E+02
             -0.481600812478276E+02
             -0.861448140338215E+01
              0.239915228382671E+02
              0.301308525131884E+02
              0.860546564573843E+01
             -0.408927266645821E+01
              0.151599856180732E+02
             -0.438767412533692E+02
              0.333848538224299E+01
             -0.529647672597096E+02
             -0.324061687159370E+02
              0.473302558376324E+02
             -0.294268803017204E+02
              0.620583863911020E+02
             -0.214280671844239E+02
              0.352655180229327E+02
              0.241232811511263E+02
             -0.642504296583081E+02
             -0.279722964500349E+02
              0.927877689092239E+01
             -0.370740942069248E+02
             -0.338278070350626E+02
             -0.827353733522712E+02
             -0.537890790889743E+02
             -0.509279061087300E+02
             -0.414167736915584E+02
             -0.973268806191328E+00
              0.986004426384397E+01
              0.100761118198491E+01
              0.152361685745381E+02
             -0.547782818565369E+02
              0.141771667682840E+02
              0.256236295265065E+02
             -0.664755990320953E+02
             -0.700534674389415E+02
             -0.430422065048052E+02
             -0.171121046497247E+02
              0.178268066251623E+02
              0.458272275065622E+01
             -0.424437596939517E+02
              0.365614256044585E+02
             -0.215323851511828E+02
              0.515919799037174E+02
             -0.884783052723874E+02
              0.595988535336493E+02
             -0.208261425764384E+01
             -0.367398411878456E+02
             -0.215308254992049E+02
              0.471325892509471E+01
              0.372899395463681E+02
             -0.754688800593759E+02
             -0.120328130598190E+02
             -0.216481148394905E+02
              0.510247257199074E+02
              0.862745838202797E+02
             -0.962690638941677E+02
              0.941423919366633E+02
              0.466454319163063E+02
             -0.723273239741183E+02
             -0.365849966869695E+02
              0.749755820201611E+02
              0.630414412578582E+02
             -0.180936796694938E+02
             -0.459190957799797E+01
              0.726606237903997E+01
              0.646865725220582E+02
             -0.506681473297602E+02
              0.158247474418027E+02
             -0.470078668916108E+01
              0.346969491238015E+02
             -0.745315193831380E+02
             -0.649121558192085E+01
             -0.350515502085160E+02
              0.459262816826234E+02
              0.467540078704457E+02
             -0.859554095411925E+02
             -0.485960603254383E+02
             -0.255629758547828E+02
             -0.338166256440023E+02
             -0.109055286458352E+02
             -0.242182867401829E+02
              0.426112992089951E+02
              0.399595648771200E+02
             -0.565732334606298E+01
             -0.415218010899757E+02
             -0.848273520686129E+02
              0.441432067310802E+02
             -0.522055283771391E+02
             -0.311895325221446E+02
              0.543860308237794E+01
             -0.321729260092286E+02
             -0.396882305774576E+02
             -0.239453886243935E+02
             -0.384262880756158E+02
             -0.270009774748063E+02
             -0.481163015441451E+02
              0.562505332956119E+02
              0.636660138537612E+02
             -0.165550720758085E+01
             -0.260708884262997E+02
             -0.629358901501087E+01
              0.440201267181922E+02
             -0.865773818205565E+02
             -0.145726680602897E+02
              0.522101352950509E+02
              0.662098917898275E+02
             -0.244316263708056E+02
              0.912155276393457E+01
              0.522616140467495E+02
              0.197822452149647E+02
             -0.826325157856974E+01
             -0.452417573520004E+02
              0.280504626297304E+02
             -0.351822814110960E+02
             -0.164850780861501E+02
             -0.152241217672688E+02
             -0.199913542179827E+02
              0.194163503413993E+02
              0.798110956643364E+02
              0.190606527297808E+01
              0.532947432631551E+01
             -0.885327601051568E+02
             -0.175643375759147E+02
             -0.351582817168792E+02
              0.274609584097834E+01
[...]
              0.282886861525516E+02
              0.141411208167966E+03
              0.241501028983516E+02
              0.122006612750688E+02
             -0.462802112114412E+02
             -0.636207924155801E+02
             -0.188905759052020E+02
              0.329171058410332E+02
             -0.426874812138567E+01
              0.189615402512093E+02
              0.335239965969611E+02
             -0.584267158641633E+02
              0.221782521272254E+02
              0.581056220496400E+02
              0.551027783237137E+02
             -0.413891225563583E+01
             -0.139820816875704E+01
             -0.991909274945104E+01
             -0.481228857144652E+02
             -0.672478056127475E+02
              0.783356479843663E+02
             -0.517935937091002E+01
             -0.586506487411788E+02
              0.166869198124800E+01
             -0.204275958851728E+02
              0.936157115065595E+02
             -0.215964613653609E+02
             -0.352307919997097E+02
              0.334202767593276E+02
             -0.145381177839024E+02
              0.388159269320604E+02
             -0.236522997479506E+01
              0.100811396282102E+03
              0.487894099088691E+02
             -0.516250196950557E+01
             -0.320739990333934E+02
              0.231429135149951E+02
             -0.527005695216163E+02
             -0.127856062334981E+02
              0.583789924344968E+02
             -0.287116075314456E+02
             -0.437033143938384E+02
             -0.222396868958007E+02
              0.516982203818467E+02
              0.124299334905054E+02
             -0.846309677882401E+02
              0.302930144890785E+02
              0.152355341307411E+02
              0.574466419795769E+01
             -0.512096634955727E+02
             -0.382015722790510E+01
              0.322056206419315E+02
              0.511487708683036E+02
              0.630834810051311E+02
              0.227914968752475E+02
              0.705934366723739E+00
             -0.496314076334880E+02
             -0.508942825290319E+02
             -0.745968769802924E+02
             -0.612933777878402E+01
              0.308109757491521E+02
             -0.380337674531572E+01
              0.545343307098996E+02
             -0.317097250407367E+02
              0.165696195647489E+02
             -0.101956562491714E+02
             -0.289017671558751E+02
              0.584001254120986E+02
              0.790852196665753E+01
              0.602563416872080E+02
              0.507835889162686E+01
              0.264565705653529E+02
             -0.192156660016627E+02
              0.584309910023200E+02
             -0.111154172608458E+02
             -0.101941782738233E+00
             -0.787781145975036E+02
             -0.128195021885594E+02
              0.716995223165339E+02
              0.671191807606451E+02
              0.251203303735643E+02
             -0.129588772920075E+02
              0.343424800235277E+01
             -0.172708247978606E+02
             -0.196695280832793E+01
              0.905119292003878E+02
              0.120399901080918E+01
             -0.189491628536763E+02
             -0.110429018116696E+03
             -0.551392713642558E+02
             -0.373984082613255E+02
             -0.656724616850971E+02
             -0.553915315642963E+02
             -0.680442223865452E+02
             -0.446006761355378E+02
             -0.410253574031360E+02
             -0.450255718942412E+02
              0.482319734479178E+02
             -0.293686083223222E+02
             -0.992729461829482E+02
              0.417803119389563E+02
             -0.259147666201166E+02
             -0.788378109791837E+02
              0.940625572648675E+02
             -0.218922619715032E+02
              0.227612279044712E+02
              0.453993218515627E+02
             -0.138764523520649E+01
              0.253590737845855E+02
              0.468117229107239E+01
              0.391048776710715E+00
             -0.150545727984108E+02
             -0.713839244028545E+02
              0.132851191020805E+02
             -0.129046496282584E+03
              0.621989117137241E+02
             -0.439563054696632E+02
             -0.162012551004663E+02
             -0.157177345475400E+02
              0.707901870473618E+01
             -0.227299802869514E+02
              0.296034292796621E+02
             -0.518493821956188E+02
              0.366278038459475E+02
              0.369848075151169E+02
              0.168105286159573E+02
              0.100565582734006E+02
              0.197145058718619E+02
              0.618842156453246E+01
              0.309364145389772E+02
             -0.800884978122116E+01
             -0.589923849931919E+02
              0.755292781137626E+01
             -0.151483962351352E+02
             -0.193968006798684E+01
              0.504622573251153E+02
             -0.824584387888957E+02
             -0.145719297257426E+01
              0.562222851691843E+00
              0.992218557003866E+01
              0.317571733808649E+02
             -0.123344965612597E+02
              0.832854297850276E+02
              0.486561325006892E+02
             -0.182662008642749E+02
             -0.950896401266863E+01
              0.103041038494300E+01
              0.766948989864256E+02
             -0.584593485311299E+02
             -0.105457336734101E+03
              0.308456366445606E+02
             -0.163220982399267E+02
             -0.139209226554143E+02
              0.129847057721740E+02
              0.766201879373727E+02
              0.463104110436079E+02
             -0.153002169119920E+02
             -0.501282986125717E+02
             -0.543796602440867E+01
              0.305607321351530E+02
             -0.110962414169900E+02
             -0.753355633994693E+02
             -0.268797558533731E+01
             -0.886848438174399E+02
             -0.473699334210762E+02
              0.765953962886009E+02
             -0.482036010815407E+02
             -0.634381872983500E+02
             -0.512924350398237E+02
             -0.348506262895526E+02
              0.340163132618088E+02
              0.818901709756590E+02
             -0.355847098437664E+01
              0.275763299921744E+02
             -0.183133356014517E+02
             -0.691862680951971E+02
              0.463631225012918E+02
             -0.443631425220833E+02
              0.320958984630552E+02
              0.375418885142955E+02
             -0.649272969174490E+01
              0.389252675113379E+02
              0.437146279610635E+02
              0.100278990262226E+03
             -0.155748924745021E+02
             -0.454245918312225E+02
             -0.610635032114053E+02
             -0.123076097640092E+02
             -0.231514435373839E+02
              0.102766927987857E+03
             -0.447973328315968E+02
              0.104617164695408E+02
              0.970442287135876E+01
             -0.264245624769972E+02
             -0.796378822645434E+02
             -0.698051924488141E+01
              0.976792164538682E+02
              0.927647182673107E+01
              0.804778332731001E+01
             -0.525077988572484E+02
             -0.603723638761619E+02
             -0.554324546986166E+01
              0.499105920120624E+02
             -0.221077729700680E+02
              0.107667997371851E+03
             -0.434383237417719E+02
              0.145578268370666E+02
             -0.223777728236736E+02
             -0.716766395279897E+02
              0.164702322209536E+01
             -0.499717237906061E+02
             -0.758230633341950E+02
              0.612799347615794E+01
              0.234748440270022E+01
              0.512667054342985E+02
              0.186259127586109E+02
             -0.322707987786088E+02
              0.229315388222457E+02
             -0.808300321842773E+02
             -0.520252320305884E+02
              0.898854072166419E+02
              0.142163462322791E+02
             -0.187915046512386E+02
             -0.351717475240180E+02
             -0.272108213116394E+01
             -0.581465692388008E+01
              0.827762968055537E+02
              0.416712890863483E+02
             -0.165732650599275E+02
             -0.121811333357610E+02
             -0.426365758467992E+02
             -0.200307270392202E+02
             -0.668067172030766E+02
              0.458369272381187E+02
              0.546322059565588E+01
              0.144795204542900E+02
              0.155468086486204E+02
             -0.510063864641044E+00
             -0.167629717371186E+02
             -0.311522262029293E+01
             -0.100067297951311E+03
             -0.230037840214717E+02
             -0.763883072074657E+01
             -0.947186233619837E+01
              0.544754369635767E+02
              0.621947132940978E+02
              0.164081099368540E+02
             -0.967680702998820E+02
              0.645370745602214E+02
             -0.214051764522051E+02
             -0.375880560579968E+02
             -0.861457855138299E+02
             -0.386209283164611E+02
              0.562635158399972E+02
              0.243505775173337E+02
              0.509915888627620E+01
              0.291042663292311E+02
             -0.563126892391099E+02
             -0.420566340324647E+02
              0.513419530778889E+02
              0.385692344888917E+02
              0.517424577604305E+02
             -0.122600995404574E+01
              0.684298595747663E+01
              0.567751690502156E+02
              0.959711965351484E+02
             -0.299750154851316E+02
              0.321795664823753E+02
             -0.117647630442934E+02
             -0.410766333900124E+02
             -0.313466954051303E+02
             -0.299232913838699E+02
             -0.130931619937338E+02
             -0.521812597301745E+02
             -0.216626260711170E+02
             -0.140793723076438E+03
              0.368225434259090E+02
              0.205522915956255E+02
             -0.393139307307538E+01
             -0.379037946890683E+02
             -0.203677141363077E+02
             -0.525000882218764E+02
              0.151437894033106E+02
              0.817689658012442E+02
             -0.251420704435761E+02
             -0.162512941716693E+02
              0.237614802608820E+02
             -0.488004506350363E+02
              0.877824470269430E+02
              0.153985807805355E+02
              0.226145462148683E+02
              0.488479042904253E+02
              0.321189703107990E+01
              0.539979614912883E+02
              0.142344068480168E+02
             -0.106719270618339E+02
              0.725499389308050E+01
              0.780678287945022E+00
              0.724918598716798E+02
              0.101231736308123E+02
              0.119904940401388E+02
             -0.129966694073252E+02
              0.132127769523173E+02
             -0.908076138020651E+02
             -0.324902606721025E+02
             -0.455578266512020E+02
              0.483568776936773E+02
             -0.289780713408635E+02
             -0.656805939431780E+02
              0.536676983436653E+02
             -0.121418164378646E+02
              0.438933524979137E+02
             -0.895881193239378E+02
              0.231883054236973E+02
              0.855065139548856E+01
              0.580982952356385E+01
             -0.825583470873443E+01
             -0.902322093000623E+01
              0.477869548825441E+02
              0.197004778766717E+01
             -0.473406756479736E+02
             -0.175472292348374E+02
              0.276010553640857E+02
             -0.117597643794565E+03
             -0.927260891288481E+02
              0.394664368674830E+01
              0.116972668125218E+02
             -0.411784135527947E+02
             -0.391992590470352E+01
              0.111783419167829E+03
              0.305498490260794E+02
             -0.570014771725406E+02
              0.921893424373016E+01
             -0.958531319174139E+01
              0.105502254188176E+02
             -0.336758608242884E+02
              0.194662079726516E+02
              0.284006550320921E+02
             -0.293894931696332E+01
              0.107817492038822E+03
             -0.140353470017259E+02
             -0.314942368532711E+02
              0.141613416594377E+02
              0.465071568579427E+02
             -0.355051212869768E+02
             -0.317749843883393E+01
              0.961860757025374E+02
             -0.462134638849193E+01
              0.620127840678558E+02
              0.135011097889704E+02
             -0.898507935923752E+01
             -0.305080422143095E+02
              0.565157703641606E+02
             -0.512076297021747E+02
             -0.220501051180349E+01
             -0.169167324106407E+02
             -0.404119271819811E+02
              0.184933041174563E+02
              0.238761951288987E+02
              0.116501787224075E+02
              0.709754272921714E+00
             -0.383115835169957E+02
              0.214635888582612E+02
             -0.673981586406583E+01
             -0.245638987222182E+02
             -0.209993902610030E+02
              0.202597839405532E+02
             -0.602642523982490E+01
             -0.347953518571425E+02
             -0.106321284151478E+03
              0.102770045571587E+02
              0.248535357997154E+02
             -0.385763623560198E+02
             -0.210129031933831E+02
              0.804699730707359E+02
              0.646809736565365E+01
              0.309210376330968E+02
              0.386910818974306E+01
              0.320432273204489E+02
              0.647470640692291E+01
             -0.371670989502059E+02
             -0.228403801646684E+01
              0.876226278749647E+01
              0.272680057464170E+02
              0.779572628426441E+02
              0.505697946458752E+02
              0.177035828952683E+00
              0.169358306819033E+02
              0.611401253004096E+02
              0.234956691755760E+02
             -0.750642775168452E+02
             -0.272799969008285E+02
              0.150937023614280E+02
              0.557843064371673E+01
              0.254178607927712E+02
             -0.546109929974310E+02
              0.898345893805417E+01
              0.384908343766726E+02
              0.496322612463263E+02
             -0.433514850525117E+02
             -0.693543580325775E+01
             -0.207292554634631E+01
             -0.132766277382671E+02
             -0.364676837975410E+02
             -0.215161024280678E+02
             -0.197934516622951E+01
              0.789323844182371E+01
              0.420072470907026E+02
             -0.307005843192134E+02
              0.823672730410326E+02
              0.326482456778854E+02
              0.219224096898672E+02
              0.332103175965160E+02
              0.322448161463776E+02
              0.345240883295937E+02
              0.535309363555371E+02
             -0.432356587089997E+02
              0.617777741900378E+02
             -0.111922493232682E+03
              0.306216522403775E+02
             -0.106195792901178E+03
              0.852025906769333E+02
              0.688180760423567E+02
             -0.109640989618687E+02
             -0.491704871845027E+02
             -0.428267131564010E+02
             -0.621920377528505E+02
             -0.626606706319690E+02
              0.550433974760242E+02
              0.404120365193515E+02
              0.235950424178095E+02
              0.373014900006843E+02
              0.401598963097452E+02
             -0.380704881886481E+02
             -0.197434214746340E+02
              0.585316496755224E+02
             -0.115983486417540E+02
              0.550493707810289E+02
              0.696903735976503E+02
             -0.554973246682220E+01
             -0.703899416896052E+02
             -0.876417535775886E+00
             -0.247636407033443E+01
             -0.878502955899808E+01
             -0.184639955168348E+01
             -0.650987029290284E+02
             -0.210515382365780E+02
              0.534737814986535E+01
              0.895798220445258E+01
              0.467318221909308E+02
             -0.396220443536847E+02
              0.655939969297572E+02
             -0.424166475581462E+02
              0.209541256125824E+02
              0.348814449497601E+02
 
 BEEF-vdW xc energy contributions
           1 :   -780.538718443571     
           2 :    717.006246272542     
           3 :   -607.164356395950     
           4 :    478.050126061091     
           5 :   -356.946282918718     
           6 :    263.419518033190     
           7 :   -204.978764696286     
           8 :    177.103520814152     
           9 :   -167.220426153683     
          10 :    160.792944211413     
          11 :   -147.058422752778     
          12 :    122.242432373420     
          13 :   -89.4068896177085     
          14 :    55.5608825723787     
          15 :   -27.7045922332105     
          16 :    9.58559136171129     
          17 :  -0.411793468941141     
          18 :   -4.21091970091413     
          19 :    9.79948411414227     
          20 :   -20.2737419139277     
          21 :    36.2538827842661     
          22 :   -55.0568141200720     
          23 :    72.2267742259013     
          24 :   -83.7660002495478     
          25 :    87.9636317276893     
          26 :   -86.0130421762717     
          27 :    81.2319192852948     
          28 :   -77.3562702591889     
          29 :    76.7631923612888     
          30 :   -79.4686743874970     
          31 :   -85.4748251711941     
          32 :   -65.4822369393476     

     Writing output data file ./pwscf.save/
 
     init_run     :    337.05s CPU    341.47s WALL (       1 calls)
     electrons    :  12199.51s CPU  12313.28s WALL (       1 calls)
     forces       :    101.08s CPU    102.30s WALL (       1 calls)

     Called by init_run:
     wfcinit      :    288.06s CPU    291.44s WALL (       1 calls)
     potinit      :     45.57s CPU     45.88s WALL (       1 calls)
     hinit0       :      1.45s CPU      1.50s WALL (       1 calls)

     Called by electrons:
     c_bands      :   9999.07s CPU  10085.55s WALL (      18 calls)
     sum_band     :   1392.15s CPU   1404.07s WALL (      18 calls)
     v_of_rho     :    124.28s CPU    128.10s WALL (      19 calls)
     newd         :     30.52s CPU     42.30s WALL (      19 calls)
     PAW_pot      :    126.59s CPU    126.60s WALL (      19 calls)
     mix_rho      :    573.23s CPU    573.85s WALL (      18 calls)
     vdW_kernel   :     33.58s CPU     33.58s WALL (       1 calls)

     Called by c_bands:
     init_us_2    :     72.23s CPU     72.49s WALL (     494 calls)
     cegterg      :   9273.55s CPU   9359.68s WALL (     234 calls)

     Called by *egterg:
     cdiaghg      :     64.56s CPU     64.59s WALL (    1182 calls)
     h_psi        :   6040.19s CPU   6070.28s WALL (    1195 calls)
     s_psi        :    981.13s CPU    981.16s WALL (    1195 calls)
     g_psi        :     15.60s CPU     15.61s WALL (     948 calls)

     Called by h_psi:
     h_psi:calbec :    914.87s CPU    915.02s WALL (    1195 calls)
     vloc_psi     :   4120.04s CPU   4121.48s WALL (    1195 calls)
     add_vuspsi   :    980.37s CPU    980.43s WALL (    1195 calls)

     General routines
     calbec       :   1347.73s CPU   1347.92s WALL (    1481 calls)
     fft          :     47.68s CPU     47.70s WALL (    3158 calls)
     ffts         :    180.75s CPU    180.78s WALL (   12553 calls)
     fftw         :   4177.35s CPU   4178.22s WALL (  306282 calls)
 
     Parallel routines
 
     PWSCF        :      3h33m CPU      3h35m WALL

 
   This run was terminated on:  12:12:32  27Sep2022            

=------------------------------------------------------------------------------=
   JOB DONE.
=------------------------------------------------------------------------------=
