
     Program PWSCF v.6.7MaX starts on 20May2022 at 15: 5:11 

     This program is part of the open-source Quantum ESPRESSO suite
     for quantum simulation of materials; please cite
         "P. Giannozzi et al., J. Phys.:Condens. Matter 21 395502 (2009);
         "P. Giannozzi et al., J. Phys.:Condens. Matter 29 465901 (2017);
          URL http://www.quantum-espresso.org", 
     in publications or presentations arising from this work. More details at
     http://www.quantum-espresso.org/quote

     Parallel version (MPI), running on     1 processors

     MPI processes distributed on     1 nodes
     Reading input from h2co2-ensemble.in
Warning: card &CELL ignored
Warning: card / ignored

     Current dimensions of program PWSCF are:
     Max number of different atomic species (ntypx) = 10
     Max number of k-points (npk) =  40000
     Max angular momentum in pseudopotentials (lmaxx) =  3
     file Pt.pbe-n-kjpaw_psl.1.0.0.UPF: wavefunction(s)  6S 5D renormalized
     file O.pbe-nl-kjpaw_psl.1.0.0.UPF: wavefunction(s)  2S 2P renormalized
     file C.pbe-n-kjpaw_psl.1.0.0.UPF: wavefunction(s)  2S 2P renormalized
     file H.pbe-kjpaw_psl.1.0.0.UPF: wavefunction(s)  1S renormalized

     **************************************************************************
     Initializing libbeef V0.1.2 with the BEEF-vdW functional.
     Citation: Wellendorff et al., PRB 85, 235149 (2012).
     **************************************************************************


     IMPORTANT: XC functional enforced from input :
     Exchange-correlation= BEEF-VDW
                           (   1   4  43  14   2   0   0)
     Any further DFT definition will be discarded
     Please, verify this is what you really want


     Subspace diagonalization in iterative solution of the eigenvalue problem:
     a serial algorithm will be used

 
     G-vector sticks info
     --------------------
     sticks:   dense  smooth     PW     G-vecs:    dense   smooth      PW
     Sum        4267    4267   1159               716923   716923  100973
 


     bravais-lattice index     =            0
     lattice parameter (alat)  =      16.0349  a.u.
     unit-cell volume          =   11414.9051 (a.u.)^3
     number of atoms/cell      =           41
     number of atomic types    =            4
     number of electrons       =       378.00
     number of Kohn-Sham states=          227
     kinetic-energy cutoff     =      60.0000  Ry
     charge density cutoff     =     240.0000  Ry
     scf convergence threshold =      1.0E-06
     mixing beta               =       0.7000
     number of iterations used =            8  local-TF  mixing
     Exchange-correlation= BEEF-VDW
                           (   1   4  43  14   2   0   0)

     celldm(1)=  16.034858  celldm(2)=   0.000000  celldm(3)=   0.000000
     celldm(4)=   0.000000  celldm(5)=   0.000000  celldm(6)=   0.000000

     crystal axes: (cart. coord. in units of alat)
               a(1) = (   1.000000   0.000000   0.000000 )  
               a(2) = (   0.500000   0.866025   0.000000 )  
               a(3) = (   0.000000   0.000000   3.197027 )  

     reciprocal axes: (cart. coord. in units 2 pi/alat)
               b(1) = (  1.000000 -0.577350  0.000000 )  
               b(2) = (  0.000000  1.154701  0.000000 )  
               b(3) = (  0.000000  0.000000  0.312791 )  


     PseudoPot. # 1 for Pt read from file:
     /users/bkreitz1/quantum-espresso/potentials/Pt.pbe-n-kjpaw_psl.1.0.0.UPF
     MD5 check sum: 04dc8a03c51ece93fc7b5889c2958091
     Pseudo is Projector augmented-wave + core cor, Zval = 10.0
     Generated using 'atomic' code by A. Dal Corso  v.6.7MaX
     Shape of augmentation charge: PSQ
     Using radial grid of 1277 points,  6 beta functions with: 
                l(1) =   0
                l(2) =   0
                l(3) =   1
                l(4) =   1
                l(5) =   2
                l(6) =   2
     Q(r) pseudized with 0 coefficients 


     PseudoPot. # 2 for O  read from file:
     /users/bkreitz1/quantum-espresso/potentials/O.pbe-nl-kjpaw_psl.1.0.0.UPF
     MD5 check sum: eef08af8b58d9ec80f8fdb78829eb7cf
     Pseudo is Projector augmented-wave + core cor, Zval =  6.0
     Generated using 'atomic' code by A. Dal Corso  v.6.7MaX
     Shape of augmentation charge: PSQ
     Using radial grid of 1095 points,  4 beta functions with: 
                l(1) =   0
                l(2) =   0
                l(3) =   1
                l(4) =   1
     Q(r) pseudized with 0 coefficients 


     PseudoPot. # 3 for C  read from file:
     /users/bkreitz1/quantum-espresso/potentials/C.pbe-n-kjpaw_psl.1.0.0.UPF
     MD5 check sum: a169b0ebad56f5ec0d79c4633f80bf22
     Pseudo is Projector augmented-wave + core cor, Zval =  4.0
     Generated using 'atomic' code by A. Dal Corso  v.6.7MaX
     Shape of augmentation charge: PSQ
     Using radial grid of 1073 points,  4 beta functions with: 
                l(1) =   0
                l(2) =   0
                l(3) =   1
                l(4) =   1
     Q(r) pseudized with 0 coefficients 


     PseudoPot. # 4 for H  read from file:
     /users/bkreitz1/quantum-espresso/potentials/H.pbe-kjpaw_psl.1.0.0.UPF
     MD5 check sum: ae98473e6dc62675f0d0baffdab24f65
     Pseudo is Projector augmented-wave, Zval =  1.0
     Generated using 'atomic' code by A. Dal Corso  v.6.7MaX
     Shape of augmentation charge: PSQ
     Using radial grid of  929 points,  2 beta functions with: 
                l(1) =   0
                l(2) =   0
     Q(r) pseudized with 0 coefficients 


     atomic species   valence    mass     pseudopotential
        Pt            10.00   195.08400     Pt( 1.00)
        O              6.00    15.99900     O ( 1.00)
        C              4.00    12.01100     C ( 1.00)
        H              1.00     1.00800     H ( 1.00)

     No symmetry found



   Cartesian axes

     site n.     atom                  positions (alat units)
         1           Pt  tau(   1) = (   0.0000000   0.0000000   1.0017346  )
         2           Pt  tau(   2) = (   0.3333333   0.0000000   1.0017346  )
         3           Pt  tau(   3) = (   0.6666667   0.0000000   1.0017346  )
         4           Pt  tau(   4) = (   0.1666667   0.2886751   1.0017346  )
         5           Pt  tau(   5) = (   0.5000000   0.2886751   1.0017346  )
         6           Pt  tau(   6) = (   0.8333333   0.2886751   1.0017346  )
         7           Pt  tau(   7) = (   0.3333333   0.5773503   1.0017346  )
         8           Pt  tau(   8) = (   0.6666667   0.5773503   1.0017346  )
         9           Pt  tau(   9) = (   1.0000000   0.5773503   1.0017346  )
        10           Pt  tau(  10) = (   0.1666667   0.0962250   1.2739001  )
        11           Pt  tau(  11) = (   0.5000000   0.0962250   1.2739001  )
        12           Pt  tau(  12) = (   0.8333333   0.0962250   1.2739001  )
        13           Pt  tau(  13) = (   0.3333333   0.3849002   1.2739001  )
        14           Pt  tau(  14) = (   0.6666667   0.3849002   1.2739001  )
        15           Pt  tau(  15) = (   1.0000000   0.3849002   1.2739001  )
        16           Pt  tau(  16) = (   0.5000000   0.6735753   1.2739001  )
        17           Pt  tau(  17) = (   0.8333333   0.6735753   1.2739001  )
        18           Pt  tau(  18) = (   1.1666667   0.6735753   1.2739001  )
        19           Pt  tau(  19) = (  -0.0029071   0.1923246   1.5486868  )
        20           Pt  tau(  20) = (   0.3362452   0.1923283   1.5486875  )
        21           Pt  tau(  21) = (   0.6666624   0.1889817   1.5416811  )
        22           Pt  tau(  22) = (   0.1666706   0.4774854   1.5411081  )
        23           Pt  tau(  23) = (   0.5010619   0.4784277   1.5451095  )
        24           Pt  tau(  24) = (   0.8322651   0.4784284   1.5451132  )
        25           Pt  tau(  25) = (   0.3342638   0.7659679   1.5404019  )
        26           Pt  tau(  26) = (   0.6666661   0.7663689   1.5428897  )
        27           Pt  tau(  27) = (   0.9990677   0.7659730   1.5404036  )
        28           Pt  tau(  28) = (  -0.0003788  -0.0100420   1.8166394  )
        29           Pt  tau(  29) = (   0.3337139  -0.0100392   1.8166379  )
        30           Pt  tau(  30) = (   0.6666637  -0.0179153   1.8104032  )
        31           Pt  tau(  31) = (   0.1666698   0.2781113   1.8210021  )
        32           Pt  tau(  32) = (   0.4952450   0.2719672   1.8218240  )
        33           Pt  tau(  33) = (   0.8380856   0.2719674   1.8218251  )
        34           Pt  tau(  34) = (   0.3307367   0.5658626   1.8152916  )
        35           Pt  tau(  35) = (   0.6666643   0.5748246   1.8164528  )
        36           Pt  tau(  36) = (   1.0025996   0.5658673   1.8152905  )
        37           O   tau(  37) = (   0.6666682   0.2815879   2.0159945  )
        38           C   tau(  38) = (   0.6666642   0.4116586   2.1220387  )
        39           O   tau(  39) = (   0.6667265   0.5610704   2.0559677  )
        40           H   tau(  40) = (   0.5603031   0.3974324   2.1952265  )
        41           H   tau(  41) = (   0.7729742   0.3973925   2.1964711  )

     number of k points=    13  Marzari-Vanderbilt smearing, width (Ry)=  0.0200
                       cart. coord. in units 2pi/alat
        k(    1) = (   0.0000000   0.0000000   0.0000000), wk =   0.0800000
        k(    2) = (   0.0000000   0.2309401   0.0000000), wk =   0.1600000
        k(    3) = (   0.0000000   0.4618802   0.0000000), wk =   0.1600000
        k(    4) = (   0.2000000  -0.1154701   0.0000000), wk =   0.1600000
        k(    5) = (   0.2000000   0.1154701   0.0000000), wk =   0.1600000
        k(    6) = (   0.2000000   0.3464102   0.0000000), wk =   0.1600000
        k(    7) = (   0.2000000  -0.5773503   0.0000000), wk =   0.1600000
        k(    8) = (   0.2000000  -0.3464102   0.0000000), wk =   0.1600000
        k(    9) = (   0.4000000  -0.2309401   0.0000000), wk =   0.1600000
        k(   10) = (   0.4000000  -0.0000000   0.0000000), wk =   0.1600000
        k(   11) = (   0.4000000   0.2309401   0.0000000), wk =   0.1600000
        k(   12) = (   0.4000000  -0.6928203   0.0000000), wk =   0.1600000
        k(   13) = (   0.4000000  -0.4618802   0.0000000), wk =   0.1600000

     Dense  grid:   716923 G-vectors     FFT dimensions: (  80,  80, 256)

     Estimated max dynamical RAM per process >       8.74 GB

     Check: negative core charge=   -0.000001

     Initial potential from superposition of free atoms

     starting charge  377.99383, renormalised to  378.00000

     negative rho (up, down):  1.208E-02 0.000E+00


     %%%%%%%%%%%%%%%%%%%%%%%%%%%%%%%%%%%%%%%%%%%%%%%%%%%%%%%%%%%%%%%%%%%%%%%%
     %                                                                      %
     % You are using vdW-DF, which was implemented by the Thonhauser group. %
     % Please cite the following two papers that made this development      %
     % possible and the two reviews that describe the various versions:     %
     %                                                                      %
     %   T. Thonhauser et al., PRL 115, 136402 (2015).                      %
     %   T. Thonhauser et al., PRB 76, 125112 (2007).                       %
     %   K. Berland et al., Rep. Prog. Phys. 78, 066501 (2015).             %
     %   D.C. Langreth et al., J. Phys.: Condens. Matter 21, 084203 (2009). %
     %                                                                      %
     %                                                                      %
     % If you are calculating the stress with vdW-DF, please also cite:     %
     %                                                                      %
     %   R. Sabatini et al., J. Phys.: Condens. Matter 24, 424209 (2012).   %
     %                                                                      %
     %%%%%%%%%%%%%%%%%%%%%%%%%%%%%%%%%%%%%%%%%%%%%%%%%%%%%%%%%%%%%%%%%%%%%%%%


     Starting wfcs are  338 randomized atomic wfcs
     Checking if some PAW data can be deallocated... 

     total cpu time spent up to now is      387.2 secs

     Self-consistent Calculation

     iteration #  1     ecut=    60.00 Ry     beta= 0.70
     Davidson diagonalization with overlap
     ethr =  1.00E-02,  avg # of iterations =  2.2

     Threshold (ethr) on eigenvalues was too large:
     Diagonalizing with lowered threshold

     Davidson diagonalization with overlap
     ethr =  7.99E-04,  avg # of iterations =  2.7

     negative rho (up, down):  1.306E-02 0.000E+00

     total cpu time spent up to now is     1882.0 secs

     total energy              =  -27860.23932180 Ry
     estimated scf accuracy    <       3.17873416 Ry

     iteration #  2     ecut=    60.00 Ry     beta= 0.70
     Davidson diagonalization with overlap
     ethr =  8.41E-04,  avg # of iterations =  3.0

     negative rho (up, down):  1.128E-02 0.000E+00

     total cpu time spent up to now is     2582.7 secs

     total energy              =  -27860.44599495 Ry
     estimated scf accuracy    <       1.25693539 Ry

     iteration #  3     ecut=    60.00 Ry     beta= 0.70
     Davidson diagonalization with overlap
     ethr =  3.33E-04,  avg # of iterations =  3.6

     negative rho (up, down):  8.503E-03 0.000E+00

     total cpu time spent up to now is     3291.3 secs

     total energy              =  -27860.50975427 Ry
     estimated scf accuracy    <       0.40560295 Ry

     iteration #  4     ecut=    60.00 Ry     beta= 0.70
     Davidson diagonalization with overlap
     ethr =  1.07E-04,  avg # of iterations = 10.8

     negative rho (up, down):  6.911E-03 0.000E+00

     total cpu time spent up to now is     4229.9 secs

     total energy              =  -27860.56725023 Ry
     estimated scf accuracy    <       0.16702790 Ry

     iteration #  5     ecut=    60.00 Ry     beta= 0.70
     Davidson diagonalization with overlap
     ethr =  4.42E-05,  avg # of iterations =  5.3

     negative rho (up, down):  5.726E-03 0.000E+00

     total cpu time spent up to now is     5016.6 secs

     total energy              =  -27860.57697089 Ry
     estimated scf accuracy    <       0.04517503 Ry

     iteration #  6     ecut=    60.00 Ry     beta= 0.70
     Davidson diagonalization with overlap
     c_bands:  1 eigenvalues not converged
     c_bands:  1 eigenvalues not converged
     ethr =  1.20E-05,  avg # of iterations = 10.3

     negative rho (up, down):  5.618E-03 0.000E+00

     total cpu time spent up to now is     6006.7 secs

     total energy              =  -27860.58490461 Ry
     estimated scf accuracy    <       0.03019133 Ry

     iteration #  7     ecut=    60.00 Ry     beta= 0.70
     Davidson diagonalization with overlap
     ethr =  7.99E-06,  avg # of iterations =  2.2

     negative rho (up, down):  6.708E-03 0.000E+00

     total cpu time spent up to now is     6704.2 secs

     total energy              =  -27860.58511957 Ry
     estimated scf accuracy    <       0.01097035 Ry

     iteration #  8     ecut=    60.00 Ry     beta= 0.70
     Davidson diagonalization with overlap
     c_bands:  2 eigenvalues not converged
     c_bands:  1 eigenvalues not converged
     ethr =  2.90E-06,  avg # of iterations = 11.9

     negative rho (up, down):  7.311E-03 0.000E+00

     total cpu time spent up to now is     7580.8 secs

     total energy              =  -27860.58587996 Ry
     estimated scf accuracy    <       0.00158019 Ry

     iteration #  9     ecut=    60.00 Ry     beta= 0.70
     Davidson diagonalization with overlap
     ethr =  4.18E-07,  avg # of iterations =  4.8

     negative rho (up, down):  7.923E-03 0.000E+00

     total cpu time spent up to now is     8534.2 secs

     total energy              =  -27860.58644885 Ry
     estimated scf accuracy    <       0.00074121 Ry

     iteration # 10     ecut=    60.00 Ry     beta= 0.70
     Davidson diagonalization with overlap
     ethr =  1.96E-07,  avg # of iterations =  2.0

     negative rho (up, down):  8.793E-03 0.000E+00

     total cpu time spent up to now is     9217.9 secs

     total energy              =  -27860.58648351 Ry
     estimated scf accuracy    <       0.00047895 Ry

     iteration # 11     ecut=    60.00 Ry     beta= 0.70
     Davidson diagonalization with overlap
     ethr =  1.27E-07,  avg # of iterations =  1.6

     negative rho (up, down):  9.475E-03 0.000E+00

     total cpu time spent up to now is     9884.2 secs

     total energy              =  -27860.58650465 Ry
     estimated scf accuracy    <       0.00028021 Ry

     iteration # 12     ecut=    60.00 Ry     beta= 0.70
     Davidson diagonalization with overlap
     ethr =  7.41E-08,  avg # of iterations =  1.0

     negative rho (up, down):  9.769E-03 0.000E+00

     total cpu time spent up to now is    10502.0 secs

     total energy              =  -27860.58651247 Ry
     estimated scf accuracy    <       0.00016786 Ry

     iteration # 13     ecut=    60.00 Ry     beta= 0.70
     Davidson diagonalization with overlap
     ethr =  4.44E-08,  avg # of iterations =  1.2

     negative rho (up, down):  1.082E-02 0.000E+00

     total cpu time spent up to now is    11138.3 secs

     total energy              =  -27860.58651514 Ry
     estimated scf accuracy    <       0.00007709 Ry

     iteration # 14     ecut=    60.00 Ry     beta= 0.70
     Davidson diagonalization with overlap
     ethr =  2.04E-08,  avg # of iterations =  2.0

     negative rho (up, down):  1.112E-02 0.000E+00

     total cpu time spent up to now is    11833.1 secs

     total energy              =  -27860.58651687 Ry
     estimated scf accuracy    <       0.00004227 Ry

     iteration # 15     ecut=    60.00 Ry     beta= 0.70
     Davidson diagonalization with overlap
     ethr =  1.12E-08,  avg # of iterations =  2.0

     negative rho (up, down):  1.229E-02 0.000E+00

     total cpu time spent up to now is    12513.0 secs

     total energy              =  -27860.58651124 Ry
     estimated scf accuracy    <       0.00002619 Ry

     iteration # 16     ecut=    60.00 Ry     beta= 0.70
     Davidson diagonalization with overlap
     ethr =  6.93E-09,  avg # of iterations =  2.0

     negative rho (up, down):  1.285E-02 0.000E+00

     total cpu time spent up to now is    13206.7 secs

     total energy              =  -27860.58650999 Ry
     estimated scf accuracy    <       0.00001333 Ry

     iteration # 17     ecut=    60.00 Ry     beta= 0.70
     Davidson diagonalization with overlap
     ethr =  3.53E-09,  avg # of iterations =  2.0

     negative rho (up, down):  1.297E-02 0.000E+00

     total cpu time spent up to now is    13917.0 secs

     total energy              =  -27860.58651092 Ry
     estimated scf accuracy    <       0.00000938 Ry

     iteration # 18     ecut=    60.00 Ry     beta= 0.70
     Davidson diagonalization with overlap
     ethr =  2.48E-09,  avg # of iterations =  2.0

     negative rho (up, down):  1.322E-02 0.000E+00

     total cpu time spent up to now is    14576.9 secs

     total energy              =  -27860.58651100 Ry
     estimated scf accuracy    <       0.00000151 Ry

     iteration # 19     ecut=    60.00 Ry     beta= 0.70
     Davidson diagonalization with overlap
     ethr =  4.01E-10,  avg # of iterations =  4.9

     negative rho (up, down):  1.356E-02 0.000E+00

     total cpu time spent up to now is    15633.7 secs

     End of self-consistent calculation

          k = 0.0000 0.0000 0.0000 ( 89647 PWs)   bands (ev):

   -19.2507 -17.3430  -9.2854  -7.0354  -5.7834  -5.5891  -5.3706  -4.6939
    -4.6836  -4.6392  -4.6265  -4.6239  -4.6133  -4.6131  -4.5870  -4.5394
    -4.0916  -4.0884  -4.0867  -4.0669  -4.0525  -4.0384  -3.6394  -3.6309
    -3.6226  -3.6062  -3.5926  -3.5698  -3.4311  -3.4012  -3.3991  -3.3809
    -3.3781  -3.3174  -3.2074  -3.1998  -3.1989  -3.1851  -3.1710  -3.1642
    -3.1491  -3.1374  -3.1328  -3.1065  -3.0919  -3.0755  -2.6830  -2.6266
    -2.6111  -2.5431  -2.5402  -2.5285  -2.5076  -2.5035  -2.4691  -2.4352
    -2.3680  -2.3165  -2.2632  -2.2497  -2.0953  -2.0322  -1.8158  -1.7869
    -1.7347  -1.7219  -1.6791  -1.6486  -1.6484  -1.5756  -1.5617  -1.5606
    -1.5371  -1.5299  -1.5229  -1.5100  -1.5010  -1.4953  -1.4632  -1.4571
    -1.4420  -1.4286  -1.4271  -1.4102  -1.3400  -1.3375  -1.3180  -1.2756
    -1.2349  -1.2227  -1.2001  -1.1498  -1.1275  -1.1240  -1.0847  -1.0737
    -1.0698  -1.0497  -1.0284  -0.9925  -0.9617  -0.9614  -0.9289  -0.8652
    -0.8522  -0.8437  -0.8159  -0.8098  -0.7467  -0.7016  -0.6844  -0.6605
    -0.6447  -0.5822  -0.4896  -0.4113  -0.3898  -0.2068  -0.1924  -0.1843
    -0.1825  -0.1686  -0.1576  -0.1086  -0.1080  -0.0668  -0.0253  -0.0207
     0.0199   0.0467   0.0542   0.1045   0.1098   0.1659   0.2003   0.2599
     0.2648   0.2980   0.3224   0.3298   0.3528   0.4814   0.5129   0.5608
     0.5699   0.5780   0.5811   0.6059   0.6686   0.7032   0.7734   0.8027
     0.8341   0.8490   0.8500   0.8626   0.8824   0.9026   0.9672   0.9675
     1.0108   1.0147   1.0166   1.0294   1.0485   1.0513   1.0530   1.0932
     1.1097   1.1384   1.1403   1.1493   1.1603   1.2230   1.2413   1.2436
     1.2554   1.2584   1.3033   1.3109   1.3205   1.3326   1.3572   1.3892
     1.3911   1.3935   1.4167   1.4195   1.4306   1.4331   1.4427   1.4882
     1.5073   1.5327   1.5452   1.6394   1.6552   1.7170   1.7817   1.8091
     1.8349   1.8362   1.8631   1.8723   1.9231   2.0785   2.6888   2.7357
     2.7498   2.7764   3.0309   3.1362   3.9944   5.0313   5.0756   5.1109
     5.2681   5.3449   5.8175   6.2921   6.6021   6.6087   6.6470   6.6715
     6.6723   6.6800   6.7257

          k = 0.0000 0.2309 0.0000 ( 89580 PWs)   bands (ev):

   -19.2507 -17.3430  -9.2841  -6.8912  -5.7125  -5.5257  -5.3721  -5.1175
    -4.7354  -4.7293  -4.6567  -4.5332  -4.4773  -4.4116  -4.3838  -4.3782
    -4.1801  -4.1497  -4.0250  -4.0161  -4.0069  -3.9780  -3.7088  -3.5900
    -3.5837  -3.5703  -3.5463  -3.4978  -3.4838  -3.4465  -3.4292  -3.4145
    -3.3941  -3.3578  -3.2940  -3.2820  -3.2051  -3.1857  -3.1782  -3.1517
    -3.1395  -2.9783  -2.9697  -2.9644  -2.9527  -2.9242  -2.7394  -2.7369
    -2.6539  -2.6319  -2.5979  -2.5924  -2.5369  -2.4641  -2.4319  -2.3423
    -2.3265  -2.2995  -2.2784  -2.2117  -2.1267  -2.0858  -1.9784  -1.9115
    -1.8870  -1.8506  -1.8406  -1.7840  -1.7499  -1.7278  -1.7115  -1.6796
    -1.6663  -1.6423  -1.6110  -1.5452  -1.5231  -1.5150  -1.4972  -1.4547
    -1.4413  -1.4244  -1.3811  -1.3704  -1.3423  -1.3013  -1.2788  -1.2777
    -1.2330  -1.2180  -1.1860  -1.1672  -1.1402  -1.1087  -1.1043  -1.0807
    -1.0588  -1.0238  -1.0199  -0.9897  -0.9751  -0.9405  -0.9306  -0.9173
    -0.8759  -0.8668  -0.8604  -0.8022  -0.7904  -0.7494  -0.7297  -0.6915
    -0.6512  -0.6331  -0.6209  -0.5779  -0.5677  -0.5582  -0.5455  -0.3738
    -0.3268  -0.2790  -0.2277  -0.2250  -0.1855  -0.1483  -0.1355  -0.1326
    -0.0992  -0.0595  -0.0488   0.0582   0.1511   0.1597   0.1868   0.1948
     0.2251   0.2506   0.2778   0.2976   0.3287   0.3842   0.4228   0.4452
     0.4525   0.4817   0.5771   0.6007   0.6359   0.6638   0.6788   0.7102
     0.7133   0.7492   0.7899   0.7948   0.8397   0.8696   0.9063   0.9275
     0.9377   0.9493   1.0153   1.0247   1.0763   1.1048   1.1141   1.1623
     1.2085   1.2161   1.2469   1.2668   1.3058   1.3164   1.3461   1.3597
     1.3717   1.4195   1.4278   1.4577   1.4791   1.4936   1.5050   1.5116
     1.5347   1.5394   1.6149   1.6484   1.6835   1.6911   1.7442   1.7618
     1.7686   1.8011   1.8229   1.8340   1.8480   1.8917   1.9135   1.9583
     1.9745   2.0408   2.1380   2.1423   2.1665   2.3373   2.4435   2.8007
     3.0519   3.3416   3.4206   3.5622   4.1374   4.4681   4.9288   5.2129
     5.4635   5.5021   5.7280   5.8365   6.1547   6.3909   6.4345   6.5018
     6.7736   6.8443   6.8808

          k = 0.0000 0.4619 0.0000 ( 89606 PWs)   bands (ev):

   -19.2507 -17.3430  -9.2821  -6.4782  -5.8825  -5.5924  -5.3743  -5.1646
    -4.7700  -4.7648  -4.6679  -4.6200  -4.3847  -4.2400  -4.1507  -4.0913
    -4.0444  -4.0421  -3.9108  -3.8962  -3.8401  -3.8209  -3.8088  -3.7306
    -3.6654  -3.6621  -3.6273  -3.6203  -3.5764  -3.5348  -3.4836  -3.4699
    -3.4498  -3.2511  -3.2196  -3.2054  -3.2023  -3.1762  -3.1567  -2.9991
    -2.9809  -2.9521  -2.9424  -2.9263  -2.9156  -2.7862  -2.6716  -2.6648
    -2.6343  -2.6164  -2.5920  -2.5363  -2.5189  -2.4835  -2.4548  -2.4375
    -2.4116  -2.3548  -2.3044  -2.2582  -2.2474  -2.1727  -2.1715  -2.0903
    -2.0695  -2.0220  -2.0070  -1.9493  -1.8954  -1.8428  -1.8143  -1.8003
    -1.7679  -1.7180  -1.6795  -1.6591  -1.6337  -1.6209  -1.5759  -1.5501
    -1.4815  -1.4813  -1.4381  -1.4024  -1.3928  -1.3676  -1.3606  -1.3389
    -1.3184  -1.3008  -1.2766  -1.2557  -1.2384  -1.2218  -1.1861  -1.1789
    -1.1587  -1.1215  -1.0917  -1.0914  -1.0286  -0.9812  -0.9730  -0.9510
    -0.9251  -0.8816  -0.8800  -0.8341  -0.8025  -0.7639  -0.7274  -0.6734
    -0.6672  -0.6404  -0.6191  -0.5780  -0.5735  -0.5178  -0.4049  -0.4027
    -0.3390  -0.3013  -0.3001  -0.2582  -0.2376  -0.2002  -0.1853  -0.1527
    -0.1226  -0.1104  -0.0952  -0.0807  -0.0680  -0.0589  -0.0360   0.0352
     0.0767   0.0932   0.1337   0.1443   0.2029   0.2687   0.3108   0.3467
     0.3730   0.4374   0.5497   0.5737   0.5824   0.6038   0.6426   0.6484
     0.6866   0.7096   0.7196   0.7683   0.7891   0.8350   0.8434   0.8930
     0.9400   0.9714   0.9848   1.0151   1.0179   1.0497   1.0700   1.1464
     1.2291   1.2492   1.2576   1.2956   1.3424   1.3787   1.3984   1.4062
     1.4744   1.4886   1.5406   1.5481   1.5615   1.5688   1.6498   1.6544
     1.7266   1.7341   1.7421   1.7512   1.7873   1.8062   1.8524   1.9198
     1.9543   1.9755   2.0058   2.0974   2.1019   2.1515   2.2281   2.2441
     2.6563   2.8002   2.8249   3.0441   3.0511   3.2547   3.4255   3.5376
     3.7936   3.8942   4.2497   4.2634   4.3793   4.4461   4.5545   4.7126
     4.8376   4.9158   4.9868   5.2621   5.6378   5.7731   6.1076   6.3240
     6.6504   6.6769   6.7995

          k = 0.2000-0.1155 0.0000 ( 89580 PWs)   bands (ev):

   -19.2507 -17.3430  -9.2842  -6.8902  -5.6874  -5.5431  -5.3754  -5.1171
    -4.7455  -4.7301  -4.6444  -4.5296  -4.4754  -4.4264  -4.3864  -4.3696
    -4.2001  -4.1584  -4.0237  -4.0037  -3.9939  -3.9680  -3.7029  -3.6102
    -3.5843  -3.5702  -3.5491  -3.4989  -3.4889  -3.4459  -3.4115  -3.4051
    -3.3842  -3.3586  -3.3137  -3.2884  -3.2100  -3.1860  -3.1725  -3.1579
    -3.1406  -2.9913  -2.9752  -2.9505  -2.9393  -2.9219  -2.7411  -2.7066
    -2.6645  -2.6454  -2.6052  -2.5804  -2.5734  -2.4689  -2.4270  -2.3602
    -2.3180  -2.3039  -2.2713  -2.2351  -2.1148  -2.0832  -2.0100  -1.9121
    -1.9025  -1.8634  -1.8242  -1.7962  -1.7623  -1.7416  -1.7070  -1.6913
    -1.6692  -1.6155  -1.6015  -1.5782  -1.5454  -1.5190  -1.4792  -1.4363
    -1.4300  -1.4035  -1.3871  -1.3535  -1.3305  -1.3063  -1.2799  -1.2644
    -1.2437  -1.2188  -1.2081  -1.1812  -1.1487  -1.1289  -1.0854  -1.0721
    -1.0488  -1.0308  -1.0156  -0.9817  -0.9584  -0.9462  -0.9264  -0.9106
    -0.8800  -0.8678  -0.8544  -0.8226  -0.7592  -0.7296  -0.6888  -0.6656
    -0.6476  -0.6307  -0.6111  -0.5893  -0.5686  -0.5567  -0.5473  -0.4474
    -0.3379  -0.2885  -0.2311  -0.2011  -0.1615  -0.1477  -0.1326  -0.1069
    -0.0853  -0.0189   0.0440   0.0782   0.1393   0.1691   0.1928   0.2079
     0.2390   0.2544   0.2760   0.3123   0.3467   0.3867   0.4103   0.4372
     0.4532   0.4593   0.5033   0.5954   0.6352   0.6493   0.6751   0.7007
     0.7229   0.7556   0.8041   0.8297   0.8449   0.8588   0.9006   0.9166
     0.9461   0.9594   0.9818   1.0277   1.0556   1.0966   1.1240   1.1671
     1.1782   1.2174   1.2338   1.2560   1.2833   1.3061   1.3496   1.3750
     1.3891   1.4149   1.4265   1.4503   1.4681   1.4776   1.5000   1.5058
     1.5391   1.5709   1.6049   1.6625   1.6864   1.7198   1.7343   1.7369
     1.7757   1.7909   1.7953   1.8248   1.8441   1.8754   1.9075   1.9545
     1.9783   2.0095   2.1349   2.1443   2.1681   2.3537   2.4939   2.7821
     2.9808   3.3660   3.4113   3.5652   4.1325   4.5710   4.9082   5.1120
     5.4677   5.5022   5.7148   5.8441   6.1910   6.3972   6.4715   6.5043
     6.7811   6.8278   6.8563

          k = 0.2000 0.1155 0.0000 ( 89580 PWs)   bands (ev):

   -19.2507 -17.3430  -9.2842  -6.8902  -5.6875  -5.5429  -5.3753  -5.1175
    -4.7453  -4.7299  -4.6446  -4.5296  -4.4754  -4.4265  -4.3864  -4.3695
    -4.2002  -4.1584  -4.0235  -4.0036  -3.9939  -3.9680  -3.7029  -3.6104
    -3.5842  -3.5702  -3.5491  -3.4988  -3.4888  -3.4458  -3.4115  -3.4052
    -3.3842  -3.3586  -3.3136  -3.2883  -3.2099  -3.1861  -3.1725  -3.1579
    -3.1407  -2.9913  -2.9751  -2.9505  -2.9393  -2.9219  -2.7410  -2.7067
    -2.6644  -2.6454  -2.6053  -2.5804  -2.5734  -2.4687  -2.4272  -2.3602
    -2.3180  -2.3040  -2.2713  -2.2350  -2.1148  -2.0833  -2.0100  -1.9121
    -1.9025  -1.8634  -1.8244  -1.7962  -1.7623  -1.7416  -1.7070  -1.6913
    -1.6692  -1.6154  -1.6014  -1.5783  -1.5455  -1.5189  -1.4793  -1.4362
    -1.4300  -1.4035  -1.3872  -1.3535  -1.3305  -1.3063  -1.2799  -1.2644
    -1.2437  -1.2187  -1.2081  -1.1812  -1.1487  -1.1290  -1.0853  -1.0722
    -1.0488  -1.0307  -1.0157  -0.9817  -0.9583  -0.9461  -0.9264  -0.9106
    -0.8800  -0.8677  -0.8544  -0.8226  -0.7593  -0.7297  -0.6887  -0.6655
    -0.6475  -0.6306  -0.6112  -0.5893  -0.5686  -0.5567  -0.5473  -0.4477
    -0.3379  -0.2885  -0.2311  -0.2010  -0.1615  -0.1477  -0.1326  -0.1069
    -0.0853  -0.0189   0.0440   0.0781   0.1393   0.1691   0.1928   0.2079
     0.2390   0.2544   0.2760   0.3123   0.3467   0.3868   0.4104   0.4372
     0.4532   0.4593   0.5033   0.5953   0.6352   0.6493   0.6751   0.7007
     0.7229   0.7556   0.8041   0.8297   0.8449   0.8588   0.9006   0.9167
     0.9460   0.9594   0.9818   1.0278   1.0556   1.0965   1.1241   1.1671
     1.1782   1.2174   1.2338   1.2561   1.2833   1.3061   1.3496   1.3750
     1.3891   1.4150   1.4265   1.4503   1.4681   1.4776   1.5000   1.5058
     1.5391   1.5709   1.6051   1.6624   1.6864   1.7198   1.7342   1.7369
     1.7758   1.7909   1.7953   1.8248   1.8441   1.8752   1.9074   1.9545
     1.9783   2.0096   2.1349   2.1443   2.1681   2.3535   2.4941   2.7822
     2.9808   3.3660   3.4114   3.5652   4.1324   4.5712   4.9082   5.1119
     5.4678   5.5022   5.7148   5.8440   6.1911   6.3972   6.4715   6.5044
     6.7810   6.8278   6.8563

          k = 0.2000 0.3464 0.0000 ( 89570 PWs)   bands (ev):

   -19.2507 -17.3430  -9.2826  -6.6104  -5.6727  -5.4436  -5.3661  -5.3217
    -5.2545  -4.6624  -4.3236  -4.3079  -4.3041  -4.2891  -4.2487  -4.2314
    -4.2151  -4.2032  -4.1157  -4.1023  -3.7729  -3.7450  -3.7310  -3.7089
    -3.6578  -3.6447  -3.5277  -3.5075  -3.4972  -3.4715  -3.4442  -3.3765
    -3.3427  -3.3315  -3.3178  -3.2943  -3.2439  -3.2130  -3.2056  -3.1682
    -3.1575  -3.0862  -2.8549  -2.8347  -2.7590  -2.7425  -2.7194  -2.7006
    -2.6698  -2.6635  -2.6148  -2.6044  -2.5115  -2.4589  -2.4329  -2.3752
    -2.3504  -2.3094  -2.2907  -2.2510  -2.2133  -2.1852  -2.1373  -2.1003
    -1.9945  -1.9833  -1.9441  -1.8772  -1.8603  -1.8487  -1.8303  -1.8036
    -1.7732  -1.7522  -1.6437  -1.6258  -1.6031  -1.5787  -1.5572  -1.5320
    -1.5218  -1.4801  -1.4463  -1.4062  -1.3749  -1.3304  -1.3197  -1.3021
    -1.2740  -1.2609  -1.2456  -1.2142  -1.2076  -1.1862  -1.1716  -1.1238
    -1.1118  -1.0724  -1.0314  -1.0008  -0.9727  -0.9514  -0.9265  -0.9147
    -0.9039  -0.8811  -0.8678  -0.8429  -0.8292  -0.8074  -0.7838  -0.7707
    -0.7473  -0.6978  -0.6576  -0.6476  -0.5953  -0.5738  -0.5225  -0.4646
    -0.4136  -0.3771  -0.3141  -0.2809  -0.2376  -0.1974  -0.1742  -0.1429
    -0.1038  -0.0837  -0.0697  -0.0408  -0.0086  -0.0032   0.0451   0.0811
     0.1303   0.1840   0.2117   0.2595   0.2753   0.3086   0.3597   0.3939
     0.4060   0.4588   0.4885   0.5196   0.5628   0.5901   0.6355   0.6764
     0.7169   0.7343   0.7693   0.7739   0.8078   0.8160   0.8249   0.8431
     0.8624   0.8781   0.9337   0.9774   1.0117   1.0608   1.1271   1.1991
     1.2353   1.2831   1.3476   1.3741   1.3959   1.4353   1.4704   1.4874
     1.5254   1.5418   1.5557   1.5712   1.5752   1.5964   1.6126   1.6324
     1.6688   1.6857   1.7217   1.7503   1.7759   1.7942   1.8031   1.8446
     1.9096   1.9513   2.0207   2.0450   2.0911   2.1083   2.1322   2.2494
     2.2782   2.3551   2.5461   2.7889   2.8539   3.0176   3.3416   3.3662
     3.5108   3.6652   4.1053   4.1583   4.2652   4.3263   4.4940   4.8419
     5.0261   5.4515   5.5909   5.7227   5.8422   6.2103   6.2419   6.2966
     6.3592   6.5306   6.6091

          k = 0.2000-0.5774 0.0000 ( 89588 PWs)   bands (ev):

   -19.2506 -17.3430  -9.2816  -6.1172  -6.0685  -5.5905  -5.4953  -5.3329
    -4.8541  -4.7754  -4.6644  -4.3247  -4.2902  -4.1565  -4.1364  -4.0364
    -4.0197  -3.9233  -3.9143  -3.8603  -3.8146  -3.7887  -3.7565  -3.7459
    -3.7307  -3.7138  -3.6418  -3.5813  -3.5749  -3.5568  -3.5452  -3.4751
    -3.3914  -3.3332  -3.2861  -3.2150  -3.1995  -3.1871  -3.1553  -3.1299
    -3.0908  -3.0547  -2.9592  -2.9416  -2.8178  -2.7527  -2.7373  -2.6466
    -2.6233  -2.5771  -2.5591  -2.4951  -2.4425  -2.4032  -2.3694  -2.3582
    -2.3323  -2.2946  -2.2652  -2.2239  -2.1939  -2.1607  -2.1480  -2.1327
    -2.1078  -2.0778  -2.0444  -2.0135  -2.0039  -1.9417  -1.8994  -1.8692
    -1.8373  -1.8009  -1.7775  -1.7156  -1.6501  -1.6347  -1.6213  -1.5957
    -1.5746  -1.5499  -1.5231  -1.4911  -1.4719  -1.4349  -1.3932  -1.3704
    -1.3321  -1.3110  -1.2564  -1.2479  -1.2188  -1.1987  -1.1575  -1.1144
    -1.0750  -1.0455  -1.0236  -1.0089  -0.9954  -0.9688  -0.9553  -0.9466
    -0.9328  -0.9017  -0.8742  -0.8622  -0.8227  -0.8144  -0.7923  -0.7691
    -0.7623  -0.7556  -0.7449  -0.6758  -0.6352  -0.6112  -0.4960  -0.4536
    -0.4096  -0.3787  -0.3172  -0.2808  -0.2727  -0.2371  -0.1958  -0.1666
    -0.1604  -0.1305  -0.1112  -0.0955  -0.0541  -0.0305   0.0584   0.0807
     0.0830   0.1138   0.1452   0.1894   0.2386   0.2740   0.3708   0.3936
     0.4268   0.4463   0.4920   0.4975   0.5098   0.5299   0.5520   0.6227
     0.6307   0.6592   0.6948   0.7282   0.7479   0.7603   0.7983   0.8109
     0.8980   0.9395   0.9904   1.0111   1.0310   1.1268   1.1771   1.2159
     1.2285   1.3234   1.3305   1.3660   1.3884   1.4591   1.4835   1.5087
     1.5292   1.5478   1.5895   1.5932   1.6120   1.6643   1.6992   1.7179
     1.7349   1.7410   1.7663   1.7871   1.8304   1.8605   1.9239   1.9464
     1.9842   2.0078   2.0407   2.0620   2.1088   2.1851   2.2481   2.3900
     2.6543   3.1414   3.1496   3.4177   3.4374   3.5184   3.5587   3.6060
     3.8917   4.1615   4.1827   4.3264   4.6222   4.6846   4.7691   4.7729
     4.8766   5.0312   5.1454   5.2347   5.3238   5.6036   5.6963   5.9230
     6.2309   6.2439   6.3870

          k = 0.2000-0.3464 0.0000 ( 89570 PWs)   bands (ev):

   -19.2507 -17.3430  -9.2826  -6.6104  -5.6726  -5.4444  -5.3652  -5.3223
    -5.2541  -4.6624  -4.3233  -4.3079  -4.3041  -4.2891  -4.2489  -4.2314
    -4.2152  -4.2032  -4.1157  -4.1023  -3.7731  -3.7450  -3.7309  -3.7090
    -3.6579  -3.6447  -3.5274  -3.5075  -3.4972  -3.4714  -3.4444  -3.3765
    -3.3427  -3.3316  -3.3178  -3.2943  -3.2440  -3.2131  -3.2056  -3.1681
    -3.1576  -3.0862  -2.8549  -2.8348  -2.7590  -2.7425  -2.7194  -2.7006
    -2.6700  -2.6634  -2.6147  -2.6043  -2.5113  -2.4589  -2.4328  -2.3752
    -2.3504  -2.3094  -2.2909  -2.2510  -2.2133  -2.1851  -2.1372  -2.1005
    -1.9945  -1.9834  -1.9441  -1.8771  -1.8604  -1.8486  -1.8303  -1.8036
    -1.7731  -1.7521  -1.6436  -1.6258  -1.6029  -1.5787  -1.5573  -1.5319
    -1.5218  -1.4801  -1.4463  -1.4062  -1.3751  -1.3303  -1.3197  -1.3021
    -1.2741  -1.2609  -1.2456  -1.2142  -1.2076  -1.1862  -1.1716  -1.1237
    -1.1118  -1.0725  -1.0314  -1.0007  -0.9727  -0.9514  -0.9265  -0.9147
    -0.9040  -0.8811  -0.8678  -0.8430  -0.8293  -0.8074  -0.7838  -0.7708
    -0.7472  -0.6978  -0.6575  -0.6476  -0.5954  -0.5739  -0.5225  -0.4646
    -0.4136  -0.3770  -0.3141  -0.2809  -0.2376  -0.1974  -0.1742  -0.1429
    -0.1038  -0.0838  -0.0697  -0.0408  -0.0086  -0.0032   0.0451   0.0812
     0.1302   0.1840   0.2117   0.2595   0.2753   0.3087   0.3597   0.3939
     0.4060   0.4588   0.4885   0.5197   0.5628   0.5901   0.6355   0.6763
     0.7170   0.7343   0.7693   0.7739   0.8078   0.8160   0.8249   0.8431
     0.8624   0.8781   0.9337   0.9773   1.0115   1.0608   1.1272   1.1991
     1.2353   1.2832   1.3477   1.3741   1.3959   1.4353   1.4703   1.4874
     1.5254   1.5418   1.5556   1.5712   1.5752   1.5963   1.6126   1.6323
     1.6688   1.6857   1.7217   1.7503   1.7760   1.7941   1.8031   1.8445
     1.9096   1.9515   2.0208   2.0450   2.0911   2.1083   2.1322   2.2494
     2.2782   2.3549   2.5463   2.7889   2.8539   3.0175   3.3416   3.3662
     3.5106   3.6653   4.1053   4.1583   4.2651   4.3262   4.4941   4.8419
     5.0262   5.4515   5.5909   5.7227   5.8423   6.2103   6.2420   6.2966
     6.3592   6.5306   6.6090

          k = 0.4000-0.2309 0.0000 ( 89606 PWs)   bands (ev):

   -19.2507 -17.3430  -9.2823  -6.4724  -5.8540  -5.6018  -5.3839  -5.1728
    -4.7689  -4.7615  -4.6727  -4.6134  -4.4017  -4.2464  -4.1458  -4.0913
    -4.0529  -4.0396  -3.9099  -3.8627  -3.8351  -3.8151  -3.8047  -3.7128
    -3.6699  -3.6591  -3.6222  -3.6089  -3.5835  -3.5323  -3.4965  -3.4758
    -3.4602  -3.2579  -3.2340  -3.2202  -3.2004  -3.1843  -3.1673  -3.0045
    -2.9751  -2.9592  -2.9495  -2.9208  -2.8984  -2.7768  -2.7235  -2.6742
    -2.6497  -2.6227  -2.5881  -2.5730  -2.5153  -2.4821  -2.4652  -2.4527
    -2.4210  -2.3341  -2.2866  -2.2794  -2.2539  -2.1999  -2.1405  -2.1083
    -2.0696  -2.0455  -2.0238  -1.9732  -1.8893  -1.8666  -1.8322  -1.7991
    -1.7780  -1.7278  -1.7120  -1.6818  -1.6598  -1.5915  -1.5372  -1.5158
    -1.4795  -1.4578  -1.4297  -1.4060  -1.3947  -1.3760  -1.3620  -1.3343
    -1.3188  -1.3020  -1.2834  -1.2775  -1.2429  -1.2144  -1.2041  -1.1520
    -1.1376  -1.1229  -1.1011  -1.0808  -1.0221  -0.9681  -0.9527  -0.9050
    -0.8908  -0.8688  -0.8335  -0.8080  -0.7893  -0.7438  -0.7154  -0.6748
    -0.6614  -0.6330  -0.5822  -0.5579  -0.5302  -0.4920  -0.4176  -0.3631
    -0.3259  -0.3086  -0.2864  -0.2582  -0.2297  -0.2080  -0.1867  -0.1524
    -0.1337  -0.1200  -0.1022  -0.0907  -0.0521  -0.0340   0.0062   0.0359
     0.0696   0.1215   0.1373   0.1706   0.1984   0.2407   0.2935   0.3502
     0.3914   0.4198   0.4621   0.5190   0.5846   0.6150   0.6445   0.6812
     0.6988   0.7326   0.7339   0.7783   0.8021   0.8247   0.8605   0.8949
     0.9299   0.9586   0.9727   1.0014   1.0127   1.0603   1.0964   1.1968
     1.2283   1.2429   1.2656   1.2798   1.3066   1.3703   1.3913   1.4008
     1.4342   1.4891   1.5441   1.5576   1.5878   1.6174   1.6285   1.6481
     1.7134   1.7232   1.7299   1.7434   1.7612   1.7708   1.8376   1.8766
     1.9444   1.9567   1.9917   2.0392   2.0714   2.1527   2.2269   2.2703
     2.6692   2.7853   2.8497   3.0383   3.0567   3.1995   3.4427   3.5247
     3.7605   3.9088   4.2470   4.2651   4.3216   4.4994   4.5765   4.6606
     4.8212   4.9208   5.0015   5.2375   5.6011   5.8194   6.1640   6.3219
     6.6725   6.7223   6.7684

          k = 0.4000-0.0000 0.0000 ( 89570 PWs)   bands (ev):

   -19.2507 -17.3430  -9.2827  -6.6067  -5.6408  -5.4652  -5.3835  -5.3046
    -5.2623  -4.6538  -4.3320  -4.3095  -4.3033  -4.2906  -4.2656  -4.2319
    -4.2142  -4.1975  -4.1181  -4.1060  -3.7436  -3.7325  -3.7160  -3.7128
    -3.6435  -3.6390  -3.5392  -3.5076  -3.4909  -3.4744  -3.4550  -3.4000
    -3.3575  -3.3407  -3.3191  -3.3010  -3.2519  -3.2177  -3.2063  -3.1876
    -3.1338  -3.0641  -2.8435  -2.8207  -2.7823  -2.7535  -2.7114  -2.6988
    -2.6829  -2.6488  -2.6380  -2.5860  -2.5822  -2.4709  -2.4540  -2.3519
    -2.3398  -2.3213  -2.2840  -2.2512  -2.2102  -2.1795  -2.1696  -2.0892
    -2.0152  -1.9763  -1.9615  -1.8915  -1.8738  -1.8417  -1.8316  -1.8274
    -1.7733  -1.7146  -1.7079  -1.6339  -1.6052  -1.5777  -1.5576  -1.5154
    -1.5088  -1.4718  -1.4578  -1.4036  -1.3606  -1.3384  -1.3143  -1.2928
    -1.2780  -1.2491  -1.2392  -1.2201  -1.2026  -1.1742  -1.1345  -1.1196
    -1.0912  -1.0633  -1.0212  -1.0084  -0.9972  -0.9545  -0.9501  -0.9088
    -0.8943  -0.8790  -0.8474  -0.8227  -0.8052  -0.7905  -0.7773  -0.7572
    -0.7456  -0.6942  -0.6535  -0.6136  -0.6025  -0.5688  -0.5019  -0.4772
    -0.4056  -0.3498  -0.3061  -0.2856  -0.2503  -0.1660  -0.1377  -0.1344
    -0.1187  -0.0808  -0.0622  -0.0404  -0.0123   0.0070   0.0508   0.0905
     0.1695   0.2039   0.2341   0.2601   0.2802   0.2878   0.3254   0.3731
     0.4135   0.4281   0.4813   0.5180   0.5544   0.5836   0.6207   0.6612
     0.7151   0.7270   0.7471   0.7684   0.7941   0.8168   0.8286   0.8563
     0.8708   0.8932   0.9124   0.9791   0.9945   1.0554   1.1708   1.2049
     1.2527   1.2939   1.3089   1.3741   1.3894   1.4177   1.4620   1.5077
     1.5288   1.5342   1.5568   1.5804   1.5887   1.6064   1.6244   1.6365
     1.6657   1.6738   1.7124   1.7657   1.7891   1.7968   1.8057   1.8647
     1.8968   1.9550   1.9691   2.0098   2.0543   2.1052   2.1303   2.2197
     2.2640   2.3281   2.5566   2.8293   2.8372   3.0305   3.3271   3.3453
     3.5306   3.5920   4.1125   4.1903   4.2569   4.3239   4.4034   4.8757
     5.1423   5.4512   5.6159   5.6995   5.7279   6.1872   6.2871   6.3226
     6.3979   6.4574   6.6248

          k = 0.4000 0.2309 0.0000 ( 89606 PWs)   bands (ev):

   -19.2507 -17.3430  -9.2823  -6.4724  -5.8539  -5.6017  -5.3840  -5.1731
    -4.7684  -4.7614  -4.6731  -4.6135  -4.4018  -4.2464  -4.1458  -4.0913
    -4.0528  -4.0396  -3.9096  -3.8627  -3.8350  -3.8151  -3.8047  -3.7128
    -3.6699  -3.6592  -3.6223  -3.6088  -3.5837  -3.5323  -3.4965  -3.4758
    -3.4602  -3.2577  -3.2340  -3.2202  -3.2005  -3.1843  -3.1672  -3.0042
    -2.9751  -2.9593  -2.9495  -2.9209  -2.8984  -2.7766  -2.7238  -2.6742
    -2.6497  -2.6227  -2.5881  -2.5731  -2.5152  -2.4822  -2.4652  -2.4527
    -2.4210  -2.3341  -2.2867  -2.2794  -2.2539  -2.1999  -2.1405  -2.1084
    -2.0697  -2.0454  -2.0238  -1.9729  -1.8894  -1.8666  -1.8322  -1.7992
    -1.7781  -1.7278  -1.7122  -1.6818  -1.6599  -1.5915  -1.5372  -1.5158
    -1.4795  -1.4578  -1.4297  -1.4059  -1.3947  -1.3759  -1.3620  -1.3342
    -1.3188  -1.3021  -1.2834  -1.2776  -1.2428  -1.2143  -1.2040  -1.1520
    -1.1376  -1.1229  -1.1010  -1.0807  -1.0220  -0.9680  -0.9527  -0.9049
    -0.8907  -0.8688  -0.8335  -0.8080  -0.7893  -0.7439  -0.7154  -0.6748
    -0.6613  -0.6330  -0.5822  -0.5579  -0.5301  -0.4920  -0.4177  -0.3630
    -0.3259  -0.3086  -0.2864  -0.2583  -0.2297  -0.2080  -0.1867  -0.1525
    -0.1336  -0.1200  -0.1022  -0.0907  -0.0521  -0.0340   0.0061   0.0357
     0.0697   0.1215   0.1372   0.1706   0.1985   0.2407   0.2936   0.3502
     0.3914   0.4198   0.4622   0.5190   0.5846   0.6149   0.6446   0.6812
     0.6988   0.7326   0.7339   0.7783   0.8021   0.8246   0.8605   0.8948
     0.9300   0.9586   0.9727   1.0014   1.0126   1.0603   1.0964   1.1967
     1.2284   1.2428   1.2656   1.2798   1.3065   1.3703   1.3913   1.4008
     1.4342   1.4891   1.5441   1.5576   1.5878   1.6175   1.6286   1.6482
     1.7134   1.7232   1.7299   1.7433   1.7612   1.7708   1.8378   1.8764
     1.9444   1.9566   1.9917   2.0391   2.0715   2.1527   2.2269   2.2704
     2.6693   2.7852   2.8496   3.0383   3.0567   3.1995   3.4428   3.5247
     3.7606   3.9088   4.2471   4.2651   4.3216   4.4993   4.5765   4.6606
     4.8212   4.9209   5.0015   5.2374   5.6011   5.8193   6.1640   6.3219
     6.6723   6.7230   6.7681

          k = 0.4000-0.6928 0.0000 ( 89588 PWs)   bands (ev):

   -19.2507 -17.3430  -9.2817  -6.0927  -6.0728  -5.6396  -5.4367  -5.3483
    -4.8462  -4.8133  -4.6447  -4.3220  -4.2969  -4.1655  -4.1359  -4.0296
    -4.0207  -3.9205  -3.9033  -3.8352  -3.8085  -3.7858  -3.7563  -3.7434
    -3.7386  -3.7312  -3.6110  -3.5978  -3.5759  -3.5603  -3.5313  -3.4832
    -3.3979  -3.3498  -3.2898  -3.2311  -3.2076  -3.1819  -3.1535  -3.1366
    -3.0984  -3.0470  -2.9674  -2.9423  -2.8064  -2.7492  -2.7274  -2.6978
    -2.6308  -2.5939  -2.5574  -2.5116  -2.4277  -2.4083  -2.3835  -2.3545
    -2.3460  -2.2850  -2.2569  -2.2342  -2.1975  -2.1651  -2.1423  -2.1136
    -2.0996  -2.0867  -2.0717  -2.0204  -2.0124  -1.9776  -1.9091  -1.8613
    -1.8413  -1.7807  -1.7440  -1.7189  -1.6779  -1.6478  -1.6371  -1.6233
    -1.5696  -1.5580  -1.5491  -1.4805  -1.4466  -1.4010  -1.3845  -1.3594
    -1.3266  -1.2974  -1.2746  -1.2519  -1.2307  -1.1962  -1.1680  -1.0867
    -1.0494  -1.0424  -1.0257  -1.0007  -0.9851  -0.9564  -0.9404  -0.9197
    -0.9031  -0.8818  -0.8743  -0.8480  -0.8247  -0.8178  -0.7866  -0.7747
    -0.7628  -0.7433  -0.7222  -0.6953  -0.6470  -0.5333  -0.4657  -0.4231
    -0.4055  -0.3719  -0.3295  -0.3092  -0.2635  -0.2330  -0.2185  -0.1845
    -0.1537  -0.1475  -0.1127  -0.1007  -0.0543  -0.0252   0.0191   0.0886
     0.0990   0.1140   0.1742   0.2053   0.2742   0.2951   0.3556   0.3902
     0.4144   0.4377   0.4681   0.4992   0.5311   0.5389   0.5726   0.5982
     0.6221   0.6546   0.6892   0.7235   0.7575   0.7658   0.7989   0.8183
     0.8466   0.9317   0.9515   1.0418   1.0833   1.1122   1.1776   1.2101
     1.2240   1.2961   1.3367   1.3469   1.3788   1.4433   1.4919   1.5298
     1.5488   1.5678   1.5812   1.6002   1.6282   1.6648   1.6852   1.7141
     1.7274   1.7478   1.7702   1.7871   1.8270   1.8549   1.9321   1.9531
     1.9811   1.9930   2.0379   2.0511   2.1249   2.1631   2.2019   2.3494
     2.6050   3.1435   3.1517   3.4093   3.4759   3.5252   3.5654   3.6652
     3.8313   4.1442   4.1814   4.2253   4.6319   4.7390   4.7602   4.8103
     4.8529   4.9954   5.0860   5.2112   5.4615   5.5605   5.6705   5.9501
     6.2235   6.2947   6.3611

          k = 0.4000-0.4619 0.0000 ( 89588 PWs)   bands (ev):

   -19.2507 -17.3430  -9.2817  -6.0925  -6.0731  -5.6397  -5.4357  -5.3492
    -4.8455  -4.8137  -4.6447  -4.3221  -4.2969  -4.1655  -4.1359  -4.0297
    -4.0207  -3.9205  -3.9033  -3.8352  -3.8084  -3.7859  -3.7564  -3.7434
    -3.7386  -3.7313  -3.6112  -3.5977  -3.5759  -3.5603  -3.5313  -3.4831
    -3.3979  -3.3498  -3.2898  -3.2311  -3.2076  -3.1820  -3.1534  -3.1366
    -3.0985  -3.0469  -2.9672  -2.9423  -2.8066  -2.7492  -2.7276  -2.6975
    -2.6308  -2.5939  -2.5572  -2.5115  -2.4276  -2.4085  -2.3836  -2.3544
    -2.3460  -2.2849  -2.2569  -2.2342  -2.1976  -2.1650  -2.1423  -2.1136
    -2.0996  -2.0867  -2.0716  -2.0204  -2.0124  -1.9780  -1.9090  -1.8611
    -1.8413  -1.7807  -1.7437  -1.7188  -1.6779  -1.6477  -1.6371  -1.6233
    -1.5696  -1.5580  -1.5491  -1.4806  -1.4466  -1.4011  -1.3846  -1.3595
    -1.3265  -1.2974  -1.2746  -1.2519  -1.2308  -1.1962  -1.1681  -1.0867
    -1.0494  -1.0424  -1.0258  -1.0007  -0.9851  -0.9564  -0.9404  -0.9198
    -0.9032  -0.8818  -0.8743  -0.8479  -0.8246  -0.8177  -0.7866  -0.7747
    -0.7628  -0.7434  -0.7223  -0.6953  -0.6470  -0.5333  -0.4656  -0.4230
    -0.4054  -0.3719  -0.3295  -0.3093  -0.2635  -0.2330  -0.2184  -0.1845
    -0.1538  -0.1475  -0.1127  -0.1007  -0.0544  -0.0252   0.0191   0.0887
     0.0990   0.1140   0.1741   0.2053   0.2742   0.2952   0.3557   0.3902
     0.4144   0.4377   0.4681   0.4992   0.5311   0.5389   0.5725   0.5983
     0.6221   0.6546   0.6892   0.7236   0.7575   0.7658   0.7988   0.8183
     0.8466   0.9318   0.9515   1.0418   1.0833   1.1121   1.1777   1.2101
     1.2241   1.2958   1.3368   1.3470   1.3789   1.4432   1.4919   1.5298
     1.5488   1.5678   1.5812   1.6001   1.6281   1.6647   1.6853   1.7142
     1.7273   1.7478   1.7702   1.7871   1.8270   1.8549   1.9321   1.9531
     1.9811   1.9930   2.0380   2.0510   2.1253   2.1630   2.2018   2.3494
     2.6050   3.1435   3.1517   3.4093   3.4759   3.5252   3.5654   3.6652
     3.8312   4.1442   4.1815   4.2252   4.6319   4.7391   4.7603   4.8103
     4.8528   4.9954   5.0860   5.2112   5.4616   5.5606   5.6705   5.9502
     6.2235   6.2947   6.3610

     the Fermi energy is     1.7781 ev

!    total energy              =  -27860.58651059 Ry

     total all-electron energy =  -1327022.809810 Ry
     estimated scf accuracy    <       0.00000073 Ry
     smearing contrib. (-TS)   =      -0.00056716 Ry
     internal energy E=F+TS    =  -27860.58594343 Ry

     The total energy is F=E-TS. E is the sum of the following terms:
     one-electron contribution =  -27812.75287213 Ry
     hartree contribution      =   14211.76031765 Ry
     xc contribution           =    -911.79496668 Ry
     ewald contribution        =   12153.00867458 Ry
     one-center paw contrib.   =  -25500.80709685 Ry

     convergence has been achieved in  19 iterations

     negative rho (up, down):  1.356E-02 0.000E+00

     Forces acting on atoms (cartesian axes, Ry/au):

     atom    1 type  1   force =    -0.00230929    0.00005399   -0.00593782
     atom    2 type  1   force =     0.00235749    0.00002589   -0.00594023
     atom    3 type  1   force =     0.00001669   -0.00036908   -0.00464781
     atom    4 type  1   force =     0.00000210    0.00134145   -0.00613992
     atom    5 type  1   force =    -0.00159692   -0.00012090   -0.00293768
     atom    6 type  1   force =     0.00166376   -0.00010323   -0.00292796
     atom    7 type  1   force =    -0.00038450    0.00094540   -0.00389622
     atom    8 type  1   force =     0.00004634    0.00201238   -0.00344312
     atom    9 type  1   force =     0.00040181    0.00093929   -0.00388150
     atom   10 type  1   force =     0.00002671    0.00282328    0.01562008
     atom   11 type  1   force =    -0.00426992    0.00114537    0.00211425
     atom   12 type  1   force =     0.00432259    0.00117846    0.00212858
     atom   13 type  1   force =     0.00069803   -0.00390122    0.00658623
     atom   14 type  1   force =     0.00006200    0.00056354    0.00648691
     atom   15 type  1   force =    -0.00068529   -0.00388138    0.00662338
     atom   16 type  1   force =     0.00255379   -0.00016649    0.00217284
     atom   17 type  1   force =    -0.00247677   -0.00019567    0.00217445
     atom   18 type  1   force =    -0.00001516   -0.00042823   -0.00114189
     atom   19 type  1   force =    -0.00007407   -0.00003119   -0.00019240
     atom   20 type  1   force =     0.00007207   -0.00005116   -0.00020022
     atom   21 type  1   force =     0.00008131    0.00002470    0.00016152
     atom   22 type  1   force =    -0.00003448    0.00001307    0.00007476
     atom   23 type  1   force =     0.00016627    0.00013375   -0.00006415
     atom   24 type  1   force =    -0.00007698    0.00010708   -0.00008757
     atom   25 type  1   force =     0.00013313    0.00001236    0.00012348
     atom   26 type  1   force =     0.00001882   -0.00007728   -0.00001891
     atom   27 type  1   force =    -0.00009085   -0.00005811    0.00009393
     atom   28 type  1   force =     0.00008683   -0.00012148   -0.00027197
     atom   29 type  1   force =    -0.00007058   -0.00014690   -0.00025130
     atom   30 type  1   force =     0.00004426    0.00002682   -0.00025318
     atom   31 type  1   force =    -0.00000606   -0.00009227    0.00002439
     atom   32 type  1   force =    -0.00012753    0.00001028   -0.00011353
     atom   33 type  1   force =     0.00013960   -0.00002388   -0.00006408
     atom   34 type  1   force =     0.00005142    0.00007698   -0.00031149
     atom   35 type  1   force =     0.00001758    0.00008201   -0.00053746
     atom   36 type  1   force =    -0.00001364    0.00003827   -0.00032315
     atom   37 type  2   force =     0.00076665    0.00066941    0.00137907
     atom   38 type  3   force =     0.00278172   -0.00215077    0.00224071
     atom   39 type  2   force =     0.00052991   -0.00098388    0.00069958
     atom   40 type  4   force =    -0.00037387    0.00007947   -0.00032088
     atom   41 type  4   force =    -0.00443496    0.00059986   -0.00479971

     Total force =     0.008153     Total SCF correction =     0.000886
     SCF correction compared to forces is large: reduce conv_thr to get better values

     negative rho (up, down):  1.356E-02 0.000E+00

     negative rho (up, down):  1.356E-02 0.000E+00

     negative rho (up, down):  1.356E-02 0.000E+00

     negative rho (up, down):  1.356E-02 0.000E+00

     negative rho (up, down):  1.356E-02 0.000E+00

     negative rho (up, down):  1.356E-02 0.000E+00

     negative rho (up, down):  1.356E-02 0.000E+00

     negative rho (up, down):  1.356E-02 0.000E+00

     negative rho (up, down):  1.356E-02 0.000E+00

     negative rho (up, down):  1.356E-02 0.000E+00

     negative rho (up, down):  1.356E-02 0.000E+00

     negative rho (up, down):  1.356E-02 0.000E+00

     negative rho (up, down):  1.356E-02 0.000E+00

     negative rho (up, down):  1.356E-02 0.000E+00

     negative rho (up, down):  1.356E-02 0.000E+00

     negative rho (up, down):  1.356E-02 0.000E+00

     negative rho (up, down):  1.356E-02 0.000E+00

     negative rho (up, down):  1.356E-02 0.000E+00

     negative rho (up, down):  1.356E-02 0.000E+00

     negative rho (up, down):  1.356E-02 0.000E+00

     negative rho (up, down):  1.356E-02 0.000E+00

     negative rho (up, down):  1.356E-02 0.000E+00

     negative rho (up, down):  1.356E-02 0.000E+00

     negative rho (up, down):  1.356E-02 0.000E+00

     negative rho (up, down):  1.356E-02 0.000E+00

     negative rho (up, down):  1.356E-02 0.000E+00

     negative rho (up, down):  1.356E-02 0.000E+00

     negative rho (up, down):  1.356E-02 0.000E+00

     negative rho (up, down):  1.356E-02 0.000E+00

     negative rho (up, down):  1.356E-02 0.000E+00

     negative rho (up, down):  1.356E-02 0.000E+00

     negative rho (up, down):  1.356E-02 0.000E+00

     negative rho (up, down):  1.356E-02 0.000E+00

     negative rho (up, down):  1.356E-02 0.000E+00
 BEEFens 2000 ensemble energies
             -0.610543847440578E+02
             -0.363215692624948E+01
             -0.159262223144904E+02
              0.431899999662180E+02
             -0.222368198025316E+02
             -0.206447708367565E+02
             -0.354901297989015E+02
             -0.870569448771274E+02
             -0.467837815872856E+02
             -0.475339342525735E+02
             -0.371393327327075E+02
              0.230024460344537E+01
              0.409932021745692E+01
              0.762089643387097E+01
              0.268096941055487E+01
              0.477766701728887E+02
             -0.210159141884994E+02
             -0.231436932430260E+02
              0.194105367543764E+02
             -0.113068946671553E+03
              0.539707298855641E+02
             -0.291108124342244E+02
             -0.336796939846555E+01
             -0.114690917817399E+02
             -0.886336762029305E+01
             -0.470381106256258E+01
              0.888174910080822E+02
             -0.188053242709252E+02
             -0.908165146286944E+01
             -0.521771152443084E+02
              0.820246356038685E+02
             -0.188153235880299E+02
             -0.377404382008569E+02
              0.250759363058291E+02
             -0.285283795753088E+01
              0.165256240122023E+02
             -0.486561511814341E+01
              0.108453671713838E+02
              0.289958699271849E+02
             -0.103913785010454E+03
              0.561644647499508E+02
              0.143199838187573E+02
             -0.174967959758857E+01
             -0.363719797409245E+02
              0.123844646148587E+02
             -0.147517803516839E+02
              0.401111103504892E+02
              0.367077892092489E+02
             -0.309640781415260E+02
             -0.276940656480987E+02
             -0.330055347215452E+02
             -0.354281067123881E+02
              0.137113211956235E+02
             -0.494113077566640E+02
              0.116406971052011E+02
              0.626926015905688E+02
              0.639468255232198E+02
              0.357803270225292E+02
              0.155341162276181E+02
              0.272239853687927E+02
              0.896783819923660E+02
              0.213994155369943E+02
             -0.551899368745219E+02
             -0.157927892609001E+02
             -0.237449742902937E+02
              0.633710840469374E+02
             -0.778228967276977E+02
             -0.675324986732586E+02
             -0.260948749105317E+02
             -0.653427740087398E+01
             -0.473808223109866E+02
              0.272329662290611E+02
              0.807205213464397E+01
              0.876063607452704E+01
             -0.399379464014334E+02
             -0.348964878324626E+02
             -0.545271144981598E+02
              0.392510122358954E+02
             -0.297771727535542E+02
              0.266748218220196E+02
             -0.718426481194680E+01
             -0.319866111630797E+02
             -0.579744089152311E+02
             -0.177649948298227E+02
             -0.913625115338778E+01
             -0.125804516137483E+02
              0.414584723059519E+02
              0.686958030892746E+02
             -0.388265395008659E+02
             -0.799649083248558E+02
             -0.220873724452284E+02
              0.112183420028373E+03
             -0.595639574105506E+02
              0.358049254802123E+02
             -0.964852620881504E+01
             -0.667163396944646E+02
              0.256161713338008E+02
              0.400402916929082E+02
             -0.199642607210324E+02
              0.402217261679203E+02
             -0.297638506491578E+02
             -0.481401532988281E+02
              0.871349143665832E+02
              0.456796807999291E+02
              0.338171694710417E+02
              0.147342809810119E+02
              0.206904566461296E+02
              0.861630568555122E+02
             -0.258323312451801E+02
              0.790048075029603E+01
             -0.143265299341483E+03
              0.182418720799195E+02
             -0.720382775097947E+02
              0.151692219071930E+02
              0.205893210227597E+02
             -0.335019820193079E+02
             -0.560351549524765E+02
              0.656371950025039E+01
             -0.305864416037630E+02
              0.310242536871891E+02
             -0.532767445644595E+02
              0.169752129219933E+01
             -0.359246401942771E+02
             -0.426980199167525E+01
             -0.103080645850918E+01
              0.182152691709210E+02
              0.141487197384720E+01
             -0.656248876371956E+01
              0.594044269188142E+02
              0.913713654724484E+02
              0.486996848167715E+02
              0.834989094171434E+02
             -0.115928688650792E+02
              0.143730842363660E+02
              0.544360294327734E+02
             -0.111103486320305E+02
             -0.740203444268996E+02
             -0.386295930347109E+02
             -0.524604806061491E+02
             -0.278409376222281E+02
              0.328840826215266E+02
             -0.117506767715173E+03
             -0.187948101063100E+02
              0.416723318326925E+02
             -0.388661800450227E+02
             -0.367139973138931E+02
              0.547429506295022E+02
              0.403535702927218E+02
             -0.355740283881274E+02
              0.138963441542666E+02
             -0.274593771087376E+02
              0.345333452101879E+02
              0.451233040076659E+01
              0.212219786647714E+02
             -0.889855555486412E+02
             -0.483183455679607E+02
             -0.100050315830049E+02
              0.324426670702761E+01
             -0.369259925609392E+02
              0.106665189106201E+03
             -0.232030849153828E+02
             -0.400482894413333E+02
              0.391354992661418E+02
             -0.497195870855126E+02
             -0.365433091829476E+02
              0.326756269656411E+02
              0.125175878929533E+02
              0.165365896741575E+02
              0.117244787007845E+02
             -0.133518876987040E+02
              0.226156206363361E+02
              0.593911466510000E+02
             -0.313509378367191E+02
              0.163748825744491E+02
              0.939850871202415E+02
              0.342549352263401E+02
             -0.733925162333821E+01
             -0.189605168693848E+02
              0.154280611431576E+03
             -0.165246519292238E+02
              0.365356559950854E+02
              0.195934798603701E+02
              0.363697274820140E+02
              0.897649317631987E+02
              0.545907984397207E+02
             -0.244443871414306E+01
              0.229069170374621E+02
              0.487710189944285E+02
              0.365801653119096E+02
             -0.529054827438064E+02
              0.941579818741767E+02
             -0.830644067396190E+02
             -0.199017553709132E+02
              0.586361929718480E+02
              0.680906648528605E+01
              0.793611861776265E+01
              0.342897848649222E+02
              0.300345683712466E+02
              0.355760238341674E+02
             -0.641478532818850E+02
              0.289922726443399E+01
             -0.299100657421103E+02
             -0.876308436654227E+01
             -0.146185611780413E+01
             -0.727181886786444E+01
             -0.417753287360313E+01
              0.864378024992081E+02
             -0.101590786458011E+02
             -0.278047850101671E+02
             -0.497979992188271E+01
              0.140765021637633E+02
             -0.567617052016591E+02
             -0.409926364122472E+02
             -0.384303311399719E+02
             -0.633847450763786E+02
             -0.170742714390570E+02
             -0.450025736562684E+02
              0.164569786002820E+02
             -0.239451495632018E+01
             -0.105171266239098E+02
             -0.939691392947088E+01
              0.811461218209126E+01
             -0.244063114641370E+02
              0.693193870713666E+02
             -0.812183023595067E+02
             -0.141903585378363E+02
             -0.175077140352190E+02
              0.182970892792979E+02
              0.215418446899716E+02
             -0.466692662047074E+02
             -0.202902755778799E+02
              0.443522050313516E+02
             -0.277501955018819E+02
              0.187742752844157E+02
              0.385038012762452E+02
             -0.322626097025147E+01
              0.114826479737323E+03
             -0.231240559075004E+02
             -0.343042973307461E+02
              0.581268640903562E+01
             -0.229611968295816E+02
              0.530950949686572E+02
             -0.339620544402039E+02
              0.107170257397397E+02
              0.644209665583094E+02
             -0.127181586429705E+02
              0.120929574420566E+03
              0.126632077074530E+03
             -0.653778798423925E+02
              0.593928863466468E+02
              0.167672538334494E+02
             -0.521011607228854E+02
              0.217448072716420E+02
              0.356067209558247E+02
              0.365217796271543E+02
              0.137329163253014E+01
              0.160458073822607E+02
              0.699966844353232E+02
             -0.248338146683658E+02
              0.182011784831362E+02
              0.743478199686830E+02
             -0.374880728772633E+02
             -0.130669510841884E+02
              0.511737406697360E+02
              0.299131708686134E+02
              0.785115072882724E+02
              0.224361920696205E+02
              0.630376778402399E+01
              0.282171722240676E+02
              0.385631975024216E+02
             -0.474477563574219E+02
              0.334593407136907E+01
              0.130740950324364E+02
              0.114265955620567E+02
              0.221821794043493E+02
             -0.578309674948545E+02
              0.368087880401195E+02
             -0.446497530688413E+02
             -0.349230804286870E+02
              0.178928902357712E+02
             -0.182272061827337E+02
              0.558314704959319E+02
             -0.257366815449866E+02
              0.268491328665381E+02
              0.370215937989310E+02
              0.833931143051643E+02
              0.577852652293134E+02
              0.464651722746669E+02
             -0.106265420617438E+02
             -0.394721746537442E+01
             -0.333902251034095E+02
              0.755262946809798E+02
              0.802042573642122E+02
              0.364157360066226E+02
             -0.193411060671645E+02
              0.514857856232073E+02
             -0.163326117634440E+02
              0.216106972192274E+02
              0.618379230006052E+02
              0.212711586341948E+01
             -0.105002242651370E+02
             -0.284437202177875E+02
             -0.514741827251188E+02
              0.950944764184297E+02
              0.442446997526056E+02
             -0.562577355458295E+02
             -0.972891417923299E+01
              0.251615265331768E+02
             -0.100405639430908E+02
              0.595909071256092E+02
              0.153109925812951E+02
              0.804064967607235E+02
              0.281173178463421E+02
             -0.265646400170880E+02
              0.250352108714160E+02
             -0.506485809307611E+01
             -0.325483798845625E+02
              0.134234109152183E+02
              0.206845376193739E+02
              0.938061363541837E+02
              0.802063608579382E+02
              0.554261308719298E+02
              0.734932165763162E+02
              0.803979857542959E+01
             -0.275152358968929E+02
              0.163955811938218E+02
             -0.370242736378338E+02
             -0.479348508679360E+02
             -0.567162664430199E+02
             -0.268472683463516E+02
             -0.110353844272683E+03
             -0.293319799761399E+02
             -0.842374750989304E+02
              0.211218171546210E+02
             -0.479840950680477E+02
              0.399549722704481E+02
             -0.947060652224220E+02
             -0.331789231576859E+02
              0.551474736378329E+02
              0.208959261060710E+02
             -0.835780970965472E+02
              0.634569023376871E+02
             -0.258388975140562E+02
              0.515778708308865E+02
             -0.244491827905346E+02
             -0.756035092012852E+02
              0.113118814261039E+02
             -0.615386577530002E+02
             -0.168884519094309E+02
             -0.148351394819020E+01
              0.420966476813083E+02
              0.127763717071785E+03
             -0.464437823382910E+02
             -0.364930441613129E+02
             -0.100150350074620E+01
             -0.131015761151468E+02
             -0.827428255852641E+02
             -0.600335670246864E+02
              0.520261677288508E+02
             -0.290466100626954E+02
              0.170271757705982E+02
             -0.492489341758217E+02
             -0.132852118874886E+02
             -0.439882507723153E+02
              0.568616052414748E+02
              0.152004297282808E+02
             -0.232950901178817E+02
             -0.127798840911209E+02
              0.673041063352768E+01
             -0.625625892426018E+01
              0.444266563049429E+02
             -0.253663018813543E+02
              0.279984229527668E+01
              0.341110091032245E+02
              0.172313122062219E+02
             -0.160879730760772E+02
              0.157205467029173E+03
              0.541240233738674E+02
              0.120376247006490E+01
              0.162336177749727E+02
             -0.618422454855035E+02
              0.316980644087698E+02
             -0.726303561640219E+02
             -0.253928056834108E+02
             -0.525916557418842E+02
             -0.221119275771039E+02
              0.572484625277260E+02
             -0.540391876563918E+02
              0.162141499586598E+02
             -0.408773248268824E+01
              0.390165204350393E+01
             -0.436102470137045E+02
             -0.480951888825183E+02
             -0.401169903417019E+01
             -0.427461899953872E+02
             -0.218669482731497E+02
             -0.440915337918807E+02
             -0.119853449210933E+02
             -0.361052889150263E+02
             -0.519605442167891E+02
              0.214256622145597E+02
             -0.210478207431933E+02
              0.189111398805163E+02
              0.980797688974582E+01
             -0.742481928181943E+02
             -0.551394752122839E+02
             -0.400727340130997E+02
              0.356512674659480E+02
              0.269806358648202E+01
             -0.630705985157680E+02
              0.589012336761513E+02
             -0.403571717811900E+02
              0.548051103124068E+02
             -0.291368305178114E+02
             -0.448994611516478E+02
              0.300260405495833E+02
             -0.661974257013662E+02
             -0.381966512791138E+02
              0.676576593975452E+02
              0.205029502007607E+02
             -0.362370625819522E+02
              0.492578287889319E+02
             -0.175067073278285E+02
             -0.324900917230435E+02
             -0.303714197371817E+02
             -0.503693881675273E+02
              0.250833882951804E+02
             -0.938321488255285E+02
             -0.845134614767955E+02
             -0.739106570465810E+01
             -0.308575638082319E+02
             -0.579167656059740E+02
              0.726384654097417E+02
              0.132341915556944E+03
             -0.362741329037660E+02
             -0.256595050168409E+01
             -0.640890828024446E+02
              0.654458347365480E+02
              0.172027612884974E+02
             -0.182829959338195E+02
             -0.412325781488797E+02
              0.149642978105723E+02
             -0.589900020509367E+02
             -0.198611334468396E+02
             -0.910278425748099E+02
              0.339140692831194E+02
              0.169904248472613E+02
              0.181766456333810E+01
             -0.709355507518637E+01
             -0.331868824307649E+02
             -0.763209891892063E+01
              0.126301527353746E+03
             -0.200098752782961E+02
             -0.440048094325267E+02
             -0.688066992325152E+02
              0.109927196974210E+02
             -0.344228650534761E+02
              0.595317854252981E+01
              0.263354555832415E+02
              0.102442137927450E+02
              0.279773228371129E+02
              0.120702757232529E+02
              0.633162691474005E+02
              0.318589037482873E+02
             -0.328530840893183E+02
              0.358229667756231E+02
              0.381753035715605E+02
              0.121732706698967E+02
              0.489501776761516E+02
             -0.226263509375187E+02
              0.770305430727414E+02
              0.173715623422368E+02
             -0.274127673650699E+02
             -0.726428650792157E+01
             -0.187329855613036E+02
              0.263122157602464E+02
             -0.236210105783766E+02
             -0.155192054775512E+00
             -0.857095193435714E+01
              0.814639423783364E+02
              0.503444270320257E+02
             -0.691512632212946E+02
             -0.479781566032457E+01
             -0.558856111942794E+02
             -0.160518589796943E+02
             -0.269704156848157E+02
              0.380826507958011E+01
              0.560719791522263E+00
             -0.259169709031763E+02
              0.822357170838123E+01
             -0.607768515193597E+01
             -0.129283714400092E+02
              0.864321953021407E+02
              0.182885387727571E+02
             -0.811651763419830E+02
             -0.460766418884493E+02
              0.950529416325792E+02
              0.279341373861231E+02
             -0.107384109919215E+02
              0.105212214132567E+03
             -0.196194893452431E+02
             -0.123605608731410E+02
             -0.543201109975394E+01
              0.108324520774732E+02
              0.274052612366428E+02
              0.783494062876096E+01
              0.307201134728069E+02
             -0.188832748908179E+02
             -0.305701061969656E+02
             -0.420062621958016E+02
             -0.479893591806261E+02
              0.466497782952547E+02
              0.127785131383957E+02
              0.389910750109524E+02
              0.134315187393043E+02
              0.860970569392391E+02
              0.157635331171390E+02
             -0.850730750708061E+02
             -0.336486410620757E+02
              0.134377293890000E+02
             -0.304671138467649E+02
              0.630375030956827E+02
             -0.896173242834766E+01
              0.149924516327665E+02
              0.500501771596851E+02
             -0.711949081750557E+02
              0.150658893884715E+03
              0.209897711834632E+02
              0.272868768667918E+02
              0.349789776339747E+02
              0.104308366685680E+02
             -0.158659925572692E+01
              0.360699464509868E+02
             -0.359171626011871E+02
              0.778113253050578E+02
              0.689122989411103E+02
             -0.408399622041328E+02
              0.150601559542421E+02
              0.674574316920738E+02
             -0.225382966649811E+02
              0.155300210366615E+02
              0.437578520196457E+02
              0.424933020039573E+02
             -0.789478217505041E+02
             -0.153323912343350E+02
             -0.358264423716447E+02
             -0.151381292566663E+01
             -0.769862513207776E+01
             -0.546005494013161E+01
             -0.181729185852899E+02
             -0.295535363524837E+02
              0.640086036551830E+01
              0.112263917693301E+02
              0.538938078498041E+02
             -0.392826867040666E+02
              0.376772172276385E+02
              0.441307311130941E+02
             -0.187734825317095E+02
              0.877319809849942E+02
             -0.702033797778229E+02
             -0.103808082728107E+03
             -0.662274374808301E+01
             -0.272784500011721E+01
              0.386813077776242E+01
              0.794081492242611E+02
             -0.107476670716216E+02
              0.419224346414599E+02
              0.446855089207714E+02
              0.387633572994159E+02
             -0.998702671079764E+01
              0.631524578967201E+02
             -0.134586193314948E+02
             -0.309600658093244E+02
             -0.482155374993765E+02
              0.593670182171212E+01
              0.372124779739038E+02
             -0.604661528832594E+01
              0.395397674537294E+02
             -0.174581940456176E+01
              0.659071686331915E+02
              0.188673020715037E+02
              0.100295470090965E+02
             -0.121986326071753E+02
              0.334170055174295E+02
              0.365067406695917E+02
              0.233911805537017E+02
             -0.532755116619825E+00
             -0.553884177594311E+02
              0.262459217340774E+02
              0.176377716265981E+02
              0.405012427709300E+02
              0.274132657302673E+02
              0.374713073726335E+02
             -0.611099356669015E+01
              0.252752438111300E+02
             -0.300160995068341E+02
             -0.198537526683708E+01
             -0.572588021833718E+02
             -0.310066293518350E+02
              0.381374463216888E+02
             -0.941148901829825E+02
              0.296159830485070E+02
              0.184921582055249E+02
              0.845147575507032E+02
             -0.302082670124610E+02
              0.331289423884629E+02
             -0.138426276308975E+02
             -0.466920695296147E+02
             -0.766128269241660E+02
             -0.531162699557007E+01
             -0.865355921798095E+02
              0.200617594026304E+02
             -0.248797529922219E+02
              0.307702200634628E+02
              0.238033924200970E+02
             -0.242670458957124E+02
             -0.266999313578708E+02
              0.393582804140665E+02
             -0.591650360899296E+02
             -0.117260162394386E+02
             -0.197198486184821E+02
              0.214187295756357E+02
             -0.893435537472118E+01
              0.363927632660091E+01
             -0.201823462079004E+02
              0.562044841220415E+02
             -0.442426774064343E+02
              0.792874197417859E+01
              0.588849220369617E+02
             -0.325466908769009E+02
              0.361335012246354E+01
             -0.883502658508996E+01
             -0.673665215263155E+02
             -0.485407392274277E+02
             -0.865130449825657E+01
              0.242363153265563E+02
              0.304204400461109E+02
              0.862925323131191E+01
             -0.419443889322577E+01
              0.153093673470815E+02
             -0.442705232312827E+02
              0.332180126848732E+01
             -0.534357634563623E+02
             -0.326372977714527E+02
              0.477688953581832E+02
             -0.296953629455076E+02
              0.626423196970341E+02
             -0.215923259084242E+02
              0.356038469468064E+02
              0.243225485891206E+02
             -0.647887038387291E+02
             -0.282255822327343E+02
              0.937283942909229E+01
             -0.373934842699327E+02
             -0.342119678383069E+02
             -0.835121530565023E+02
             -0.542806097682609E+02
             -0.513586013424917E+02
             -0.418341751792629E+02
             -0.978871022039641E+00
              0.100645918195519E+02
              0.105670431292916E+01
              0.154515204232792E+02
             -0.552831070979906E+02
              0.142578057423577E+02
              0.257970980298446E+02
             -0.671092917047418E+02
             -0.705868437730394E+02
             -0.433594482282498E+02
             -0.173433991766836E+02
              0.179641066934927E+02
              0.454061430895138E+01
             -0.428961169033523E+02
              0.368319351670924E+02
             -0.217507548715673E+02
              0.520679671071007E+02
             -0.892570220018029E+02
              0.601282628814476E+02
             -0.215129976271959E+01
             -0.370932569994660E+02
             -0.218131891235092E+02
              0.472458611316800E+01
              0.377526180514153E+02
             -0.760759803672610E+02
             -0.121577909716011E+02
             -0.217739185508419E+02
              0.513880263749646E+02
              0.869775374486549E+02
             -0.971107319010683E+02
              0.949849153533636E+02
              0.470600195767701E+02
             -0.730158494048542E+02
             -0.368706720345933E+02
              0.756697966038594E+02
              0.635656059754356E+02
             -0.182252043568135E+02
             -0.468998851048707E+01
              0.741056133452609E+01
              0.653590377192162E+02
             -0.511922858590905E+02
              0.159310770144269E+02
             -0.476107121298482E+01
              0.349726386232556E+02
             -0.751360688818874E+02
             -0.650725377368622E+01
             -0.353097512293083E+02
              0.463687380612537E+02
              0.471450280644424E+02
             -0.867031088418221E+02
             -0.489972466657282E+02
             -0.257653826149929E+02
             -0.341795031740921E+02
             -0.110120409452539E+02
             -0.244392633765798E+02
              0.430119984387112E+02
              0.403926947131346E+02
             -0.568318841850896E+01
             -0.418838968226176E+02
             -0.855492045671517E+02
              0.446047802254162E+02
             -0.526362935678695E+02
             -0.315193256913668E+02
              0.550817306345138E+01
             -0.324563236594599E+02
             -0.400371028021913E+02
             -0.241883703773408E+02
             -0.388184595891682E+02
[...]
              0.284972074168654E+02
              0.142632970125961E+03
              0.244110535958854E+02
              0.123604840540738E+02
             -0.467448599675797E+02
             -0.641443825504422E+02
             -0.189819277579591E+02
              0.331345688472204E+02
             -0.430902495553971E+01
              0.191008479370012E+02
              0.338048431053800E+02
             -0.590440995176621E+02
              0.223986594387670E+02
              0.584963959167228E+02
              0.556592274302791E+02
             -0.424626490854803E+01
             -0.135967934823202E+01
             -0.999094351613383E+01
             -0.485204033414736E+02
             -0.679256756412655E+02
              0.790355524860038E+02
             -0.528952591447614E+01
             -0.591297617038259E+02
              0.172782485993505E+01
             -0.206837217746345E+02
              0.943775938086315E+02
             -0.217650267819405E+02
             -0.355694932349568E+02
              0.337110878412783E+02
             -0.146604188153433E+02
              0.392297497236905E+02
             -0.240661252283746E+01
              0.101676503061750E+03
              0.492590129265103E+02
             -0.510708779832271E+01
             -0.324092599216461E+02
              0.233933375748603E+02
             -0.531738674205094E+02
             -0.128379279546865E+02
              0.589370378413292E+02
             -0.289225173735922E+02
             -0.441024234600593E+02
             -0.224486327104096E+02
              0.521777549332326E+02
              0.125703823822099E+02
             -0.853998799058854E+02
              0.305937193781647E+02
              0.152759853056045E+02
              0.581870023924458E+01
             -0.516300760454807E+02
             -0.374634308594284E+01
              0.325145024219131E+02
              0.515932897289805E+02
              0.636150895993227E+02
              0.230681365738804E+02
              0.807602505361359E+00
             -0.501033888434511E+02
             -0.512626231757970E+02
             -0.752253039779141E+02
             -0.619195045523691E+01
              0.310832388823600E+02
             -0.381516311768942E+01
              0.549893127000363E+02
             -0.319878085123696E+02
              0.167521504996615E+02
             -0.103485073019472E+02
             -0.291121408684453E+02
              0.589073769299962E+02
              0.796074362125847E+01
              0.607739086421645E+02
              0.513009639254744E+01
              0.266407212983533E+02
             -0.193628145254980E+02
              0.589796810576783E+02
             -0.112095743044896E+02
             -0.145507330879017E+00
             -0.794736489688328E+02
             -0.128948491806884E+02
              0.723357017732035E+02
              0.677295253631603E+02
              0.253103752584710E+02
             -0.131326958683190E+02
              0.343669612608753E+01
             -0.174564083245838E+02
             -0.211213984602452E+01
              0.912953254402948E+02
              0.125818753165481E+01
             -0.191865905013028E+02
             -0.111407509998349E+03
             -0.555794340800785E+02
             -0.377143333579839E+02
             -0.662595188953100E+02
             -0.558874796292732E+02
             -0.686909473678566E+02
             -0.449682243780844E+02
             -0.412793366875353E+02
             -0.454684117397351E+02
              0.486208212600214E+02
             -0.295599026430290E+02
             -0.100145368662552E+03
              0.421443525623837E+02
             -0.261683413850640E+02
             -0.795566654765438E+02
              0.949797225619600E+02
             -0.221094315550221E+02
              0.229193345485817E+02
              0.457693440412243E+02
             -0.132407129046953E+01
              0.255682484307507E+02
              0.472398370648952E+01
              0.421818753794327E+00
             -0.151229598062698E+02
             -0.719874340601700E+02
              0.133991924889297E+02
             -0.130133622288982E+03
              0.627908144308267E+02
             -0.443023273975983E+02
             -0.163845454037197E+02
             -0.159160960086173E+02
              0.721907024722581E+01
             -0.228796221501115E+02
              0.299041028457496E+02
             -0.523849363135121E+02
              0.369464068838292E+02
              0.373125185846987E+02
              0.169353731156356E+02
              0.100963423927905E+02
              0.199078451274032E+02
              0.625946019049559E+01
              0.312253680873445E+02
             -0.804186843408084E+01
             -0.595960530693172E+02
              0.763399978422052E+01
             -0.154176729084068E+02
             -0.195232438091557E+01
              0.509118529209825E+02
             -0.831654445590078E+02
             -0.151043767823143E+01
              0.574674359713129E+00
              0.100059348843554E+02
              0.320325115133155E+02
             -0.124296720291294E+02
              0.840692843520005E+02
              0.490553150584158E+02
             -0.184386769287636E+02
             -0.964368938119395E+01
              0.108822819630291E+01
              0.774279755546130E+02
             -0.589393889413583E+02
             -0.106381460808854E+03
              0.310895231844830E+02
             -0.163519710623801E+02
             -0.140271804896763E+02
              0.131508773600948E+02
              0.773179524345051E+02
              0.466823374583037E+02
             -0.154404531833561E+02
             -0.505968804285105E+02
             -0.554046211043577E+01
              0.308121053805929E+02
             -0.112456512992928E+02
             -0.760041651671324E+02
             -0.273077309028386E+01
             -0.895318698861197E+02
             -0.478486344302008E+02
              0.773057673990376E+02
             -0.486427733168590E+02
             -0.640500810067317E+02
             -0.517426921005272E+02
             -0.351833284857038E+02
              0.342831186103313E+02
              0.826524176791888E+02
             -0.358248274847392E+01
              0.278112857549076E+02
             -0.184825481243583E+02
             -0.697867059408555E+02
              0.467885694838064E+02
             -0.447684305486201E+02
              0.323559669170850E+02
              0.378284548510683E+02
             -0.662684788261816E+01
              0.393108955883138E+02
              0.440932384714238E+02
              0.101298904693935E+03
             -0.156895297331230E+02
             -0.458712414997852E+02
             -0.616520324587035E+02
             -0.124789604517337E+02
             -0.234783943973570E+02
              0.103593044852953E+03
             -0.451534443735235E+02
              0.105823570689077E+02
              0.975820364556176E+01
             -0.265922051588862E+02
             -0.803490059550186E+02
             -0.703148050313621E+01
              0.985597871335228E+02
              0.947491347934196E+01
              0.814911153413533E+01
             -0.529993843066257E+02
             -0.608627843870438E+02
             -0.570256251233894E+01
              0.502988991527608E+02
             -0.223374491043335E+02
              0.108577902943064E+03
             -0.437985873579057E+02
              0.147416339594421E+02
             -0.225280399192247E+02
             -0.722141672581190E+02
              0.170865595898931E+01
             -0.504730292717975E+02
             -0.764931803825617E+02
              0.620231284855367E+01
              0.237165004519849E+01
              0.517039803437436E+02
              0.188646434895862E+02
             -0.325427877395059E+02
              0.231510585956977E+02
             -0.815682326572160E+02
             -0.524670126434958E+02
              0.907127981057956E+02
              0.143017717277661E+02
             -0.188713844273927E+02
             -0.354209016932783E+02
             -0.270261831684377E+01
             -0.591514261784437E+01
              0.835068127817150E+02
              0.420008287063867E+02
             -0.166867607400751E+02
             -0.122367944953741E+02
             -0.430106342754484E+02
             -0.201837430981661E+02
             -0.673805128921236E+02
              0.462446818531088E+02
              0.549531455431148E+01
              0.145494507496336E+02
              0.156929259583678E+02
             -0.607492680225619E+00
             -0.169574173084260E+02
             -0.309571773674852E+01
             -0.101046163525363E+03
             -0.230684420127099E+02
             -0.768106501077995E+01
             -0.952364927499011E+01
              0.549596663000289E+02
              0.627378493191880E+02
              0.165747319261106E+02
             -0.976103815403185E+02
              0.651245276970901E+02
             -0.216386058830649E+02
             -0.379174412666350E+02
             -0.869306322582157E+02
             -0.388932285449301E+02
              0.567746509767327E+02
              0.245873050813750E+02
              0.521158437240069E+01
              0.294209811436904E+02
             -0.568187728054134E+02
             -0.424992311647657E+02
              0.518557503042151E+02
              0.389590519852194E+02
              0.521805659444312E+02
             -0.124175612726674E+01
              0.689140798307898E+01
              0.572625102090236E+02
              0.968502510963671E+02
             -0.301587487685594E+02
              0.324952056665936E+02
             -0.119482410486556E+02
             -0.414737953087803E+02
             -0.316149775422527E+02
             -0.301890058197855E+02
             -0.132075863012322E+02
             -0.526279454599586E+02
             -0.218540524867050E+02
             -0.141946995988548E+03
              0.370784469693711E+02
              0.208215027532786E+02
             -0.395212546659742E+01
             -0.382252372750024E+02
             -0.205481719201995E+02
             -0.529850085519413E+02
              0.151785922886303E+02
              0.824698167363157E+02
             -0.253404259258297E+02
             -0.163931473343383E+02
              0.239113574996863E+02
             -0.492118787576982E+02
              0.885658883344835E+02
              0.155407836222844E+02
              0.227154387774208E+02
              0.493262004176361E+02
              0.321045253012920E+01
              0.545422950920728E+02
              0.143951498584684E+02
             -0.106871722856923E+02
              0.737538466709296E+01
              0.774019525417884E+00
              0.731404215792373E+02
              0.101559330410824E+02
              0.121421638420902E+02
             -0.130592994729814E+02
              0.133070809650655E+02
             -0.916641506992718E+02
             -0.328016994339963E+02
             -0.460101871063264E+02
              0.488356728168843E+02
             -0.292988280232472E+02
             -0.662124212697317E+02
              0.541753997246022E+02
             -0.122937121176880E+02
              0.442463464199039E+02
             -0.904122500296509E+02
              0.233280080965334E+02
              0.861863075879970E+01
              0.583745311636039E+01
             -0.838136356414464E+01
             -0.907418870931701E+01
              0.482398101569976E+02
              0.202622612071167E+01
             -0.477757376893919E+02
             -0.177164006721894E+02
              0.278176882466815E+02
             -0.118601983182587E+03
             -0.935010395335277E+02
              0.398329881119929E+01
              0.118364353419978E+02
             -0.415641035443701E+02
             -0.390387522610251E+01
              0.112734602213230E+03
              0.308548330704629E+02
             -0.574669989262990E+02
              0.930790758856688E+01
             -0.970648136653548E+01
              0.106239801708105E+02
             -0.339420466464744E+02
              0.196499684428150E+02
              0.286023259789055E+02
             -0.303984251483001E+01
              0.108809158719636E+03
             -0.140810176489752E+02
             -0.317966634585214E+02
              0.144446254123668E+02
              0.469193211444547E+02
             -0.357945071277236E+02
             -0.318327733755471E+01
              0.970321051183691E+02
             -0.468078672082720E+01
              0.624789414585582E+02
              0.136324786230300E+02
             -0.907982719562874E+01
             -0.306482446669064E+02
              0.569701772441226E+02
             -0.517643152075002E+02
             -0.223324274442660E+01
             -0.171129157609341E+02
             -0.407625333362405E+02
              0.185560396873691E+02
              0.240401245983058E+02
              0.116337939067079E+02
              0.717055505896496E+00
             -0.386634127001240E+02
              0.216539094876108E+02
             -0.676384114899469E+01
             -0.247964072768890E+02
             -0.211884997118545E+02
              0.204663552405966E+02
             -0.598429507305673E+01
             -0.351321256214417E+02
             -0.107239271297585E+03
              0.103224691624665E+02
              0.250075699666572E+02
             -0.389815359952728E+02
             -0.212165453659333E+02
              0.811654778285308E+02
              0.655792183262673E+01
              0.312999886101559E+02
              0.394081177527090E+01
              0.324040139784088E+02
              0.649076428450030E+01
             -0.375267263019738E+02
             -0.234658340771207E+01
              0.879520292654280E+01
              0.275574953296860E+02
              0.786587660358325E+02
              0.510320766200717E+02
              0.192822435800338E+00
              0.169731797784947E+02
              0.616603162929854E+02
              0.237381898648520E+02
             -0.757145904139471E+02
             -0.275412831472818E+02
              0.151912277806458E+02
              0.566768901110061E+01
              0.256478453050443E+02
             -0.550954828864348E+02
              0.903645677966082E+01
              0.388108789133732E+02
              0.500920809747053E+02
             -0.437440475415366E+02
             -0.691634368646083E+01
             -0.209647293913389E+01
             -0.134972415208754E+02
             -0.367385265390357E+02
             -0.216166192518394E+02
             -0.204073491163705E+01
              0.798224187755505E+01
              0.423772790556952E+02
             -0.310122152622164E+02
              0.830776032557789E+02
              0.329483514578575E+02
              0.221102857076964E+02
              0.334942627636463E+02
              0.324973631349544E+02
              0.347874070523483E+02
              0.540395632481560E+02
             -0.436584971242231E+02
              0.623130837811841E+02
             -0.112910535804882E+03
              0.309338088450949E+02
             -0.107151194327244E+03
              0.859478184261561E+02
              0.695043830591535E+02
             -0.110414510400512E+02
             -0.496193224638002E+02
             -0.431882089215956E+02
             -0.626897480804548E+02
             -0.632347803256796E+02
              0.554865155464922E+02
              0.407941715348254E+02
              0.238237025753382E+02
              0.375752710245656E+02
              0.405416729382350E+02
             -0.384400680186488E+02
             -0.198856342779486E+02
              0.589554648015918E+02
             -0.116611373381579E+02
              0.554605930825542E+02
              0.703593991346762E+02
             -0.555200626128690E+01
             -0.710448542232784E+02
             -0.905637782654821E+00
             -0.246250952891916E+01
             -0.888809878106247E+01
             -0.177732364581141E+01
             -0.656790879298327E+02
             -0.211751508791831E+02
              0.544399573020495E+01
              0.903929184558160E+01
              0.471647065528941E+02
             -0.400122115684194E+02
              0.661065249794827E+02
             -0.427627869739844E+02
              0.211718451391249E+02
              0.352717495989292E+02
 
 BEEF-vdW xc energy contributions
           1 :   -787.380006058500     
           2 :    723.290511941910     
           3 :   -612.320293148825     
           4 :    481.663548511789     
           5 :   -358.933520927393     
           6 :    264.029075310486     
           7 :   -204.661396064889     
           8 :    176.347478753087     
           9 :   -166.422059572984     
          10 :    160.188347686545     
          11 :   -146.713831796064     
          12 :    122.094003308358     
          13 :   -89.3345529326664     
          14 :    55.4611163044317     
          15 :   -27.5242661504209     
          16 :    9.31827441307757     
          17 :  -8.545144356185119E-002
          18 :   -4.54385061083713     
          19 :    10.0763795939758     
          20 :   -20.4428229170760     
          21 :    36.2960841558138     
          22 :   -54.9973681312156     
          23 :    72.1276823855419     
          24 :   -83.6958945485926     
          25 :    87.9606087137895     
          26 :   -86.0634814185611     
          27 :    81.2750109311485     
          28 :   -77.3098209162655     
          29 :    76.5630505082895     
          30 :   -79.1051028694153     
          31 :   -86.2698543686485     
          32 :   -66.0838566083228     

     Writing output data file ./pwscf.save/
 
     init_run     :    382.01s CPU    387.02s WALL (       1 calls)
     electrons    :  15087.19s CPU  15246.56s WALL (       1 calls)
     forces       :    105.92s CPU    107.26s WALL (       1 calls)

     Called by init_run:
     wfcinit      :    332.52s CPU    336.41s WALL (       1 calls)
     potinit      :     45.92s CPU     46.27s WALL (       1 calls)
     hinit0       :      1.46s CPU      1.50s WALL (       1 calls)

     Called by electrons:
     c_bands      :  12336.41s CPU  12461.15s WALL (      20 calls)
     sum_band     :   1873.45s CPU   1890.35s WALL (      20 calls)
     v_of_rho     :    139.01s CPU    143.41s WALL (      20 calls)
     newd         :     36.24s CPU     49.44s WALL (      20 calls)
     PAW_pot      :    136.97s CPU    137.00s WALL (      20 calls)
     mix_rho      :    611.87s CPU    612.95s WALL (      20 calls)
     vdW_kernel   :     33.52s CPU     33.52s WALL (       1 calls)

     Called by c_bands:
     init_us_2    :     89.87s CPU     90.36s WALL (     546 calls)
     cegterg      :  11517.30s CPU  11637.83s WALL (     260 calls)

     Called by *egterg:
     cdiaghg      :     94.43s CPU     94.51s WALL (    1256 calls)
     h_psi        :   7747.13s CPU   7790.89s WALL (    1282 calls)
     s_psi        :   1128.29s CPU   1129.12s WALL (    1282 calls)
     g_psi        :     17.44s CPU     17.47s WALL (    1009 calls)

     Called by h_psi:
     h_psi:calbec :   1035.12s CPU   1038.59s WALL (    1282 calls)
     vloc_psi     :   5553.63s CPU   5557.20s WALL (    1282 calls)
     add_vuspsi   :   1128.68s CPU   1130.85s WALL (    1282 calls)

     General routines
     calbec       :   1524.39s CPU   1529.03s WALL (    1594 calls)
     fft          :     52.95s CPU     53.00s WALL (    3220 calls)
     ffts         :    189.42s CPU    189.48s WALL (   11362 calls)
     fftw         :   5535.66s CPU   5537.36s WALL (  337396 calls)
 
     Parallel routines
 
     PWSCF        :      4h22m CPU      4h25m WALL

 
   This run was terminated on:  19:30:22  20May2022            

=------------------------------------------------------------------------------=
   JOB DONE.
=------------------------------------------------------------------------------=
