
     Program PWSCF v.6.7MaX starts on 26Sep2022 at 14:12: 8 

     This program is part of the open-source Quantum ESPRESSO suite
     for quantum simulation of materials; please cite
         "P. Giannozzi et al., J. Phys.:Condens. Matter 21 395502 (2009);
         "P. Giannozzi et al., J. Phys.:Condens. Matter 29 465901 (2017);
          URL http://www.quantum-espresso.org", 
     in publications or presentations arising from this work. More details at
     http://www.quantum-espresso.org/quote

     Parallel version (MPI), running on     1 processors

     MPI processes distributed on     1 nodes
     Reading input from h2coh-ensemble.in
Warning: card &CELL ignored
Warning: card / ignored

     Current dimensions of program PWSCF are:
     Max number of different atomic species (ntypx) = 10
     Max number of k-points (npk) =  40000
     Max angular momentum in pseudopotentials (lmaxx) =  3
     file Pt.pbe-n-kjpaw_psl.1.0.0.UPF: wavefunction(s)  6S 5D renormalized
     file C.pbe-n-kjpaw_psl.1.0.0.UPF: wavefunction(s)  2S 2P renormalized
     file H.pbe-kjpaw_psl.1.0.0.UPF: wavefunction(s)  1S renormalized
     file O.pbe-nl-kjpaw_psl.1.0.0.UPF: wavefunction(s)  2S 2P renormalized

     **************************************************************************
     Initializing libbeef V0.1.2 with the BEEF-vdW functional.
     Citation: Wellendorff et al., PRB 85, 235149 (2012).
     **************************************************************************


     IMPORTANT: XC functional enforced from input :
     Exchange-correlation= BEEF-VDW
                           (   1   4  43  14   2   0   0)
     Any further DFT definition will be discarded
     Please, verify this is what you really want


     Subspace diagonalization in iterative solution of the eigenvalue problem:
     a serial algorithm will be used

 
     G-vector sticks info
     --------------------
     sticks:   dense  smooth     PW     G-vecs:    dense   smooth      PW
     Sum        4267    4267   1159               709097   709097   99953
 


     bravais-lattice index     =            0
     lattice parameter (alat)  =      16.0349  a.u.
     unit-cell volume          =   11289.5664 (a.u.)^3
     number of atoms/cell      =           41
     number of atomic types    =            4
     number of electrons       =       373.00
     number of Kohn-Sham states=          224
     kinetic-energy cutoff     =      60.0000  Ry
     charge density cutoff     =     240.0000  Ry
     scf convergence threshold =      1.0E-06
     mixing beta               =       0.7000
     number of iterations used =            8  local-TF  mixing
     Exchange-correlation= BEEF-VDW
                           (   1   4  43  14   2   0   0)

     celldm(1)=  16.034858  celldm(2)=   0.000000  celldm(3)=   0.000000
     celldm(4)=   0.000000  celldm(5)=   0.000000  celldm(6)=   0.000000

     crystal axes: (cart. coord. in units of alat)
               a(1) = (   1.000000   0.000000   0.000000 )  
               a(2) = (   0.500000   0.866025   0.000000 )  
               a(3) = (   0.000000   0.000000   3.161923 )  

     reciprocal axes: (cart. coord. in units 2 pi/alat)
               b(1) = (  1.000000 -0.577350  0.000000 )  
               b(2) = (  0.000000  1.154701  0.000000 )  
               b(3) = (  0.000000  0.000000  0.316263 )  


     PseudoPot. # 1 for Pt read from file:
     /users/bkreitz1/quantum-espresso/potentials/Pt.pbe-n-kjpaw_psl.1.0.0.UPF
     MD5 check sum: 04dc8a03c51ece93fc7b5889c2958091
     Pseudo is Projector augmented-wave + core cor, Zval = 10.0
     Generated using 'atomic' code by A. Dal Corso  v.6.7MaX
     Shape of augmentation charge: PSQ
     Using radial grid of 1277 points,  6 beta functions with: 
                l(1) =   0
                l(2) =   0
                l(3) =   1
                l(4) =   1
                l(5) =   2
                l(6) =   2
     Q(r) pseudized with 0 coefficients 


     PseudoPot. # 2 for C  read from file:
     /users/bkreitz1/quantum-espresso/potentials/C.pbe-n-kjpaw_psl.1.0.0.UPF
     MD5 check sum: a169b0ebad56f5ec0d79c4633f80bf22
     Pseudo is Projector augmented-wave + core cor, Zval =  4.0
     Generated using 'atomic' code by A. Dal Corso  v.6.7MaX
     Shape of augmentation charge: PSQ
     Using radial grid of 1073 points,  4 beta functions with: 
                l(1) =   0
                l(2) =   0
                l(3) =   1
                l(4) =   1
     Q(r) pseudized with 0 coefficients 


     PseudoPot. # 3 for H  read from file:
     /users/bkreitz1/quantum-espresso/potentials/H.pbe-kjpaw_psl.1.0.0.UPF
     MD5 check sum: ae98473e6dc62675f0d0baffdab24f65
     Pseudo is Projector augmented-wave, Zval =  1.0
     Generated using 'atomic' code by A. Dal Corso  v.6.7MaX
     Shape of augmentation charge: PSQ
     Using radial grid of  929 points,  2 beta functions with: 
                l(1) =   0
                l(2) =   0
     Q(r) pseudized with 0 coefficients 


     PseudoPot. # 4 for O  read from file:
     /users/bkreitz1/quantum-espresso/potentials/O.pbe-nl-kjpaw_psl.1.0.0.UPF
     MD5 check sum: eef08af8b58d9ec80f8fdb78829eb7cf
     Pseudo is Projector augmented-wave + core cor, Zval =  6.0
     Generated using 'atomic' code by A. Dal Corso  v.6.7MaX
     Shape of augmentation charge: PSQ
     Using radial grid of 1095 points,  4 beta functions with: 
                l(1) =   0
                l(2) =   0
                l(3) =   1
                l(4) =   1
     Q(r) pseudized with 0 coefficients 


     atomic species   valence    mass     pseudopotential
        Pt            10.00   195.08400     Pt( 1.00)
        C              4.00    12.01100     C ( 1.00)
        H              1.00     1.00800     H ( 1.00)
        O              6.00    15.99900     O ( 1.00)

     No symmetry found



   Cartesian axes

     site n.     atom                  positions (alat units)
         1           Pt  tau(   1) = (   0.0000000   0.0000000   1.0017346  )
         2           Pt  tau(   2) = (   0.3333333   0.0000000   1.0017346  )
         3           Pt  tau(   3) = (   0.6666667   0.0000000   1.0017346  )
         4           Pt  tau(   4) = (   0.1666667   0.2886751   1.0017346  )
         5           Pt  tau(   5) = (   0.5000000   0.2886751   1.0017346  )
         6           Pt  tau(   6) = (   0.8333333   0.2886751   1.0017346  )
         7           Pt  tau(   7) = (   0.3333333   0.5773503   1.0017346  )
         8           Pt  tau(   8) = (   0.6666667   0.5773503   1.0017346  )
         9           Pt  tau(   9) = (   1.0000000   0.5773503   1.0017346  )
        10           Pt  tau(  10) = (   0.1666667   0.0962250   1.2739001  )
        11           Pt  tau(  11) = (   0.5000000   0.0962250   1.2739001  )
        12           Pt  tau(  12) = (   0.8333333   0.0962250   1.2739001  )
        13           Pt  tau(  13) = (   0.3333333   0.3849002   1.2739001  )
        14           Pt  tau(  14) = (   0.6666667   0.3849002   1.2739001  )
        15           Pt  tau(  15) = (   1.0000000   0.3849002   1.2739001  )
        16           Pt  tau(  16) = (   0.5000000   0.6735753   1.2739001  )
        17           Pt  tau(  17) = (   0.8333333   0.6735753   1.2739001  )
        18           Pt  tau(  18) = (   1.1666667   0.6735753   1.2739001  )
        19           Pt  tau(  19) = (   0.0000758   0.1925953   1.5416099  )
        20           Pt  tau(  20) = (   0.3349796   0.1934270   1.5462253  )
        21           Pt  tau(  21) = (   0.6650688   0.1933644   1.5462586  )
        22           Pt  tau(  22) = (   0.1667815   0.4808899   1.5422765  )
        23           Pt  tau(  23) = (   0.4999422   0.4785157   1.5465386  )
        24           Pt  tau(  24) = (   0.8330205   0.4809966   1.5425050  )
        25           Pt  tau(  25) = (   0.3333167   0.7697931   1.5412961  )
        26           Pt  tau(  26) = (   0.6666056   0.7695702   1.5414265  )
        27           Pt  tau(  27) = (   1.0000000   0.7699727   1.5424011  )
        28           Pt  tau(  28) = (  -0.0000903  -0.0000577   1.8154738  )
        29           Pt  tau(  29) = (   0.3329694  -0.0002545   1.8156221  )
        30           Pt  tau(  30) = (   0.6670436  -0.0003278   1.8159765  )
        31           Pt  tau(  31) = (   0.1660453   0.2887376   1.8163846  )
        32           Pt  tau(  32) = (   0.5005213   0.2882839   1.8423663  )
        33           Pt  tau(  33) = (   0.8341045   0.2885078   1.8162001  )
        34           Pt  tau(  34) = (   0.3323616   0.5781238   1.8154387  )
        35           Pt  tau(  35) = (   0.6668089   0.5778321   1.8157824  )
        36           Pt  tau(  36) = (   0.9999174   0.5774032   1.8162162  )
        37           C   tau(  37) = (   0.4998420   0.2809281   2.0902318  )
        38           H   tau(  38) = (   0.3928202   0.2150431   2.1181396  )
        39           H   tau(  39) = (   0.6070837   0.2191373   2.1235033  )
        40           H   tau(  40) = (   0.4029192   0.4808658   2.1436706  )
        41           O   tau(  41) = (   0.5043699   0.4298794   2.1592926  )

     number of k points=    13  Marzari-Vanderbilt smearing, width (Ry)=  0.0200
                       cart. coord. in units 2pi/alat
        k(    1) = (   0.0000000   0.0000000   0.0000000), wk =   0.0800000
        k(    2) = (   0.0000000   0.2309401   0.0000000), wk =   0.1600000
        k(    3) = (   0.0000000   0.4618802   0.0000000), wk =   0.1600000
        k(    4) = (   0.2000000  -0.1154701   0.0000000), wk =   0.1600000
        k(    5) = (   0.2000000   0.1154701   0.0000000), wk =   0.1600000
        k(    6) = (   0.2000000   0.3464102   0.0000000), wk =   0.1600000
        k(    7) = (   0.2000000  -0.5773503   0.0000000), wk =   0.1600000
        k(    8) = (   0.2000000  -0.3464102   0.0000000), wk =   0.1600000
        k(    9) = (   0.4000000  -0.2309401   0.0000000), wk =   0.1600000
        k(   10) = (   0.4000000  -0.0000000   0.0000000), wk =   0.1600000
        k(   11) = (   0.4000000   0.2309401   0.0000000), wk =   0.1600000
        k(   12) = (   0.4000000  -0.6928203   0.0000000), wk =   0.1600000
        k(   13) = (   0.4000000  -0.4618802   0.0000000), wk =   0.1600000

     Dense  grid:   709097 G-vectors     FFT dimensions: (  80,  80, 256)

     Estimated max dynamical RAM per process >       8.58 GB

     Check: negative core charge=   -0.000001

     Initial potential from superposition of free atoms

     starting charge  372.99382, renormalised to  373.00000

     negative rho (up, down):  1.175E-02 0.000E+00


     %%%%%%%%%%%%%%%%%%%%%%%%%%%%%%%%%%%%%%%%%%%%%%%%%%%%%%%%%%%%%%%%%%%%%%%%
     %                                                                      %
     % You are using vdW-DF, which was implemented by the Thonhauser group. %
     % Please cite the following two papers that made this development      %
     % possible and the two reviews that describe the various versions:     %
     %                                                                      %
     %   T. Thonhauser et al., PRL 115, 136402 (2015).                      %
     %   T. Thonhauser et al., PRB 76, 125112 (2007).                       %
     %   K. Berland et al., Rep. Prog. Phys. 78, 066501 (2015).             %
     %   D.C. Langreth et al., J. Phys.: Condens. Matter 21, 084203 (2009). %
     %                                                                      %
     %                                                                      %
     % If you are calculating the stress with vdW-DF, please also cite:     %
     %                                                                      %
     %   R. Sabatini et al., J. Phys.: Condens. Matter 24, 424209 (2012).   %
     %                                                                      %
     %%%%%%%%%%%%%%%%%%%%%%%%%%%%%%%%%%%%%%%%%%%%%%%%%%%%%%%%%%%%%%%%%%%%%%%%


     Starting wfcs are  335 randomized atomic wfcs
     Checking if some PAW data can be deallocated... 

     total cpu time spent up to now is      371.1 secs

     Self-consistent Calculation

     iteration #  1     ecut=    60.00 Ry     beta= 0.70
     Davidson diagonalization with overlap
     ethr =  1.00E-02,  avg # of iterations =  2.5

     Threshold (ethr) on eigenvalues was too large:
     Diagonalizing with lowered threshold

     Davidson diagonalization with overlap
     ethr =  6.21E-04,  avg # of iterations =  3.7

     negative rho (up, down):  1.262E-02 0.000E+00

     total cpu time spent up to now is     1842.9 secs

     total energy              =  -27819.16215483 Ry
     estimated scf accuracy    <       2.53119849 Ry

     iteration #  2     ecut=    60.00 Ry     beta= 0.70
     Davidson diagonalization with overlap
     ethr =  6.79E-04,  avg # of iterations =  2.5

     negative rho (up, down):  1.105E-02 0.000E+00

     total cpu time spent up to now is     2502.5 secs

     total energy              =  -27819.30766254 Ry
     estimated scf accuracy    <       1.01744812 Ry

     iteration #  3     ecut=    60.00 Ry     beta= 0.70
     Davidson diagonalization with overlap
     ethr =  2.73E-04,  avg # of iterations =  4.5

     negative rho (up, down):  8.278E-03 0.000E+00

     total cpu time spent up to now is     3194.2 secs

     total energy              =  -27819.36916878 Ry
     estimated scf accuracy    <       0.27205238 Ry

     iteration #  4     ecut=    60.00 Ry     beta= 0.70
     Davidson diagonalization with overlap
     c_bands:  1 eigenvalues not converged
     c_bands:  1 eigenvalues not converged
     c_bands:  1 eigenvalues not converged
     ethr =  7.29E-05,  avg # of iterations = 11.8

     negative rho (up, down):  6.956E-03 0.000E+00

     total cpu time spent up to now is     4120.0 secs

     total energy              =  -27819.42167065 Ry
     estimated scf accuracy    <       0.17512172 Ry

     iteration #  5     ecut=    60.00 Ry     beta= 0.70
     Davidson diagonalization with overlap
     ethr =  4.69E-05,  avg # of iterations =  1.8

     negative rho (up, down):  5.194E-03 0.000E+00

     total cpu time spent up to now is     4761.5 secs

     total energy              =  -27819.42553608 Ry
     estimated scf accuracy    <       0.03600224 Ry

     iteration #  6     ecut=    60.00 Ry     beta= 0.70
     Davidson diagonalization with overlap
     ethr =  9.65E-06,  avg # of iterations =  9.7

     negative rho (up, down):  4.785E-03 0.000E+00

     total cpu time spent up to now is     5632.5 secs

     total energy              =  -27819.43191647 Ry
     estimated scf accuracy    <       0.00590687 Ry

     iteration #  7     ecut=    60.00 Ry     beta= 0.70
     Davidson diagonalization with overlap
     c_bands:  1 eigenvalues not converged
     ethr =  1.58E-06,  avg # of iterations =  9.8

     negative rho (up, down):  4.886E-03 0.000E+00

     total cpu time spent up to now is     6568.0 secs

     total energy              =  -27819.43318173 Ry
     estimated scf accuracy    <       0.00369921 Ry

     iteration #  8     ecut=    60.00 Ry     beta= 0.70
     Davidson diagonalization with overlap
     ethr =  9.92E-07,  avg # of iterations =  3.5

     negative rho (up, down):  5.413E-03 0.000E+00

     total cpu time spent up to now is     7220.4 secs

     total energy              =  -27819.43347467 Ry
     estimated scf accuracy    <       0.00217129 Ry

     iteration #  9     ecut=    60.00 Ry     beta= 0.70
     Davidson diagonalization with overlap
     ethr =  5.82E-07,  avg # of iterations =  6.9

     negative rho (up, down):  6.265E-03 0.000E+00

     total cpu time spent up to now is     7908.2 secs

     total energy              =  -27819.43358097 Ry
     estimated scf accuracy    <       0.00063200 Ry

     iteration # 10     ecut=    60.00 Ry     beta= 0.70
     Davidson diagonalization with overlap
     ethr =  1.69E-07,  avg # of iterations =  4.1

     negative rho (up, down):  7.107E-03 0.000E+00

     total cpu time spent up to now is     8604.6 secs

     total energy              =  -27819.43364050 Ry
     estimated scf accuracy    <       0.00026074 Ry

     iteration # 11     ecut=    60.00 Ry     beta= 0.70
     Davidson diagonalization with overlap
     ethr =  6.99E-08,  avg # of iterations =  3.8

     negative rho (up, down):  7.917E-03 0.000E+00

     total cpu time spent up to now is     9295.8 secs

     total energy              =  -27819.43366511 Ry
     estimated scf accuracy    <       0.00021125 Ry

     iteration # 12     ecut=    60.00 Ry     beta= 0.70
     Davidson diagonalization with overlap
     ethr =  5.66E-08,  avg # of iterations =  1.2

     negative rho (up, down):  9.022E-03 0.000E+00

     total cpu time spent up to now is     9887.3 secs

     total energy              =  -27819.43366926 Ry
     estimated scf accuracy    <       0.00012386 Ry

     iteration # 13     ecut=    60.00 Ry     beta= 0.70
     Davidson diagonalization with overlap
     ethr =  3.32E-08,  avg # of iterations =  2.0

     negative rho (up, down):  1.157E-02 0.000E+00

     total cpu time spent up to now is    10539.2 secs

     total energy              =  -27819.43365615 Ry
     estimated scf accuracy    <       0.00007495 Ry

     iteration # 14     ecut=    60.00 Ry     beta= 0.70
     Davidson diagonalization with overlap
     ethr =  2.01E-08,  avg # of iterations =  2.0

     negative rho (up, down):  1.149E-02 0.000E+00

     total cpu time spent up to now is    11210.7 secs

     total energy              =  -27819.43366101 Ry
     estimated scf accuracy    <       0.00004669 Ry

     iteration # 15     ecut=    60.00 Ry     beta= 0.70
     Davidson diagonalization with overlap
     ethr =  1.25E-08,  avg # of iterations =  1.1

     negative rho (up, down):  1.232E-02 0.000E+00

     total cpu time spent up to now is    11808.0 secs

     total energy              =  -27819.43365881 Ry
     estimated scf accuracy    <       0.00001549 Ry

     iteration # 16     ecut=    60.00 Ry     beta= 0.70
     Davidson diagonalization with overlap
     ethr =  4.15E-09,  avg # of iterations =  4.3

     negative rho (up, down):  1.245E-02 0.000E+00

     total cpu time spent up to now is    12619.4 secs

     total energy              =  -27819.43366263 Ry
     estimated scf accuracy    <       0.00000691 Ry

     iteration # 17     ecut=    60.00 Ry     beta= 0.70
     Davidson diagonalization with overlap
     ethr =  1.85E-09,  avg # of iterations =  2.2

     negative rho (up, down):  1.259E-02 0.000E+00

     total cpu time spent up to now is    13327.4 secs

     total energy              =  -27819.43366334 Ry
     estimated scf accuracy    <       0.00000161 Ry

     iteration # 18     ecut=    60.00 Ry     beta= 0.70
     Davidson diagonalization with overlap
     ethr =  4.32E-10,  avg # of iterations =  4.2

     negative rho (up, down):  1.276E-02 0.000E+00

     total cpu time spent up to now is    14236.4 secs

     End of self-consistent calculation

          k = 0.0000 0.0000 0.0000 ( 88721 PWs)   bands (ev):

   -19.8226 -10.3997  -6.9156  -6.4902  -5.6111  -4.6059  -4.5255  -4.5034
    -4.5008  -4.5000  -4.4853  -4.4782  -4.4640  -4.4562  -4.0046  -3.9410
    -3.9398  -3.9375  -3.9230  -3.9219  -3.7264  -3.4750  -3.4728  -3.4643
    -3.4566  -3.4529  -3.4066  -3.2540  -3.2496  -3.2481  -3.2433  -3.2409
    -3.1504  -3.0231  -3.0211  -3.0181  -3.0129  -3.0118  -3.0059  -3.0034
    -3.0010  -2.9718  -2.9712  -2.9540  -2.9527  -2.4081  -2.4044  -2.3856
    -2.3701  -2.3680  -2.3350  -2.3160  -2.3149  -2.3082  -2.3011  -2.1767
    -2.1682  -2.1144  -2.0880  -1.9494  -1.6579  -1.5870  -1.5793  -1.5683
    -1.5626  -1.5367  -1.5063  -1.4127  -1.4079  -1.4047  -1.3985  -1.3780
    -1.3761  -1.3693  -1.3566  -1.3511  -1.3336  -1.3302  -1.3262  -1.2993
    -1.2962  -1.2866  -1.2012  -1.1737  -1.1718  -1.1611  -1.1563  -1.1093
    -1.0065  -1.0032  -1.0030  -0.9698  -0.9553  -0.9548  -0.9139  -0.9110
    -0.8570  -0.8488  -0.7988  -0.7981  -0.7410  -0.7407  -0.7024  -0.7007
    -0.6705  -0.6427  -0.6186  -0.5619  -0.5386  -0.5333  -0.5276  -0.5094
    -0.4439  -0.0909  -0.0854  -0.0843  -0.0540  -0.0421  -0.0405  -0.0347
     0.0204   0.0236   0.0267   0.0543   0.0838   0.1019   0.1219   0.2040
     0.2505   0.2605   0.2619   0.3204   0.3306   0.3758   0.4078   0.4389
     0.4395   0.4468   0.4475   0.4924   0.6680   0.6813   0.6887   0.6936
     0.6973   0.7185   0.7609   0.7657   0.9417   0.9472   0.9502   0.9571
     0.9627   1.0291   1.1113   1.1128   1.1220   1.1280   1.1299   1.1497
     1.1544   1.1600   1.1643   1.1660   1.1688   1.2487   1.2753   1.2804
     1.2882   1.2985   1.3004   1.3171   1.3407   1.3893   1.3909   1.4008
     1.4011   1.4221   1.4307   1.4384   1.4385   1.5095   1.5109   1.5308
     1.5356   1.5362   1.5539   1.5541   1.6294   1.6365   1.6372   1.6595
     1.6599   1.6788   1.8412   1.8423   1.9363   1.9371   1.9711   1.9743
     1.9747   1.9861   2.3623   2.7728   2.8159   2.8333   2.8549   2.8713
     2.8802   4.1460   5.0600   5.1297   5.1480   5.1810   5.1943   5.9102
     6.2872   6.7247   6.7420   6.7592   6.7760   6.7797   6.7894   6.7915

          k = 0.0000 0.2309 0.0000 ( 88564 PWs)   bands (ev):

   -19.8226 -10.3997  -6.7720  -6.4855  -5.4690  -5.0025  -4.6145  -4.6007
    -4.5709  -4.3961  -4.3496  -4.2972  -4.2522  -4.2477  -4.0811  -4.0218
    -3.9309  -3.8706  -3.8683  -3.8518  -3.6784  -3.5622  -3.4382  -3.4330
    -3.4176  -3.3987  -3.3473  -3.3291  -3.2862  -3.2692  -3.2498  -3.2365
    -3.1935  -3.1585  -3.1335  -3.0492  -3.0433  -3.0081  -2.9965  -2.9763
    -2.8220  -2.8123  -2.8062  -2.7847  -2.7622  -2.5296  -2.5225  -2.5008
    -2.4481  -2.4342  -2.4112  -2.3948  -2.2402  -2.2226  -2.1609  -2.1473
    -2.1216  -2.0989  -2.0766  -1.9871  -1.8550  -1.7696  -1.7586  -1.7113
    -1.6769  -1.6570  -1.6136  -1.5829  -1.5613  -1.5486  -1.5361  -1.5234
    -1.4753  -1.4233  -1.4002  -1.3857  -1.3732  -1.3010  -1.2969  -1.2849
    -1.2223  -1.2126  -1.1976  -1.1675  -1.1132  -1.1058  -1.1012  -1.0984
    -1.0373  -1.0068  -0.9978  -0.9934  -0.9698  -0.9278  -0.9128  -0.8841
    -0.8565  -0.8342  -0.8255  -0.8158  -0.7779  -0.7700  -0.7458  -0.7257
    -0.6995  -0.6257  -0.5791  -0.5598  -0.5547  -0.5376  -0.5204  -0.5152
    -0.4828  -0.4772  -0.4441  -0.4341  -0.4035  -0.3394  -0.2173  -0.1218
    -0.0770  -0.0614  -0.0367  -0.0156   0.0026   0.0082   0.0197   0.1514
     0.1708   0.2026   0.2349   0.3069   0.3184   0.3579   0.3730   0.4261
     0.4298   0.4570   0.4860   0.5059   0.5461   0.5706   0.5805   0.5967
     0.6013   0.7596   0.7760   0.8040   0.8131   0.8360   0.8573   0.8820
     0.9333   0.9530   0.9745   0.9866   1.0119   1.0593   1.0684   1.0776
     1.0989   1.1808   1.1832   1.2113   1.2679   1.3028   1.3265   1.3448
     1.3694   1.3767   1.4107   1.4169   1.4651   1.4984   1.5056   1.5548
     1.5662   1.5706   1.6105   1.6163   1.6189   1.6255   1.6282   1.6822
     1.6937   1.8260   1.8280   1.8654   1.8816   1.8845   1.8970   1.9282
     1.9605   1.9622   1.9795   2.0719   2.0814   2.1048   2.1667   2.2529
     2.2660   2.2832   2.3007   2.6062   2.7147   3.1402   3.4340   3.4549
     3.5666   4.0993   4.5915   4.8490   5.2203   5.5928   5.5970   5.7059
     5.8840   6.0723   6.3727   6.5463   6.5853   6.7516   6.9631   6.9655

          k = 0.0000 0.4619 0.0000 ( 88590 PWs)   bands (ev):

   -19.8226 -10.3997  -6.5098  -6.3242  -5.7012  -5.0692  -4.6456  -4.6341
    -4.5779  -4.5075  -4.2731  -4.1139  -4.0183  -3.9755  -3.9188  -3.9085
    -3.8547  -3.7470  -3.7102  -3.6891  -3.6764  -3.6148  -3.5512  -3.5222
    -3.5121  -3.4683  -3.4472  -3.4279  -3.3830  -3.3363  -3.3297  -3.3017
    -3.0731  -3.0691  -3.0636  -3.0550  -3.0385  -3.0224  -2.8251  -2.8079
    -2.7842  -2.7827  -2.7554  -2.7395  -2.5900  -2.4937  -2.4772  -2.4691
    -2.4619  -2.4149  -2.3981  -2.3472  -2.3354  -2.3230  -2.2732  -2.2541
    -2.1459  -2.1226  -2.0948  -2.0802  -2.0278  -1.9675  -1.9279  -1.9056
    -1.8858  -1.8412  -1.7465  -1.6849  -1.6688  -1.6605  -1.6388  -1.5864
    -1.5607  -1.5347  -1.5012  -1.4326  -1.4116  -1.4080  -1.3359  -1.2934
    -1.2924  -1.2778  -1.2713  -1.2258  -1.1993  -1.1877  -1.1717  -1.1694
    -1.1554  -1.1343  -1.1267  -1.1046  -1.0344  -1.0200  -1.0157  -0.9913
    -0.9632  -0.9461  -0.9246  -0.8386  -0.8218  -0.7811  -0.7570  -0.7346
    -0.7225  -0.7019  -0.6721  -0.6615  -0.5535  -0.5512  -0.5334  -0.4830
    -0.4444  -0.4247  -0.2978  -0.2913  -0.2651  -0.2039  -0.1644  -0.1321
    -0.1251  -0.1077  -0.0764  -0.0700  -0.0680  -0.0137   0.0103   0.0169
     0.0286   0.0539   0.0795   0.1001   0.1129   0.1385   0.1700   0.2557
     0.2681   0.3120   0.3608   0.3870   0.4489   0.4613   0.4669   0.5726
     0.5848   0.6640   0.7151   0.7488   0.7790   0.7817   0.8031   0.8424
     0.8518   0.9024   0.9105   0.9512   0.9829   1.0020   1.0677   1.0879
     1.1128   1.1202   1.1423   1.1648   1.2707   1.3178   1.3412   1.3852
     1.4097   1.4143   1.4256   1.5008   1.5243   1.5334   1.6091   1.6167
     1.6249   1.6763   1.6960   1.7132   1.7343   1.8102   1.8312   1.8593
     1.8718   1.8851   1.8895   1.9036   1.9105   2.0838   2.0890   2.1087
     2.1312   2.1332   2.3000   2.3436   2.5783   2.7202   2.7938   2.9239
     3.1625   3.1729   3.4810   3.5572   3.5798   3.9018   3.9918   4.3782
     4.3862   4.4133   4.5251   4.6490   4.7041   4.7466   5.0233   5.0383
     5.2654   5.6307   5.7681   6.2020   6.2729   6.5015   6.6857   6.8397

          k = 0.2000-0.1155 0.0000 ( 88564 PWs)   bands (ev):

   -19.8226 -10.3997  -6.7722  -6.4854  -5.4692  -5.0029  -4.6111  -4.6003
    -4.5773  -4.3943  -4.3487  -4.2952  -4.2553  -4.2469  -4.0835  -4.0226
    -3.9254  -3.8710  -3.8656  -3.8525  -3.6836  -3.5574  -3.4372  -3.4350
    -3.4186  -3.3985  -3.3450  -3.3291  -3.2837  -3.2700  -3.2508  -3.2393
    -3.1987  -3.1565  -3.1337  -3.0516  -3.0425  -3.0111  -2.9945  -2.9745
    -2.8224  -2.8117  -2.8048  -2.7836  -2.7612  -2.5314  -2.5205  -2.5006
    -2.4466  -2.4356  -2.4121  -2.3935  -2.2409  -2.2189  -2.1549  -2.1487
    -2.1286  -2.0998  -2.0792  -1.9862  -1.8452  -1.7680  -1.7649  -1.7043
    -1.6884  -1.6576  -1.6054  -1.5769  -1.5696  -1.5496  -1.5355  -1.5306
    -1.4754  -1.4343  -1.4015  -1.3843  -1.3708  -1.3006  -1.2880  -1.2859
    -1.2238  -1.2163  -1.2064  -1.1566  -1.1138  -1.1058  -1.0989  -1.0930
    -1.0240  -1.0091  -0.9992  -0.9936  -0.9738  -0.9368  -0.9171  -0.8820
    -0.8568  -0.8266  -0.8181  -0.8140  -0.7775  -0.7572  -0.7441  -0.7258
    -0.6988  -0.6243  -0.5743  -0.5616  -0.5536  -0.5429  -0.5297  -0.5177
    -0.4824  -0.4626  -0.4469  -0.4411  -0.3904  -0.3529  -0.2382  -0.1264
    -0.0832  -0.0590  -0.0383  -0.0081   0.0007   0.0064   0.0201   0.1272
     0.1709   0.2136   0.2370   0.3006   0.3165   0.3586   0.3740   0.4141
     0.4263   0.4566   0.4801   0.5373   0.5451   0.5727   0.5792   0.5995
     0.6099   0.7599   0.7724   0.8020   0.8235   0.8353   0.8561   0.8757
     0.9268   0.9544   0.9782   0.9856   1.0071   1.0584   1.0694   1.0780
     1.1000   1.1799   1.1809   1.2104   1.2784   1.3055   1.3264   1.3426
     1.3650   1.3773   1.4128   1.4161   1.4681   1.5004   1.5066   1.5547
     1.5666   1.5701   1.6107   1.6168   1.6196   1.6257   1.6298   1.6820
     1.6934   1.8243   1.8267   1.8662   1.8813   1.8824   1.8972   1.9289
     1.9592   1.9625   1.9798   2.0675   2.0812   2.1041   2.1832   2.2528
     2.2669   2.2840   2.2965   2.5964   2.7142   3.1459   3.4384   3.4616
     3.5572   4.1028   4.6032   4.8526   5.1976   5.5943   5.5968   5.7041
     5.8677   6.1107   6.3680   6.5506   6.5900   6.7889   6.8716   6.9638

          k = 0.2000 0.1155 0.0000 ( 88564 PWs)   bands (ev):

   -19.8226 -10.3996  -6.7725  -6.4856  -5.4691  -5.0027  -4.6112  -4.6014
    -4.5751  -4.3947  -4.3490  -4.2956  -4.2563  -4.2463  -4.0881  -4.0244
    -3.9142  -3.8702  -3.8659  -3.8523  -3.6941  -3.5509  -3.4371  -3.4362
    -3.4170  -3.3876  -3.3458  -3.3295  -3.2839  -3.2711  -3.2510  -3.2470
    -3.1971  -3.1571  -3.1333  -3.0497  -3.0418  -3.0166  -2.9949  -2.9794
    -2.8227  -2.8108  -2.8046  -2.7847  -2.7610  -2.5289  -2.5221  -2.4819
    -2.4468  -2.4395  -2.4091  -2.3985  -2.2577  -2.2143  -2.1829  -2.1443
    -2.1168  -2.0891  -2.0772  -1.9805  -1.8548  -1.7730  -1.7593  -1.7049
    -1.6941  -1.6433  -1.6054  -1.5839  -1.5737  -1.5490  -1.5370  -1.5277
    -1.4751  -1.4203  -1.3934  -1.3852  -1.3722  -1.3009  -1.2938  -1.2869
    -1.2261  -1.2183  -1.1920  -1.1618  -1.1154  -1.1061  -1.0990  -1.0967
    -1.0298  -1.0100  -0.9997  -0.9940  -0.9723  -0.9391  -0.9126  -0.8800
    -0.8565  -0.8272  -0.8212  -0.8144  -0.7787  -0.7598  -0.7467  -0.7265
    -0.6992  -0.6216  -0.5773  -0.5623  -0.5537  -0.5419  -0.5229  -0.5154
    -0.4843  -0.4666  -0.4493  -0.4352  -0.3974  -0.3641  -0.2226  -0.1274
    -0.0842  -0.0560  -0.0375  -0.0097   0.0000   0.0109   0.0218   0.1415
     0.1714   0.2002   0.2412   0.2999   0.3165   0.3583   0.3740   0.4165
     0.4285   0.4556   0.4762   0.5329   0.5454   0.5720   0.5799   0.5995
     0.6078   0.7638   0.7745   0.8028   0.8221   0.8341   0.8559   0.8735
     0.9277   0.9522   0.9810   0.9873   1.0005   1.0580   1.0689   1.0789
     1.0998   1.1792   1.1843   1.2112   1.2781   1.3062   1.3246   1.3434
     1.3638   1.3770   1.4130   1.4169   1.4675   1.5006   1.5068   1.5539
     1.5672   1.5705   1.6099   1.6169   1.6194   1.6259   1.6282   1.6821
     1.6938   1.8246   1.8265   1.8657   1.8811   1.8827   1.8970   1.9284
     1.9590   1.9627   1.9798   2.0682   2.0815   2.1044   2.1754   2.2581
     2.2665   2.2829   2.3107   2.5856   2.7101   3.1587   3.4268   3.4539
     3.5689   4.1242   4.5721   4.8391   5.2271   5.5934   5.5969   5.6854
     5.8921   6.1389   6.3345   6.5459   6.5890   6.8243   6.9632   6.9676

          k = 0.2000 0.3464 0.0000 ( 88650 PWs)   bands (ev):

   -19.8226 -10.3996  -6.5396  -6.4319  -5.2586  -5.2411  -5.1957  -4.5759
    -4.2094  -4.1743  -4.1706  -4.1587  -4.1203  -4.1124  -4.0941  -4.0822
    -3.9853  -3.9769  -3.7483  -3.6068  -3.5954  -3.5851  -3.5512  -3.5083
    -3.4735  -3.3578  -3.3405  -3.3371  -3.3196  -3.3025  -3.2279  -3.1961
    -3.1735  -3.1633  -3.1565  -3.1005  -3.0687  -3.0554  -3.0219  -2.9821
    -2.9228  -2.6790  -2.5885  -2.5846  -2.5654  -2.5441  -2.5350  -2.5216
    -2.5016  -2.4591  -2.4337  -2.2996  -2.2947  -2.2894  -2.2003  -2.1711
    -2.1279  -2.1155  -2.1001  -2.0521  -2.0178  -1.9890  -1.8678  -1.8301
    -1.8026  -1.7464  -1.7294  -1.7099  -1.7059  -1.6714  -1.6441  -1.6238
    -1.4867  -1.4665  -1.4587  -1.4495  -1.4057  -1.3748  -1.3644  -1.3327
    -1.3156  -1.2950  -1.2194  -1.1815  -1.1559  -1.1430  -1.1346  -1.1290
    -1.1108  -1.0852  -1.0653  -1.0522  -0.9963  -0.9688  -0.9597  -0.9017
    -0.8887  -0.8614  -0.8338  -0.8056  -0.7793  -0.7742  -0.7490  -0.7426
    -0.7244  -0.7141  -0.6894  -0.6823  -0.6629  -0.6308  -0.6063  -0.5971
    -0.5146  -0.4790  -0.4600  -0.4079  -0.3929  -0.3691  -0.3340  -0.1994
    -0.1857  -0.0849  -0.0561  -0.0316  -0.0090   0.0054   0.0140   0.0493
     0.0644   0.0826   0.1031   0.1163   0.1720   0.2119   0.2986   0.3297
     0.3834   0.4133   0.4393   0.4527   0.4777   0.5175   0.5360   0.6123
     0.6357   0.6458   0.6921   0.7051   0.7620   0.8162   0.8426   0.8538
     0.8702   0.9170   0.9353   0.9465   0.9499   0.9629   0.9796   0.9872
     1.0077   1.0941   1.1594   1.1936   1.2379   1.3113   1.3260   1.4165
     1.4945   1.5037   1.5108   1.5463   1.6157   1.6327   1.6466   1.6604
     1.6813   1.7013   1.7111   1.7172   1.7321   1.7650   1.7861   1.7998
     1.8590   1.8943   1.8984   1.9341   1.9427   1.9845   2.0791   2.1397
     2.1765   2.2075   2.2361   2.2513   2.2603   2.3913   2.4024   2.7163
     2.9161   2.9352   3.2674   3.4587   3.4677   3.4973   3.7912   4.1383
     4.1719   4.3883   4.3950   4.4318   4.8930   5.1193   5.5811   5.5870
     5.8190   5.8332   6.1509   6.2949   6.3638   6.3976   6.4238   6.4949

          k = 0.2000-0.5774 0.0000 ( 88532 PWs)   bands (ev):

   -19.8226 -10.3997  -6.5007  -5.9506  -5.9237  -5.3322  -4.7238  -4.7030
    -4.5616  -4.2061  -4.1712  -4.0330  -4.0023  -3.9099  -3.8882  -3.8163
    -3.7733  -3.7528  -3.6750  -3.6567  -3.6474  -3.6268  -3.6029  -3.5881
    -3.5653  -3.4605  -3.4491  -3.4268  -3.4008  -3.3499  -3.3195  -3.2281
    -3.1923  -3.1338  -3.0497  -3.0398  -3.0319  -3.0180  -2.9755  -2.9099
    -2.8957  -2.8091  -2.7770  -2.6181  -2.6069  -2.5730  -2.4741  -2.4610
    -2.4187  -2.3945  -2.2939  -2.2562  -2.2172  -2.2058  -2.1877  -2.1528
    -2.1300  -2.1094  -2.0675  -1.9977  -1.9920  -1.9712  -1.9605  -1.9509
    -1.9438  -1.9036  -1.8788  -1.8459  -1.7582  -1.7263  -1.6925  -1.6737
    -1.5739  -1.5509  -1.5256  -1.5212  -1.4889  -1.4657  -1.4362  -1.4153
    -1.3365  -1.3344  -1.3158  -1.2859  -1.2759  -1.2364  -1.1910  -1.1489
    -1.1115  -1.0970  -1.0844  -1.0603  -0.9927  -0.9336  -0.9164  -0.8970
    -0.8898  -0.8653  -0.8470  -0.8362  -0.8039  -0.7953  -0.7840  -0.7543
    -0.7376  -0.7291  -0.7019  -0.6892  -0.6785  -0.6653  -0.6585  -0.6299
    -0.5935  -0.5739  -0.5363  -0.3708  -0.3427  -0.2668  -0.2594  -0.1919
    -0.1696  -0.1423  -0.1184  -0.0803  -0.0696  -0.0565  -0.0217  -0.0132
     0.0548   0.0719   0.0959   0.1312   0.1411   0.1967   0.2202   0.2639
     0.2720   0.4054   0.4199   0.4720   0.4971   0.5185   0.5447   0.5953
     0.6069   0.6319   0.6414   0.6507   0.6855   0.7086   0.7402   0.7936
     0.8084   0.8591   0.8884   0.8954   0.9044   0.9255   0.9386   1.0320
     1.0751   1.1613   1.1895   1.2481   1.2990   1.3393   1.3501   1.4197
     1.4681   1.4696   1.5100   1.5719   1.6278   1.6488   1.6700   1.6933
     1.6974   1.7151   1.7466   1.7681   1.8492   1.8547   1.8654   1.8856
     1.9062   1.9109   1.9217   1.9790   2.0900   2.0985   2.1210   2.1298
     2.1383   2.1939   2.2421   2.3153   2.4460   3.1079   3.2757   3.2802
     3.4367   3.5292   3.6552   3.6625   3.6780   3.9149   4.2771   4.2908
     4.4020   4.7281   4.7570   4.8764   4.8861   4.9284   5.0942   5.1803
     5.2081   5.3667   5.6690   5.7155   5.8428   6.2590   6.3716   6.3807

          k = 0.2000-0.3464 0.0000 ( 88650 PWs)   bands (ev):

   -19.8226 -10.3997  -6.5374  -6.4334  -5.2572  -5.2422  -5.1964  -4.5766
    -4.2074  -4.1750  -4.1706  -4.1586  -4.1210  -4.1108  -4.0943  -4.0819
    -3.9841  -3.9748  -3.7594  -3.6059  -3.5944  -3.5841  -3.5565  -3.5039
    -3.4695  -3.3576  -3.3409  -3.3369  -3.3233  -3.3079  -3.2296  -3.1946
    -3.1707  -3.1649  -3.1587  -3.1010  -3.0666  -3.0598  -3.0216  -2.9687
    -2.9209  -2.6758  -2.5923  -2.5804  -2.5624  -2.5404  -2.5349  -2.5222
    -2.5114  -2.4596  -2.4417  -2.3006  -2.2895  -2.2690  -2.2167  -2.1663
    -2.1320  -2.1169  -2.1063  -2.0664  -2.0180  -1.9545  -1.8652  -1.8215
    -1.8094  -1.7554  -1.7375  -1.7144  -1.7004  -1.6693  -1.6437  -1.6237
    -1.4906  -1.4798  -1.4640  -1.4477  -1.4076  -1.3822  -1.3587  -1.3331
    -1.3123  -1.2971  -1.2110  -1.1823  -1.1572  -1.1415  -1.1329  -1.1288
    -1.1109  -1.0792  -1.0629  -1.0440  -0.9959  -0.9772  -0.9574  -0.9019
    -0.8894  -0.8654  -0.8276  -0.8085  -0.7791  -0.7712  -0.7567  -0.7415
    -0.7243  -0.7110  -0.6898  -0.6866  -0.6532  -0.6304  -0.6109  -0.5921
    -0.5143  -0.4766  -0.4506  -0.4137  -0.3924  -0.3636  -0.3448  -0.1995
    -0.1881  -0.0937  -0.0564  -0.0328  -0.0068   0.0066   0.0133   0.0461
     0.0668   0.0817   0.1042   0.1175   0.1695   0.2097   0.2989   0.3247
     0.3823   0.4134   0.4426   0.4507   0.4790   0.5173   0.5366   0.6164
     0.6366   0.6444   0.6909   0.7072   0.7640   0.8179   0.8421   0.8552
     0.8673   0.9177   0.9355   0.9432   0.9486   0.9647   0.9794   0.9929
     1.0077   1.0925   1.1588   1.1969   1.2342   1.3124   1.3264   1.4130
     1.4938   1.5062   1.5086   1.5495   1.6179   1.6333   1.6470   1.6602
     1.6778   1.7017   1.7105   1.7168   1.7323   1.7638   1.7873   1.8004
     1.8597   1.8944   1.8982   1.9343   1.9430   1.9841   2.0797   2.1402
     2.1773   2.1977   2.2420   2.2561   2.2605   2.3923   2.4008   2.7084
     2.9182   2.9341   3.2732   3.4569   3.4737   3.5029   3.7802   4.1339
     4.1697   4.3714   4.3951   4.4421   4.9090   5.1256   5.5818   5.6149
     5.7568   5.8266   6.1825   6.2817   6.3367   6.4080   6.4273   6.5443

          k = 0.4000-0.2309 0.0000 ( 88590 PWs)   bands (ev):

   -19.8226 -10.3996  -6.5103  -6.3239  -5.7014  -5.0707  -4.6458  -4.6325
    -4.5903  -4.4987  -4.2696  -4.1114  -4.0206  -3.9732  -3.9238  -3.9077
    -3.8520  -3.7465  -3.7104  -3.6876  -3.6771  -3.6143  -3.5518  -3.5214
    -3.5093  -3.4691  -3.4528  -3.4254  -3.3833  -3.3356  -3.3316  -3.3062
    -3.0720  -3.0691  -3.0630  -3.0577  -3.0366  -3.0243  -2.8243  -2.8086
    -2.7836  -2.7795  -2.7565  -2.7374  -2.5887  -2.4900  -2.4778  -2.4672
    -2.4598  -2.4152  -2.4006  -2.3458  -2.3333  -2.3203  -2.2746  -2.2561
    -2.1521  -2.1177  -2.0964  -2.0736  -2.0386  -1.9684  -1.9295  -1.9015
    -1.8878  -1.8297  -1.7482  -1.6836  -1.6666  -1.6615  -1.6442  -1.5883
    -1.5613  -1.5470  -1.4757  -1.4329  -1.4206  -1.4094  -1.3291  -1.2990
    -1.2902  -1.2804  -1.2729  -1.2250  -1.1974  -1.1878  -1.1716  -1.1700
    -1.1549  -1.1351  -1.1312  -1.1069  -1.0296  -1.0178  -1.0165  -0.9913
    -0.9690  -0.9384  -0.9157  -0.8390  -0.8131  -0.7734  -0.7642  -0.7348
    -0.7267  -0.6969  -0.6816  -0.6702  -0.5524  -0.5340  -0.5330  -0.4895
    -0.4487  -0.4261  -0.2986  -0.2942  -0.2552  -0.2085  -0.2023  -0.1340
    -0.1201  -0.1061  -0.0785  -0.0698  -0.0541  -0.0226   0.0092   0.0157
     0.0316   0.0538   0.0702   0.0853   0.1108   0.1390   0.1723   0.2555
     0.2607   0.3032   0.3552   0.4043   0.4570   0.4609   0.4954   0.5716
     0.5998   0.6552   0.7220   0.7444   0.7753   0.7852   0.8010   0.8363
     0.8529   0.9022   0.9067   0.9513   0.9822   1.0006   1.0682   1.0879
     1.1100   1.1206   1.1421   1.1837   1.2511   1.3170   1.3384   1.3819
     1.4130   1.4156   1.4242   1.5027   1.5230   1.5346   1.6061   1.6169
     1.6252   1.6771   1.6941   1.7122   1.7353   1.8126   1.8305   1.8583
     1.8728   1.8891   1.8944   1.9033   1.9102   2.0841   2.0879   2.1084
     2.1308   2.1344   2.3002   2.3435   2.5696   2.7213   2.8013   2.9378
     3.1603   3.1730   3.4921   3.5569   3.5796   3.8999   3.9922   4.3789
     4.3865   4.4108   4.5583   4.6467   4.6862   4.7507   5.0194   5.0373
     5.2610   5.6513   5.7928   6.1978   6.2748   6.4990   6.6639   6.8433

          k = 0.4000-0.0000 0.0000 ( 88650 PWs)   bands (ev):

   -19.8226 -10.3996  -6.5402  -6.4314  -5.2583  -5.2414  -5.1966  -4.5773
    -4.2085  -4.1747  -4.1710  -4.1573  -4.1216  -4.1129  -4.0942  -4.0805
    -3.9874  -3.9752  -3.7445  -3.6076  -3.5948  -3.5841  -3.5493  -3.5137
    -3.4708  -3.3591  -3.3402  -3.3376  -3.3211  -3.3011  -3.2280  -3.1954
    -3.1737  -3.1641  -3.1576  -3.0991  -3.0712  -3.0551  -3.0249  -2.9825
    -2.9243  -2.6775  -2.5850  -2.5810  -2.5617  -2.5416  -2.5319  -2.5237
    -2.5021  -2.4620  -2.4328  -2.3076  -2.2938  -2.2854  -2.1941  -2.1794
    -2.1336  -2.1147  -2.0998  -2.0547  -2.0178  -1.9694  -1.8639  -1.8361
    -1.8127  -1.7585  -1.7235  -1.7102  -1.7021  -1.6644  -1.6442  -1.6236
    -1.4975  -1.4769  -1.4557  -1.4465  -1.4054  -1.3820  -1.3557  -1.3330
    -1.3158  -1.2938  -1.2067  -1.1863  -1.1559  -1.1370  -1.1344  -1.1286
    -1.1075  -1.0792  -1.0631  -1.0452  -0.9953  -0.9827  -0.9495  -0.9025
    -0.8881  -0.8683  -0.8290  -0.8120  -0.7776  -0.7718  -0.7580  -0.7412
    -0.7220  -0.7101  -0.6888  -0.6768  -0.6611  -0.6455  -0.6112  -0.5865
    -0.5135  -0.4765  -0.4578  -0.4205  -0.3893  -0.3731  -0.3321  -0.2008
    -0.1928  -0.0983  -0.0533  -0.0298  -0.0096   0.0042   0.0175   0.0419
     0.0667   0.0737   0.1052   0.1167   0.1567   0.2058   0.3057   0.3222
     0.3787   0.4180   0.4453   0.4543   0.4774   0.5178   0.5449   0.6167
     0.6391   0.6473   0.6990   0.7067   0.7714   0.8114   0.8365   0.8550
     0.8667   0.9170   0.9395   0.9430   0.9550   0.9633   0.9791   0.9881
     1.0085   1.0920   1.1666   1.1934   1.2264   1.3120   1.3293   1.4144
     1.4966   1.5054   1.5067   1.5507   1.6130   1.6306   1.6470   1.6600
     1.6784   1.7031   1.7112   1.7167   1.7322   1.7645   1.7869   1.8013
     1.8594   1.8936   1.8980   1.9345   1.9429   1.9842   2.0831   2.1419
     2.1777   2.2030   2.2340   2.2545   2.2601   2.3906   2.3987   2.7204
     2.9212   2.9386   3.2521   3.4622   3.4684   3.4884   3.8159   4.1368
     4.1816   4.3766   4.3980   4.4369   4.9054   5.1209   5.5754   5.5850
     5.8058   5.8354   6.1731   6.2809   6.3270   6.3900   6.4263   6.5459

          k = 0.4000 0.2309 0.0000 ( 88590 PWs)   bands (ev):

   -19.8226 -10.3995  -6.5128  -6.3227  -5.7011  -5.0705  -4.6432  -4.6327
    -4.5916  -4.4979  -4.2703  -4.1143  -4.0236  -3.9728  -3.9244  -3.9076
    -3.8413  -3.7470  -3.7124  -3.6894  -3.6754  -3.6211  -3.5496  -3.5214
    -3.5052  -3.4677  -3.4624  -3.4213  -3.3718  -3.3357  -3.3330  -3.2995
    -3.0717  -3.0681  -3.0631  -3.0588  -3.0366  -3.0340  -2.8239  -2.8146
    -2.7839  -2.7808  -2.7548  -2.7486  -2.5767  -2.4895  -2.4745  -2.4658
    -2.4615  -2.4160  -2.4082  -2.3452  -2.3322  -2.3252  -2.2722  -2.2633
    -2.1470  -2.1167  -2.0972  -2.0737  -2.0285  -1.9655  -1.9255  -1.9004
    -1.8825  -1.8672  -1.7467  -1.6764  -1.6682  -1.6613  -1.6419  -1.5882
    -1.5611  -1.5174  -1.4946  -1.4337  -1.4115  -1.4026  -1.3325  -1.2943
    -1.2906  -1.2814  -1.2717  -1.2253  -1.1975  -1.1873  -1.1716  -1.1698
    -1.1538  -1.1395  -1.1313  -1.1054  -1.0377  -1.0195  -1.0161  -0.9918
    -0.9720  -0.9330  -0.9237  -0.8388  -0.8173  -0.7829  -0.7643  -0.7357
    -0.7269  -0.6983  -0.6835  -0.6627  -0.5517  -0.5426  -0.5337  -0.4911
    -0.4428  -0.4263  -0.3005  -0.2940  -0.2505  -0.2061  -0.1871  -0.1333
    -0.1277  -0.1073  -0.0779  -0.0710  -0.0570  -0.0110   0.0092   0.0152
     0.0356   0.0516   0.0667   0.0885   0.1101   0.1460   0.1762   0.2551
     0.2637   0.2983   0.3540   0.4176   0.4549   0.4600   0.4848   0.5730
     0.5928   0.6624   0.7119   0.7435   0.7746   0.7830   0.8015   0.8382
     0.8524   0.8996   0.9069   0.9517   0.9825   0.9998   1.0684   1.0897
     1.1113   1.1206   1.1416   1.1776   1.2573   1.3168   1.3369   1.3817
     1.4120   1.4155   1.4246   1.5009   1.5260   1.5346   1.6099   1.6192
     1.6207   1.6760   1.6947   1.7123   1.7348   1.8138   1.8295   1.8599
     1.8728   1.8886   1.8927   1.9032   1.9101   2.0839   2.0867   2.1093
     2.1317   2.1330   2.3001   2.3435   2.5718   2.7184   2.8012   2.9335
     3.1615   3.1729   3.4986   3.5553   3.5865   3.9019   3.9953   4.3796
     4.3861   4.4156   4.5287   4.6269   4.7033   4.7505   5.0274   5.0380
     5.2856   5.6623   5.7594   6.1785   6.2840   6.5280   6.6925   6.8599

          k = 0.4000-0.6928 0.0000 ( 88532 PWs)   bands (ev):

   -19.8226 -10.3995  -6.5021  -5.9490  -5.9247  -5.3319  -4.7354  -4.7000
    -4.5529  -4.2025  -4.1704  -4.0337  -4.0035  -3.9182  -3.8874  -3.8028
    -3.7799  -3.7662  -3.6737  -3.6523  -3.6480  -3.6252  -3.6062  -3.5891
    -3.5471  -3.4580  -3.4487  -3.4259  -3.4011  -3.3695  -3.3057  -3.2258
    -3.1922  -3.1357  -3.0495  -3.0394  -3.0345  -3.0153  -2.9870  -2.9089
    -2.8997  -2.8078  -2.7721  -2.6225  -2.6086  -2.5540  -2.4839  -2.4635
    -2.4114  -2.4069  -2.2978  -2.2543  -2.2184  -2.2057  -2.1869  -2.1431
    -2.1302  -2.1088  -2.0626  -2.0011  -1.9828  -1.9708  -1.9625  -1.9547
    -1.9434  -1.9089  -1.8963  -1.8531  -1.7474  -1.7139  -1.6908  -1.6706
    -1.5760  -1.5498  -1.5267  -1.5092  -1.4824  -1.4648  -1.4370  -1.4147
    -1.3378  -1.3327  -1.3186  -1.2900  -1.2757  -1.2378  -1.1923  -1.1476
    -1.1148  -1.1019  -1.0883  -1.0648  -0.9913  -0.9355  -0.9173  -0.8969
    -0.8854  -0.8610  -0.8492  -0.8373  -0.8048  -0.7950  -0.7778  -0.7570
    -0.7387  -0.7204  -0.7009  -0.6945  -0.6803  -0.6655  -0.6580  -0.6314
    -0.5958  -0.5768  -0.5335  -0.3836  -0.3468  -0.2667  -0.2584  -0.2003
    -0.1680  -0.1412  -0.1158  -0.0892  -0.0653  -0.0562  -0.0192  -0.0114
     0.0511   0.0756   0.0936   0.1348   0.1549   0.2013   0.2335   0.2474
     0.2694   0.4142   0.4240   0.4646   0.4974   0.5135   0.5470   0.5940
     0.6066   0.6305   0.6441   0.6533   0.6830   0.7099   0.7336   0.7893
     0.8108   0.8581   0.8814   0.8939   0.9065   0.9271   0.9365   1.0453
     1.0748   1.1572   1.1857   1.2487   1.2941   1.3407   1.3500   1.4248
     1.4681   1.4729   1.5104   1.5739   1.6233   1.6474   1.6700   1.6919
     1.6975   1.7198   1.7461   1.7671   1.8483   1.8545   1.8697   1.8855
     1.9062   1.9107   1.9251   1.9796   2.0902   2.0966   2.1217   2.1298
     2.1384   2.1947   2.2341   2.3150   2.4410   3.1142   3.2761   3.2821
     3.4572   3.5292   3.6505   3.6609   3.6907   3.8912   4.2717   4.2884
     4.4200   4.7468   4.7617   4.8585   4.8866   4.9110   5.1044   5.1914
     5.2410   5.3704   5.6748   5.7178   5.8021   6.2175   6.3725   6.3814

          k = 0.4000-0.4619 0.0000 ( 88532 PWs)   bands (ev):

   -19.8226 -10.3996  -6.5009  -5.9511  -5.9233  -5.3319  -4.7312  -4.7045
    -4.5531  -4.2056  -4.1703  -4.0303  -4.0034  -3.9164  -3.8873  -3.8100
    -3.7775  -3.7544  -3.6751  -3.6525  -3.6497  -3.6252  -3.6069  -3.5867
    -3.5606  -3.4594  -3.4485  -3.4271  -3.4005  -3.3580  -3.3175  -3.2317
    -3.1922  -3.1334  -3.0492  -3.0398  -3.0329  -3.0158  -2.9769  -2.9070
    -2.8951  -2.8076  -2.7779  -2.6172  -2.6069  -2.5706  -2.4746  -2.4628
    -2.4136  -2.3959  -2.2918  -2.2577  -2.2198  -2.2079  -2.1850  -2.1527
    -2.1291  -2.1040  -2.0709  -2.0027  -1.9918  -1.9703  -1.9591  -1.9515
    -1.9453  -1.9058  -1.8896  -1.8309  -1.7596  -1.7328  -1.6917  -1.6727
    -1.5749  -1.5531  -1.5304  -1.5084  -1.4773  -1.4545  -1.4299  -1.4211
    -1.3373  -1.3313  -1.3215  -1.2875  -1.2768  -1.2424  -1.1931  -1.1495
    -1.1147  -1.1025  -1.0841  -1.0658  -0.9886  -0.9368  -0.9186  -0.8973
    -0.8853  -0.8559  -0.8493  -0.8403  -0.8041  -0.7962  -0.7810  -0.7585
    -0.7393  -0.7150  -0.7001  -0.6920  -0.6799  -0.6662  -0.6600  -0.6329
    -0.5953  -0.5802  -0.5093  -0.3866  -0.3528  -0.2670  -0.2568  -0.2064
    -0.1672  -0.1415  -0.1149  -0.0976  -0.0668  -0.0549  -0.0242  -0.0116
     0.0542   0.0772   0.0966   0.1252   0.1487   0.2030   0.2335   0.2439
     0.2719   0.4215   0.4303   0.4653   0.4943   0.5131   0.5482   0.5910
     0.6050   0.6304   0.6445   0.6527   0.6886   0.7085   0.7358   0.7926
     0.8083   0.8547   0.8789   0.8924   0.9100   0.9259   0.9389   1.0495
     1.0755   1.1541   1.1871   1.2451   1.2986   1.3389   1.3501   1.4239
     1.4663   1.4700   1.5150   1.5704   1.6256   1.6483   1.6704   1.6925
     1.6961   1.7191   1.7493   1.7672   1.8479   1.8542   1.8691   1.8853
     1.9041   1.9101   1.9281   1.9792   2.0899   2.0971   2.1213   2.1302
     2.1389   2.1949   2.2343   2.3146   2.4415   3.1168   3.2762   3.2825
     3.4248   3.5463   3.6563   3.6627   3.6897   3.9091   4.2676   4.2888
     4.4066   4.7450   4.7524   4.8715   4.8861   4.9206   5.0949   5.1819
     5.1907   5.4484   5.6650   5.7154   5.8351   6.1739   6.3714   6.3753

     the Fermi energy is     1.8961 ev

!    total energy              =  -27819.43366293 Ry

     total all-electron energy =  -1326872.810063 Ry
     estimated scf accuracy    <       0.00000096 Ry
     smearing contrib. (-TS)   =       0.00286510 Ry
     internal energy E=F+TS    =  -27819.43652802 Ry

     The total energy is F=E-TS. E is the sum of the following terms:
     one-electron contribution =  -26625.55237059 Ry
     hartree contribution      =   13616.86865049 Ry
     xc contribution           =    -904.80113332 Ry
     ewald contribution        =   11584.68830910 Ry
     one-center paw contrib.   =  -25490.63998371 Ry

     convergence has been achieved in  18 iterations

     negative rho (up, down):  1.276E-02 0.000E+00

     Forces acting on atoms (cartesian axes, Ry/au):

     atom    1 type  1   force =    -0.00006579    0.00026993   -0.00682369
     atom    2 type  1   force =    -0.00047509    0.00007285   -0.00339037
     atom    3 type  1   force =     0.00053984   -0.00001063   -0.00329975
     atom    4 type  1   force =    -0.00022937   -0.00053743   -0.00368320
     atom    5 type  1   force =    -0.00001932    0.00009794   -0.00332192
     atom    6 type  1   force =     0.00026001   -0.00057418   -0.00332920
     atom    7 type  1   force =     0.00027496    0.00043979   -0.00321921
     atom    8 type  1   force =    -0.00032509    0.00036555   -0.00330070
     atom    9 type  1   force =     0.00006326    0.00010022   -0.00334153
     atom   10 type  1   force =    -0.00022737   -0.00038298   -0.00069832
     atom   11 type  1   force =     0.00016978    0.00183894    0.00890976
     atom   12 type  1   force =     0.00006044   -0.00013596   -0.00166069
     atom   13 type  1   force =     0.00202987   -0.00087742    0.00915820
     atom   14 type  1   force =    -0.00188552   -0.00088785    0.00877709
     atom   15 type  1   force =    -0.00028832    0.00005671    0.00222375
     atom   16 type  1   force =    -0.00009637   -0.00020494   -0.00113986
     atom   17 type  1   force =     0.00011627   -0.00002596    0.00179041
     atom   18 type  1   force =    -0.00005306    0.00027137    0.00183408
     atom   19 type  1   force =    -0.00004836   -0.00018257    0.00033487
     atom   20 type  1   force =     0.00016435    0.00000084    0.00021197
     atom   21 type  1   force =    -0.00015793   -0.00011376    0.00013038
     atom   22 type  1   force =    -0.00009000    0.00026161    0.00028424
     atom   23 type  1   force =    -0.00008247    0.00000247    0.00010892
     atom   24 type  1   force =     0.00019940    0.00017052    0.00029192
     atom   25 type  1   force =    -0.00001342    0.00002359    0.00021816
     atom   26 type  1   force =    -0.00011405    0.00007445    0.00032417
     atom   27 type  1   force =     0.00012660   -0.00012676    0.00023443
     atom   28 type  1   force =    -0.00005989   -0.00001166    0.00046094
     atom   29 type  1   force =    -0.00002961    0.00028937   -0.00007047
     atom   30 type  1   force =     0.00005096    0.00022204   -0.00016382
     atom   31 type  1   force =     0.00022849   -0.00015860   -0.00013780
     atom   32 type  1   force =    -0.00009407    0.00042461    0.00066025
     atom   33 type  1   force =    -0.00030174   -0.00017030   -0.00007328
     atom   34 type  1   force =     0.00040395   -0.00014012    0.00015455
     atom   35 type  1   force =    -0.00038509   -0.00014452    0.00008112
     atom   36 type  1   force =     0.00009666    0.00005975    0.00033328
     atom   37 type  2   force =     0.00090679    0.00268267    0.00361702
     atom   38 type  3   force =     0.00045869    0.00065502    0.00012103
     atom   39 type  3   force =    -0.00036531   -0.00010183    0.00042176
     atom   40 type  3   force =     0.00281824   -0.00003665    0.00121348
     atom   41 type  4   force =    -0.00356132   -0.00355616   -0.00424198

     Total force =     0.008799     Total SCF correction =     0.002933
     SCF correction compared to forces is large: reduce conv_thr to get better values

     negative rho (up, down):  1.276E-02 0.000E+00

     negative rho (up, down):  1.276E-02 0.000E+00

     negative rho (up, down):  1.276E-02 0.000E+00

     negative rho (up, down):  1.276E-02 0.000E+00

     negative rho (up, down):  1.276E-02 0.000E+00

     negative rho (up, down):  1.276E-02 0.000E+00

     negative rho (up, down):  1.276E-02 0.000E+00

     negative rho (up, down):  1.276E-02 0.000E+00

     negative rho (up, down):  1.276E-02 0.000E+00

     negative rho (up, down):  1.276E-02 0.000E+00

     negative rho (up, down):  1.276E-02 0.000E+00

     negative rho (up, down):  1.276E-02 0.000E+00

     negative rho (up, down):  1.276E-02 0.000E+00

     negative rho (up, down):  1.276E-02 0.000E+00

     negative rho (up, down):  1.276E-02 0.000E+00

     negative rho (up, down):  1.276E-02 0.000E+00

     negative rho (up, down):  1.276E-02 0.000E+00

     negative rho (up, down):  1.276E-02 0.000E+00

     negative rho (up, down):  1.276E-02 0.000E+00

     negative rho (up, down):  1.276E-02 0.000E+00

     negative rho (up, down):  1.276E-02 0.000E+00

     negative rho (up, down):  1.276E-02 0.000E+00

     negative rho (up, down):  1.276E-02 0.000E+00

     negative rho (up, down):  1.276E-02 0.000E+00

     negative rho (up, down):  1.276E-02 0.000E+00

     negative rho (up, down):  1.276E-02 0.000E+00

     negative rho (up, down):  1.276E-02 0.000E+00

     negative rho (up, down):  1.276E-02 0.000E+00

     negative rho (up, down):  1.276E-02 0.000E+00

     negative rho (up, down):  1.276E-02 0.000E+00

     negative rho (up, down):  1.276E-02 0.000E+00

     negative rho (up, down):  1.276E-02 0.000E+00

     negative rho (up, down):  1.276E-02 0.000E+00

     negative rho (up, down):  1.276E-02 0.000E+00
 BEEFens 2000 ensemble energies
             -0.605426341521440E+02
             -0.360500243929835E+01
             -0.158094519715671E+02
              0.428575184489127E+02
             -0.220843060008540E+02
             -0.205090332079152E+02
             -0.351290434449331E+02
             -0.862988528229321E+02
             -0.464683954449668E+02
             -0.472214902697576E+02
             -0.368521440814631E+02
              0.226269521858372E+01
              0.405347145105284E+01
              0.765684492107349E+01
              0.264604067215640E+01
              0.473979787776389E+02
             -0.208534085925875E+02
             -0.230189124440095E+02
              0.192273676524135E+02
             -0.112182925934846E+03
              0.535225030835839E+02
             -0.289525880703134E+02
             -0.332863275433682E+01
             -0.114038181827419E+02
             -0.885084853483659E+01
             -0.462725607672027E+01
              0.881148460394617E+02
             -0.186439997377292E+02
             -0.899129788308039E+01
             -0.517153968582477E+02
              0.814386848343133E+02
             -0.187434421024918E+02
             -0.374070792235979E+02
              0.249015316307047E+02
             -0.283999463062668E+01
              0.163256471456838E+02
             -0.486979363032827E+01
              0.108294874885402E+02
              0.287365571120442E+02
             -0.103088937259723E+03
              0.557424951107608E+02
              0.142125914392629E+02
             -0.167845146814727E+01
             -0.361007878332645E+02
              0.122916220362129E+02
             -0.146442547947155E+02
              0.397243816024131E+02
              0.364201958281285E+02
             -0.307928892701087E+02
             -0.274328156516516E+02
             -0.327677018655012E+02
             -0.351392340204505E+02
              0.135771834874318E+02
             -0.489809357980821E+02
              0.115229690483203E+02
              0.621957237388328E+02
              0.633697312131093E+02
              0.355401418599024E+02
              0.153839403749948E+02
              0.269837856697869E+02
              0.889733245216343E+02
              0.212417958202138E+02
             -0.547533120884652E+02
             -0.157048338420482E+02
             -0.235308226666330E+02
              0.628575131402978E+02
             -0.772279016808321E+02
             -0.670756947702919E+02
             -0.258732035547543E+02
             -0.642560910394593E+01
             -0.470132381011185E+02
              0.270172493600521E+02
              0.798099769560190E+01
              0.863218974680530E+01
             -0.396591009460983E+02
             -0.346133303606760E+02
             -0.540623447592886E+02
              0.389844253466948E+02
             -0.295252375852735E+02
              0.264594312497932E+02
             -0.713938964534694E+01
             -0.317552306401961E+02
             -0.575425667069161E+02
             -0.176297314186451E+02
             -0.900316664018123E+01
             -0.124428921918462E+02
              0.411601149593636E+02
              0.681164990669021E+02
             -0.384611659004699E+02
             -0.793130567829094E+02
             -0.219330555898601E+02
              0.111306474517497E+03
             -0.591473148166026E+02
              0.355542576531576E+02
             -0.953994384095552E+01
             -0.662212756279005E+02
              0.253895269915670E+02
              0.397600457714479E+02
             -0.198512068996721E+02
              0.399843836135025E+02
             -0.295575616230744E+02
             -0.476784088543416E+02
              0.863621140762182E+02
              0.452948656661220E+02
              0.336360434905343E+02
              0.146108286722159E+02
              0.205036669039524E+02
              0.854984483212328E+02
             -0.256260756585885E+02
              0.788248533663912E+01
             -0.142139031096147E+03
              0.180884391773544E+02
             -0.714989923155714E+02
              0.150817368732020E+02
              0.204193144910226E+02
             -0.332087037832900E+02
             -0.556344749364825E+02
              0.653512834240223E+01
             -0.303569187968263E+02
              0.306784143227486E+02
             -0.529059029116724E+02
              0.174862892257943E+01
             -0.356151944864085E+02
             -0.422611858144023E+01
             -0.106338832742489E+01
              0.180607317034808E+02
              0.142433585149911E+01
             -0.650942353197900E+01
              0.589011531552353E+02
              0.906497268525385E+02
              0.483121747581496E+02
              0.829396111969847E+02
             -0.114939193443065E+02
              0.142872932050681E+02
              0.540221236243394E+02
             -0.111230362662371E+02
             -0.734425331003796E+02
             -0.383244849054556E+02
             -0.520904644064755E+02
             -0.276189216389821E+02
              0.326823352567743E+02
             -0.116532083748120E+03
             -0.187022097494415E+02
              0.412993606694345E+02
             -0.385451769044960E+02
             -0.364932802266156E+02
              0.542882298206615E+02
              0.399655528884726E+02
             -0.353593741201956E+02
              0.136735596487100E+02
             -0.272835493846118E+02
              0.342420766737945E+02
              0.443967711976507E+01
              0.211068997354627E+02
             -0.883351411530383E+02
             -0.479317374256115E+02
             -0.995503979723605E+01
              0.322292419809962E+01
             -0.365861913254549E+02
              0.105793245715891E+03
             -0.230920329622641E+02
             -0.398414178077459E+02
              0.388049174619396E+02
             -0.493382223578340E+02
             -0.362479528374552E+02
              0.324133480496437E+02
              0.124184255068121E+02
              0.164520828530984E+02
              0.116086647386860E+02
             -0.132641297300695E+02
              0.225193262418288E+02
              0.589005664713463E+02
             -0.311216479954533E+02
              0.161854168170884E+02
              0.932844875097048E+02
              0.340131661746161E+02
             -0.728625541223994E+01
             -0.188101311196850E+02
              0.153034186927033E+03
             -0.163427413292812E+02
              0.362480991449672E+02
              0.193662165578323E+02
              0.361193142570305E+02
              0.890125407008831E+02
              0.542051427396133E+02
             -0.237997546362915E+01
              0.227142689325385E+02
              0.483704956517125E+02
              0.362714443897888E+02
             -0.524281576493925E+02
              0.934158230242525E+02
             -0.824090030652015E+02
             -0.198009093376936E+02
              0.581730292215145E+02
              0.670577198765414E+01
              0.786762804073601E+01
              0.340439488437289E+02
              0.299036511520720E+02
              0.353048606751186E+02
             -0.636307455267648E+02
              0.285920750985395E+01
             -0.297191029206832E+02
             -0.868758811560623E+01
             -0.144109823832878E+01
             -0.719430585739166E+01
             -0.413663034228614E+01
              0.857832965815070E+02
             -0.101037849437422E+02
             -0.275842597590106E+02
             -0.496938119090581E+01
              0.139604424465179E+02
             -0.562534657752624E+02
             -0.405934829374574E+02
             -0.381403879996999E+02
             -0.628955902696381E+02
             -0.169182528154209E+02
             -0.446696128603806E+02
              0.163001158707311E+02
             -0.240570969695344E+01
             -0.104171549469929E+02
             -0.932648224449645E+01
              0.807315727125217E+01
             -0.242722750191483E+02
              0.688120063761361E+02
             -0.805380032345952E+02
             -0.140815778647520E+02
             -0.173867318022612E+02
              0.181765772778853E+02
              0.213941011389328E+02
             -0.462612660048510E+02
             -0.201635661922762E+02
              0.440056720695025E+02
             -0.275978994800520E+02
              0.186791982574031E+02
              0.382348500115399E+02
             -0.321775575156914E+01
              0.113901859030687E+03
             -0.229928495397952E+02
             -0.340286097172158E+02
              0.579311377304850E+01
             -0.227633384948458E+02
              0.526384940455255E+02
             -0.336103202075639E+02
              0.106139986090938E+02
              0.639717691751672E+02
             -0.126148360408110E+02
              0.120007303486082E+03
              0.125620818488899E+03
             -0.648441814949106E+02
              0.589421174876729E+02
              0.165867389175265E+02
             -0.516584784951731E+02
              0.215844144209912E+02
              0.352952645680548E+02
              0.361634753861491E+02
              0.133360112906243E+01
              0.159292655244712E+02
              0.694338574854199E+02
             -0.246491611899804E+02
              0.181306988708762E+02
              0.737802821527770E+02
             -0.371858967938177E+02
             -0.129104459306111E+02
              0.507299272881260E+02
              0.296785304535923E+02
              0.778629168033707E+02
              0.221936246443668E+02
              0.621892414645339E+01
              0.279902825138516E+02
              0.382439416884022E+02
             -0.470717149396945E+02
              0.329557132774380E+01
              0.129055533643516E+02
              0.113451795178617E+02
              0.220056234018211E+02
             -0.573666388391893E+02
              0.365424245637417E+02
             -0.443011375742720E+02
             -0.346856444808226E+02
              0.177612716025901E+02
             -0.181415674534753E+02
              0.553704844713948E+02
             -0.255968508372984E+02
              0.266112708954188E+02
              0.367553742601988E+02
              0.827726576869037E+02
              0.573762646649953E+02
              0.460823889937408E+02
             -0.105644983525165E+02
             -0.387207650059918E+01
             -0.331677962254059E+02
              0.748922125959494E+02
              0.795451459698792E+02
              0.361026045386628E+02
             -0.191320573831264E+02
              0.510821545811706E+02
             -0.163031749613518E+02
              0.214590410201571E+02
              0.613015154062165E+02
              0.214093930051786E+01
             -0.104261031912427E+02
             -0.282647699759189E+02
             -0.510367473315269E+02
              0.943462745193640E+02
              0.438687151334279E+02
             -0.557650432808878E+02
             -0.957167125090319E+01
              0.249381198969317E+02
             -0.995137921347415E+01
              0.590719868111380E+02
              0.151775036624518E+02
              0.797454152258086E+02
              0.278852170576344E+02
             -0.263458938020565E+02
              0.248562377950247E+02
             -0.499633153558057E+01
             -0.323168207418167E+02
              0.132761461250396E+02
              0.205373821225314E+02
              0.931086901224293E+02
              0.795908450484802E+02
              0.549886142491332E+02
              0.729446664494094E+02
              0.800155523315397E+01
             -0.273280137380930E+02
              0.162878966909553E+02
             -0.367352521597213E+02
             -0.475118179236737E+02
             -0.562524090790187E+02
             -0.265830380104846E+02
             -0.109494454974635E+03
             -0.290566128021516E+02
             -0.835633399621227E+02
              0.209638925458374E+02
             -0.476250875323331E+02
              0.395657885952190E+02
             -0.939420026090946E+02
             -0.329511173392714E+02
              0.547942265002290E+02
              0.207177291491354E+02
             -0.828722281506241E+02
              0.630024894957069E+02
             -0.256252316276417E+02
              0.511318469485019E+02
             -0.242022330792438E+02
             -0.749792285410481E+02
              0.111490114869966E+02
             -0.609962013860436E+02
             -0.168347850441085E+02
             -0.148701317797902E+01
              0.417454944103614E+02
              0.126763252602753E+03
             -0.460923973485164E+02
             -0.361752674011061E+02
             -0.958099106718237E+00
             -0.130340435339841E+02
             -0.820973944962723E+02
             -0.595769386370274E+02
              0.516273509533115E+02
             -0.288808758219419E+02
              0.168668454904326E+02
             -0.488406044405567E+02
             -0.131510922382298E+02
             -0.436405361272110E+02
              0.564676419431051E+02
              0.150783177771774E+02
             -0.231172068281858E+02
             -0.126524537019727E+02
              0.663914831664381E+01
             -0.618366058823625E+01
              0.440799295427955E+02
             -0.251487885375026E+02
              0.274920863023567E+01
              0.338735721920550E+02
              0.171058701039728E+02
             -0.159304480362600E+02
              0.155967126529624E+03
              0.536851334425433E+02
              0.113369192451262E+01
              0.161429160314261E+02
             -0.613746837695949E+02
              0.314253539110913E+02
             -0.720084647708995E+02
             -0.251243119460290E+02
             -0.521470425865767E+02
             -0.219741464451899E+02
              0.568006416154112E+02
             -0.535889173535453E+02
              0.160215288653034E+02
             -0.408125588058579E+01
              0.387105465314403E+01
             -0.433395883836545E+02
             -0.477505238429666E+02
             -0.399553812613647E+01
             -0.424460978903095E+02
             -0.216709399182372E+02
             -0.437738884644546E+02
             -0.119224252970328E+02
             -0.358439936629290E+02
             -0.515641315245549E+02
              0.212470722708624E+02
             -0.209136421296531E+02
              0.187245020481178E+02
              0.974265822025936E+01
             -0.736517883351757E+02
             -0.547164786492314E+02
             -0.397111752838969E+02
              0.353723240907991E+02
              0.273381557605157E+01
             -0.625524694028581E+02
              0.584691154229593E+02
             -0.400359619052719E+02
              0.543598811903052E+02
             -0.289029578542094E+02
             -0.444987932505360E+02
              0.297973817619858E+02
             -0.656167437703154E+02
             -0.379549564480181E+02
              0.671797222099820E+02
              0.203703397392629E+02
             -0.359272838582730E+02
              0.488459767728329E+02
             -0.173772260601777E+02
             -0.322160373875167E+02
             -0.301292691637649E+02
             -0.499638845665826E+02
              0.248903467011653E+02
             -0.931515697140124E+02
             -0.838969104894874E+02
             -0.732521304208535E+01
             -0.306201058352856E+02
             -0.574469112417623E+02
              0.720257700404146E+02
              0.131253525129334E+03
             -0.360791858668523E+02
             -0.253923355878817E+01
             -0.636135925995952E+02
              0.649178618587572E+02
              0.170315163987618E+02
             -0.181328435147581E+02
             -0.409410586844236E+02
              0.148338742500647E+02
             -0.585001385492569E+02
             -0.197751898499496E+02
             -0.903123452605719E+02
              0.336343337776100E+02
              0.168874586470525E+02
              0.186567505076334E+01
             -0.703017630682734E+01
             -0.328815153751391E+02
             -0.755632315389363E+01
              0.125263525059797E+03
             -0.198641826504140E+02
             -0.436571262180432E+02
             -0.682542435195729E+02
              0.108989559810323E+02
             -0.341400224428128E+02
              0.588384129016015E+01
              0.260794766248241E+02
              0.102120249557705E+02
              0.277183972467739E+02
              0.119515234707264E+02
              0.628525174175510E+02
              0.316379007855350E+02
             -0.325839601374861E+02
              0.354317736318766E+02
              0.378900383579614E+02
              0.120600281479318E+02
              0.486612307093284E+02
             -0.224031491383450E+02
              0.764412259404319E+02
              0.171660636675242E+02
             -0.271392232865019E+02
             -0.723844739422462E+01
             -0.186139438790860E+02
              0.261671523565025E+02
             -0.233898218900231E+02
             -0.884903694341403E-01
             -0.846936390311680E+01
              0.808066055239491E+02
              0.498897315265532E+02
             -0.685915104911911E+02
             -0.474519146278118E+01
             -0.554551951748187E+02
             -0.159193351663938E+02
             -0.268044922269966E+02
              0.373193445745142E+01
              0.605059121946846E+00
             -0.257069387769258E+02
              0.808899245328553E+01
             -0.600394501215962E+01
             -0.128533364680610E+02
              0.857230583050462E+02
              0.181609023581739E+02
             -0.805371600010586E+02
             -0.457873694105319E+02
              0.943069684054464E+02
              0.277438593225309E+02
             -0.106659935394594E+02
              0.104354961333487E+03
             -0.194481964627188E+02
             -0.122922941336274E+02
             -0.536578776807028E+01
              0.107126467774264E+02
              0.271731048831311E+02
              0.780794885903802E+01
              0.304818955511454E+02
             -0.187775288057687E+02
             -0.302953094905808E+02
             -0.417214412533529E+02
             -0.476033703599358E+02
              0.463405514904090E+02
              0.126528825059072E+02
              0.386972940878043E+02
              0.133233870162092E+02
              0.853868126505359E+02
              0.155947816096783E+02
             -0.844648897023555E+02
             -0.333862119859698E+02
              0.133849343706792E+02
             -0.302295105091339E+02
              0.625350199470595E+02
             -0.882882597013895E+01
              0.148351335200795E+02
              0.496080114323201E+02
             -0.705670251050843E+02
              0.149462139295946E+03
              0.208361034130884E+02
              0.270868527582583E+02
              0.346908770824375E+02
              0.103860436937537E+02
             -0.155682064571096E+01
              0.357838159235945E+02
             -0.356607276854435E+02
              0.771567815074191E+02
              0.683385202361664E+02
             -0.405355896045649E+02
              0.149330712854113E+02
              0.668778271291878E+02
             -0.223502642773429E+02
              0.153884514305323E+02
              0.434662032054013E+02
              0.421478240496670E+02
             -0.783560824916957E+02
             -0.152766380563362E+02
             -0.355781001321048E+02
             -0.148129550707301E+01
             -0.765290330506303E+01
             -0.546266885675834E+01
             -0.180548374717689E+02
             -0.293337222930668E+02
              0.629925418150066E+01
              0.111725878973930E+02
              0.534725944928509E+02
             -0.389368315402347E+02
              0.373491783166556E+02
              0.437572181869972E+02
             -0.186554000985329E+02
              0.871057997586476E+02
             -0.696622691311789E+02
             -0.102994220335944E+03
             -0.656854753792512E+01
             -0.267771335102532E+01
              0.386668695758362E+01
              0.788070499257645E+02
             -0.107168919085551E+02
              0.415851944520809E+02
              0.442411353318726E+02
              0.384534969304825E+02
             -0.993574132086360E+01
              0.626483095536244E+02
             -0.133281234028839E+02
             -0.306621116218049E+02
             -0.479068863431302E+02
              0.584597440220412E+01
              0.369009441973740E+02
             -0.603096121427276E+01
              0.392450873698846E+02
             -0.175283524059296E+01
              0.654273452927745E+02
              0.187051407563662E+02
              0.996694267821211E+01
             -0.121965535389817E+02
              0.331683418888723E+02
              0.361723110287886E+02
              0.232504854076234E+02
             -0.496527854815497E+00
             -0.549550991303797E+02
              0.260119372468312E+02
              0.174765659702003E+02
              0.402127694404564E+02
              0.271693609059172E+02
              0.371720363426735E+02
             -0.600554360032490E+01
              0.250401083619720E+02
             -0.298018508163634E+02
             -0.198227762763725E+01
             -0.568334432335871E+02
             -0.307139417869843E+02
              0.377935283574864E+02
             -0.934123957524327E+02
              0.294062626504191E+02
              0.183896720795990E+02
              0.838680614617828E+02
             -0.300458405300703E+02
              0.328879213114836E+02
             -0.137517360269073E+02
             -0.462995684977600E+02
             -0.760483887057435E+02
             -0.522359047495129E+01
             -0.858378779400399E+02
              0.199722133105602E+02
             -0.247225599741641E+02
              0.305166837209387E+02
              0.236477962215203E+02
             -0.240618824143872E+02
             -0.264921169410022E+02
              0.390071178154888E+02
             -0.587295332213472E+02
             -0.116508809766939E+02
             -0.195845733110402E+02
              0.212155954552361E+02
             -0.893493799486504E+01
              0.361459289801533E+01
             -0.200450735668915E+02
              0.557820595249628E+02
             -0.438315241848683E+02
              0.788225102496483E+01
              0.584404734666592E+02
             -0.322635615457638E+02
              0.359897573327609E+01
             -0.883148040387448E+01
             -0.668352290347142E+02
             -0.482009681898444E+02
             -0.861513594272164E+01
              0.240133610848432E+02
              0.301613848987601E+02
              0.860189733151424E+01
             -0.410613568936731E+01
              0.151615289763126E+02
             -0.439207150778412E+02
              0.333903150698592E+01
             -0.530217354575462E+02
             -0.324337226605961E+02
              0.473762798094622E+02
             -0.294586884441967E+02
              0.621119953594865E+02
             -0.214326949850719E+02
              0.353100144124957E+02
              0.241333505630182E+02
             -0.643032073115507E+02
             -0.280026005542683E+02
              0.929905106965464E+01
             -0.370938472357762E+02
             -0.338786256196814E+02
             -0.828183448740667E+02
             -0.538372881398127E+02
             -0.509603402256718E+02
             -0.414676910185107E+02
             -0.983483028786253E+00
              0.989029439387514E+01
              0.101121579198036E+01
              0.152569201171448E+02
             -0.548267989693091E+02
              0.141686864879831E+02
              0.256297466015259E+02
             -0.665526846442729E+02
             -0.701107706704985E+02
             -0.430652572816221E+02
             -0.171278681229578E+02
              0.178320693272927E+02
              0.457001307943085E+01
             -0.425117344527089E+02
              0.365870509168016E+02
             -0.215656653612608E+02
              0.516510670937162E+02
             -0.885582503586700E+02
              0.596470371526009E+02
             -0.208992158741761E+01
             -0.367725892677530E+02
             -0.215721100785075E+02
              0.471701142901182E+01
              0.373556173526636E+02
             -0.755187546701162E+02
             -0.120491487025440E+02
             -0.216469044906141E+02
              0.510523220471638E+02
              0.863434145292608E+02
             -0.963455193925033E+02
              0.942365753847134E+02
              0.467037741955570E+02
             -0.724040975581542E+02
             -0.366130155698511E+02
              0.750485186268618E+02
              0.631006628685537E+02
             -0.180895564191445E+02
             -0.461849900933714E+01
              0.728415607122068E+01
              0.647573770474091E+02
             -0.507282031922577E+02
              0.158272985018028E+02
             -0.470281746022303E+01
              0.347371835383479E+02
             -0.745814893357821E+02
             -0.648530466685880E+01
             -0.350729741882413E+02
              0.459785190835758E+02
              0.468075153761870E+02
             -0.860249490370289E+02
             -0.486274713746486E+02
             -0.255895596931825E+02
             -0.338519055607407E+02
             -0.109100861278810E+02
             -0.242536083537423E+02
              0.426546218172372E+02
              0.400205823140656E+02
             -0.565379808674720E+01
             -0.415472229910227E+02
             -0.848976777226473E+02
              0.442101515112195E+02
             -0.522480951577870E+02
             -0.312317742737116E+02
              0.545104011159364E+01
             -0.321895254896197E+02
             -0.397213116527190E+02
             -0.239647695597711E+02
             -0.384546287989008E+02
             -0.270321584042537E+02
             -0.481646432275737E+02
              0.562941780065894E+02
              0.637209301095153E+02
             -0.168122090365421E+01
             -0.260945643769788E+02
             -0.628180086186103E+01
              0.440586506810312E+02
             -0.866493261664688E+02
             -0.145849184246908E+02
              0.522727295771094E+02
              0.662491097231952E+02
             -0.244480680746784E+02
              0.913348800110646E+01
              0.522761687485558E+02
              0.197992162599862E+02
             -0.827759226799492E+01
             -0.452638125330682E+02
              0.280518515102867E+02
             -0.352035495840094E+02
             -0.164787987669497E+02
[...]
              0.283190172353408E+02
              0.141538212930103E+03
              0.241727892237235E+02
              0.122190994290903E+02
             -0.463393566018833E+02
             -0.636655466854376E+02
             -0.188902773047967E+02
              0.329232811633226E+02
             -0.426638374074685E+01
              0.189517733964955E+02
              0.335443520004794E+02
             -0.585163654115338E+02
              0.221928550888588E+02
              0.581517504757107E+02
              0.551722547980854E+02
             -0.416314823646337E+01
             -0.139205658496246E+01
             -0.992571839052709E+01
             -0.481520631937716E+02
             -0.673389959263144E+02
              0.784002742085350E+02
             -0.520089294299629E+01
             -0.586923783045333E+02
              0.168145722264472E+01
             -0.204604299894760E+02
              0.936870491117217E+02
             -0.216049570636277E+02
             -0.352753750643325E+02
              0.334501870998678E+02
             -0.145441545176791E+02
              0.388593984668100E+02
             -0.237852022480064E+01
              0.100904496167276E+03
              0.488459812691144E+02
             -0.515255915472260E+01
             -0.321074757575387E+02
              0.231705148601476E+02
             -0.527441505988460E+02
             -0.127849354515956E+02
              0.584374476467561E+02
             -0.287234465803135E+02
             -0.437426649920841E+02
             -0.222649294751401E+02
              0.517580878812477E+02
              0.124505456048292E+02
             -0.847242939431481E+02
              0.303248153822909E+02
              0.152200765079458E+02
              0.574955391804372E+01
             -0.512493274781871E+02
             -0.380496020389313E+01
              0.322362963174131E+02
              0.511973019500283E+02
              0.631272430107597E+02
              0.228204645096427E+02
              0.730479835401638E+00
             -0.496828986323546E+02
             -0.509271947390714E+02
             -0.746657059602188E+02
             -0.611744273269994E+01
              0.308347571959131E+02
             -0.380334124056486E+01
              0.545818836747641E+02
             -0.317354555089233E+02
              0.165990465382548E+02
             -0.102115148739906E+02
             -0.289099097260760E+02
              0.584464158788298E+02
              0.791330916736024E+01
              0.602996805023147E+02
              0.508762858435341E+01
              0.264702260757846E+02
             -0.192322107099420E+02
              0.584885675149619E+02
             -0.111132148097749E+02
             -0.119072967674228E+00
             -0.788546299702263E+02
             -0.128257400859378E+02
              0.717682742821979E+02
              0.671919010808572E+02
              0.251288411582774E+02
             -0.129898204543071E+02
              0.342573514642774E+01
             -0.172936547464620E+02
             -0.199314966487049E+01
              0.905915661332835E+02
              0.121809599558628E+01
             -0.189711810922165E+02
             -0.110534787288119E+03
             -0.551880212887153E+02
             -0.374269228180151E+02
             -0.657368893338972E+02
             -0.554349158734048E+02
             -0.681173391456988E+02
             -0.446251435769724E+02
             -0.410451749878255E+02
             -0.450781229190908E+02
              0.482678839010953E+02
             -0.293917582641848E+02
             -0.993849800434344E+02
              0.418194186234232E+02
             -0.259302145348317E+02
             -0.789111474770932E+02
              0.941717728326030E+02
             -0.219107471944152E+02
              0.227816434949584E+02
              0.454449561028878E+02
             -0.138386595672586E+01
              0.253781040880083E+02
              0.469958444237417E+01
              0.405062727120754E+00
             -0.150455411221570E+02
             -0.714276024092939E+02
              0.133034977146285E+02
             -0.129151464650869E+03
              0.622546611893021E+02
             -0.439847889788996E+02
             -0.162374168809370E+02
             -0.157519210410063E+02
              0.708997839632876E+01
             -0.227466577410160E+02
              0.296518105180210E+02
             -0.519185646028873E+02
              0.366548926150483E+02
              0.370033624145425E+02
              0.168285949093347E+02
              0.100443090532840E+02
              0.197357426190919E+02
              0.619413672242604E+01
              0.309752567104530E+02
             -0.799702303814470E+01
             -0.590539004235659E+02
              0.755602428747090E+01
             -0.151783674492144E+02
             -0.192955054791332E+01
              0.505039110342132E+02
             -0.825281872754700E+02
             -0.148741711096528E+01
              0.562946939969265E+00
              0.993594196619091E+01
              0.317810397973321E+02
             -0.123355208216746E+02
              0.833831868970500E+02
              0.486995717305820E+02
             -0.182961161087866E+02
             -0.953863166876494E+01
              0.104530599553394E+01
              0.767847129168251E+02
             -0.585178878332406E+02
             -0.105559766229847E+03
              0.308652048294231E+02
             -0.163083023346434E+02
             -0.139227209512207E+02
              0.130022883498854E+02
              0.766960244329356E+02
              0.463405078658765E+02
             -0.153089941279741E+02
             -0.501791142290851E+02
             -0.545708030114119E+01
              0.305867548980221E+02
             -0.111144757722994E+02
             -0.754105266096690E+02
             -0.268988832141463E+01
             -0.887719256570789E+02
             -0.474342267009798E+02
              0.766592572068304E+02
             -0.482405290997929E+02
             -0.634975756525767E+02
             -0.513306799197256E+02
             -0.348855016598104E+02
              0.340317090382954E+02
              0.819752172817635E+02
             -0.355016980264406E+01
              0.276006626347742E+02
             -0.183304527067086E+02
             -0.692455387356224E+02
              0.464021988417775E+02
             -0.443990090937673E+02
              0.321305428509319E+02
              0.375719349533740E+02
             -0.651787802627661E+01
              0.389714342718587E+02
              0.437574251345943E+02
              0.100384222712767E+03
             -0.155857435195838E+02
             -0.454709113245856E+02
             -0.611273920843897E+02
             -0.123315581008868E+02
             -0.231915307761405E+02
              0.102840254537432E+03
             -0.448205896557008E+02
              0.104855014685873E+02
              0.971403024066973E+01
             -0.264305082933286E+02
             -0.796988083466102E+02
             -0.698377417618696E+01
              0.977704411539166E+02
              0.931442473788148E+01
              0.807010761102089E+01
             -0.525568916410153E+02
             -0.604216806842398E+02
             -0.557125513404615E+01
              0.499431365665087E+02
             -0.221306821847515E+02
              0.107760451727869E+03
             -0.434600626404977E+02
              0.145814041040542E+02
             -0.223966794573390E+02
             -0.717261227970461E+02
              0.165787035275685E+01
             -0.500363493935436E+02
             -0.758996966037289E+02
              0.612899652541665E+01
              0.235204463080964E+01
              0.513066241198075E+02
              0.186573457773804E+02
             -0.322873693426436E+02
              0.229592543236529E+02
             -0.808987436324886E+02
             -0.520736740577647E+02
              0.899759307401927E+02
              0.142293176228378E+02
             -0.187995986073563E+02
             -0.351961112954156E+02
             -0.270199740449732E+01
             -0.583103208877924E+01
              0.828317413002790E+02
              0.416930793723991E+02
             -0.165878777417206E+02
             -0.121968773585054E+02
             -0.426857516914511E+02
             -0.200486588621746E+02
             -0.668679191137759E+02
              0.458619514474827E+02
              0.545462197379487E+01
              0.144801299164175E+02
              0.155624016465399E+02
             -0.522220138077458E+00
             -0.167867690841878E+02
             -0.311668048260984E+01
             -0.100171238073816E+03
             -0.229876205262130E+02
             -0.763057372235971E+01
             -0.947212912206740E+01
              0.545347234486300E+02
              0.622413089015404E+02
              0.164336187283585E+02
             -0.968563782419980E+02
              0.646066439917846E+02
             -0.214399518333414E+02
             -0.376186915876862E+02
             -0.862273545702202E+02
             -0.386506747738951E+02
              0.563070972826394E+02
              0.243597993738938E+02
              0.510792231585691E+01
              0.291418525569486E+02
             -0.563648411197918E+02
             -0.421123726827306E+02
              0.513897069011960E+02
              0.386216377475652E+02
              0.517885713415598E+02
             -0.124269288458817E+01
              0.683605491561764E+01
              0.568299400016041E+02
              0.960603756832096E+02
             -0.299953203018326E+02
              0.321969161873415E+02
             -0.117763541593192E+02
             -0.411182662178144E+02
             -0.313593290257069E+02
             -0.299419379472749E+02
             -0.131008815967540E+02
             -0.522353124474059E+02
             -0.216827440109705E+02
             -0.140897434977070E+03
              0.368376733981867E+02
              0.206014181674748E+02
             -0.393093482295510E+01
             -0.379235106295138E+02
             -0.203845219084189E+02
             -0.525496103467253E+02
              0.151305939308439E+02
              0.818337414015296E+02
             -0.251742897696032E+02
             -0.162598176685486E+02
              0.237678067655163E+02
             -0.488321847179692E+02
              0.878689457596388E+02
              0.154109226066314E+02
              0.226265962919811E+02
              0.489007736465285E+02
              0.321962873987610E+01
              0.540657038917394E+02
              0.142476200660891E+02
             -0.106647842456115E+02
              0.727516143491161E+01
              0.801109213144855E+00
              0.725737500055237E+02
              0.101130670397072E+02
              0.120017693857051E+02
             -0.129957051474761E+02
              0.132168901109505E+02
             -0.909055484338281E+02
             -0.325110149913154E+02
             -0.456151895012955E+02
              0.484143239339863E+02
             -0.290220120816850E+02
             -0.657355234028306E+02
              0.537103018350186E+02
             -0.121686432542702E+02
              0.439225235065346E+02
             -0.896766287781754E+02
              0.231830473944280E+02
              0.856436537396641E+01
              0.580802553758838E+01
             -0.828036031755960E+01
             -0.902677524866522E+01
              0.478357369792885E+02
              0.198999827403952E+01
             -0.473817518427978E+02
             -0.175660243671639E+02
              0.276309556694449E+02
             -0.117691713254848E+03
             -0.927970429626130E+02
              0.396019631261214E+01
              0.117194257998483E+02
             -0.412062095954021E+02
             -0.390570464636016E+01
              0.111887789135185E+03
              0.305877258088092E+02
             -0.570438051693454E+02
              0.923214409419830E+01
             -0.961243787270128E+01
              0.105463638546525E+02
             -0.336892024166324E+02
              0.194858796006891E+02
              0.284124411640835E+02
             -0.295801545910382E+01
              0.107917195440106E+03
             -0.140353127735841E+02
             -0.315311838620058E+02
              0.142076957766200E+02
              0.465667688855207E+02
             -0.355270468087516E+02
             -0.317400486179501E+01
              0.962669493742634E+02
             -0.464360919559635E+01
              0.620527897826221E+02
              0.135109972654607E+02
             -0.900025580957080E+01
             -0.305103957249127E+02
              0.565569139429404E+02
             -0.512806359372614E+02
             -0.221008325619016E+01
             -0.169516684381048E+02
             -0.404412853203587E+02
              0.184815515414547E+02
              0.238736779889658E+02
              0.116323549288377E+02
              0.720571113567757E+00
             -0.383487994516703E+02
              0.214996937586683E+02
             -0.674629843086018E+01
             -0.245967049873054E+02
             -0.210194691562004E+02
              0.202949839192345E+02
             -0.599421740104515E+01
             -0.348290773189735E+02
             -0.106401769268661E+03
              0.102747618376160E+02
              0.248602447756154E+02
             -0.386072282338843E+02
             -0.210319903672820E+02
              0.805272230845993E+02
              0.647820721009055E+01
              0.309640511602813E+02
              0.387290037971204E+01
              0.320812883694901E+02
              0.646824443827870E+01
             -0.372047238356596E+02
             -0.228673832515545E+01
              0.875855163604774E+01
              0.273062543012844E+02
              0.780315511994726E+02
              0.506288920621033E+02
              0.174850906002746E+00
              0.169084363841399E+02
              0.611880580783396E+02
              0.235205729122233E+02
             -0.751394135047148E+02
             -0.273152960578365E+02
              0.150976786983892E+02
              0.558958750466400E+01
              0.254420289455051E+02
             -0.546691040292545E+02
              0.898282646208614E+01
              0.385057900674815E+02
              0.496909226645120E+02
             -0.433944314847639E+02
             -0.692440145440889E+01
             -0.207569843002568E+01
             -0.133200373484754E+02
             -0.365025544131938E+02
             -0.215143949444850E+02
             -0.198525854801267E+01
              0.790380175501969E+01
              0.420453623207347E+02
             -0.307442563524981E+02
              0.824393691318594E+02
              0.326748628854317E+02
              0.219219077995174E+02
              0.332292216761497E+02
              0.322725630701367E+02
              0.345401364683755E+02
              0.535892761971269E+02
             -0.432820319477326E+02
              0.618253073583029E+02
             -0.112019292381650E+03
              0.306633341852528E+02
             -0.106294645697706E+03
              0.852853634882821E+02
              0.688873829002991E+02
             -0.109703565608551E+02
             -0.492237989359778E+02
             -0.428608861401501E+02
             -0.622468896069279E+02
             -0.627242655429195E+02
              0.550693973350049E+02
              0.404484747575499E+02
              0.236221239674896E+02
              0.373378441528272E+02
              0.402015228642956E+02
             -0.381161642329158E+02
             -0.197565227938204E+02
              0.585518995649342E+02
             -0.115857049630636E+02
              0.550773315456000E+02
              0.697587572455816E+02
             -0.553938223591947E+01
             -0.704571642932694E+02
             -0.903287728515352E+00
             -0.247309095898510E+01
             -0.879780222358431E+01
             -0.181991999262436E+01
             -0.651556560492394E+02
             -0.210665031401035E+02
              0.536053489695900E+01
              0.895816479184845E+01
              0.467750758004842E+02
             -0.396693981757203E+02
              0.656501957794200E+02
             -0.424503802658404E+02
              0.209732344425344E+02
              0.349274647899217E+02
 
 BEEF-vdW xc energy contributions
           1 :   -781.389645663139     
           2 :    717.949636499840     
           3 :   -608.102556703574     
           4 :    478.764147109334     
           5 :   -357.273806863088     
           6 :    263.344165386831     
           7 :   -204.609354495008     
           8 :    176.606971275994     
           9 :   -166.755906641174     
          10 :    160.460985967914     
          11 :   -146.874809990345     
          12 :    122.152495121466     
          13 :   -89.3315525614802     
          14 :    55.4445056530728     
          15 :   -27.5363417627212     
          16 :    9.39013556634018     
          17 :  -0.226769828955526     
          18 :   -4.35263097912241     
          19 :    9.87489316114045     
          20 :   -20.2712041529444     
          21 :    36.1770622557309     
          22 :   -54.9264681325889     
          23 :    72.0745998916627     
          24 :   -83.6202083636319     
          25 :    87.8334183800988     
          26 :   -85.8821293789365     
          27 :    81.0641148441098     
          28 :   -77.1131128576137     
          29 :    76.4293409929983     
          30 :   -79.0688504848731     
          31 :   -85.5955416555778     
          32 :   -65.6108724745786     

     Writing output data file ./pwscf.save/
 
     init_run     :    366.44s CPU    370.90s WALL (       1 calls)
     electrons    :  13740.12s CPU  13865.43s WALL (       1 calls)
     forces       :    107.40s CPU    108.76s WALL (       1 calls)

     Called by init_run:
     wfcinit      :    314.66s CPU    318.06s WALL (       1 calls)
     potinit      :     48.20s CPU     48.55s WALL (       1 calls)
     hinit0       :      1.52s CPU      1.56s WALL (       1 calls)

     Called by electrons:
     c_bands      :  11356.06s CPU  11451.49s WALL (      19 calls)
     sum_band     :   1626.62s CPU   1640.47s WALL (      19 calls)
     v_of_rho     :    128.91s CPU    132.92s WALL (      19 calls)
     newd         :     31.60s CPU     43.42s WALL (      19 calls)
     PAW_pot      :    135.24s CPU    135.29s WALL (      19 calls)
     mix_rho      :    510.70s CPU    511.71s WALL (      19 calls)
     vdW_kernel   :     35.64s CPU     35.65s WALL (       1 calls)

     Called by c_bands:
     init_us_2    :     76.17s CPU     76.53s WALL (     520 calls)
     cegterg      :  10605.29s CPU  10700.10s WALL (     247 calls)

     Called by *egterg:
     cdiaghg      :     92.08s CPU     92.13s WALL (    1293 calls)
     h_psi        :   7018.98s CPU   7053.38s WALL (    1319 calls)
     s_psi        :   1087.14s CPU   1087.55s WALL (    1319 calls)
     g_psi        :     16.68s CPU     16.69s WALL (    1059 calls)

     Called by h_psi:
     h_psi:calbec :   1026.39s CPU   1026.95s WALL (    1319 calls)
     vloc_psi     :   4879.30s CPU   4882.68s WALL (    1319 calls)
     add_vuspsi   :   1087.55s CPU   1088.01s WALL (    1319 calls)

     General routines
     calbec       :   1508.40s CPU   1509.15s WALL (    1618 calls)
     fft          :     52.10s CPU     52.14s WALL (    3159 calls)
     ffts         :    168.83s CPU    168.96s WALL (   10640 calls)
     fftw         :   4961.14s CPU   4964.06s WALL (  322486 calls)
 
     Parallel routines
 
     PWSCF        :      3h59m CPU      4h 1m WALL

 
   This run was terminated on:  18:13:55  26Sep2022            

=------------------------------------------------------------------------------=
   JOB DONE.
=------------------------------------------------------------------------------=
