
     Program PWSCF v.6.7MaX starts on 20May2022 at 15:46:12 

     This program is part of the open-source Quantum ESPRESSO suite
     for quantum simulation of materials; please cite
         "P. Giannozzi et al., J. Phys.:Condens. Matter 21 395502 (2009);
         "P. Giannozzi et al., J. Phys.:Condens. Matter 29 465901 (2017);
          URL http://www.quantum-espresso.org", 
     in publications or presentations arising from this work. More details at
     http://www.quantum-espresso.org/quote

     Parallel version (MPI), running on     1 processors

     MPI processes distributed on     1 nodes
     Reading input from h2co2ch3-ensemble.in
Warning: card &CELL ignored
Warning: card / ignored

     Current dimensions of program PWSCF are:
     Max number of different atomic species (ntypx) = 10
     Max number of k-points (npk) =  40000
     Max angular momentum in pseudopotentials (lmaxx) =  3
     file Pt.pbe-n-kjpaw_psl.1.0.0.UPF: wavefunction(s)  6S 5D renormalized
     file O.pbe-nl-kjpaw_psl.1.0.0.UPF: wavefunction(s)  2S 2P renormalized
     file C.pbe-n-kjpaw_psl.1.0.0.UPF: wavefunction(s)  2S 2P renormalized
     file H.pbe-kjpaw_psl.1.0.0.UPF: wavefunction(s)  1S renormalized

     **************************************************************************
     Initializing libbeef V0.1.2 with the BEEF-vdW functional.
     Citation: Wellendorff et al., PRB 85, 235149 (2012).
     **************************************************************************


     IMPORTANT: XC functional enforced from input :
     Exchange-correlation= BEEF-VDW
                           (   1   4  43  14   2   0   0)
     Any further DFT definition will be discarded
     Please, verify this is what you really want


     Subspace diagonalization in iterative solution of the eigenvalue problem:
     a serial algorithm will be used

 
     G-vector sticks info
     --------------------
     sticks:   dense  smooth     PW     G-vecs:    dense   smooth      PW
     Sum        4267    4267   1159               745277   745277  105083
 


     bravais-lattice index     =            0
     lattice parameter (alat)  =      16.0349  a.u.
     unit-cell volume          =   11867.8695 (a.u.)^3
     number of atoms/cell      =           45
     number of atomic types    =            4
     number of electrons       =       385.00
     number of Kohn-Sham states=          232
     kinetic-energy cutoff     =      60.0000  Ry
     charge density cutoff     =     240.0000  Ry
     scf convergence threshold =      1.0E-06
     mixing beta               =       0.7000
     number of iterations used =            8  local-TF  mixing
     Exchange-correlation= BEEF-VDW
                           (   1   4  43  14   2   0   0)

     celldm(1)=  16.034858  celldm(2)=   0.000000  celldm(3)=   0.000000
     celldm(4)=   0.000000  celldm(5)=   0.000000  celldm(6)=   0.000000

     crystal axes: (cart. coord. in units of alat)
               a(1) = (   1.000000   0.000000   0.000000 )  
               a(2) = (   0.500000   0.866025   0.000000 )  
               a(3) = (   0.000000   0.000000   3.323891 )  

     reciprocal axes: (cart. coord. in units 2 pi/alat)
               b(1) = (  1.000000 -0.577350  0.000000 )  
               b(2) = (  0.000000  1.154701  0.000000 )  
               b(3) = (  0.000000  0.000000  0.300852 )  


     PseudoPot. # 1 for Pt read from file:
     /users/bkreitz1/quantum-espresso/potentials/Pt.pbe-n-kjpaw_psl.1.0.0.UPF
     MD5 check sum: 04dc8a03c51ece93fc7b5889c2958091
     Pseudo is Projector augmented-wave + core cor, Zval = 10.0
     Generated using 'atomic' code by A. Dal Corso  v.6.7MaX
     Shape of augmentation charge: PSQ
     Using radial grid of 1277 points,  6 beta functions with: 
                l(1) =   0
                l(2) =   0
                l(3) =   1
                l(4) =   1
                l(5) =   2
                l(6) =   2
     Q(r) pseudized with 0 coefficients 


     PseudoPot. # 2 for O  read from file:
     /users/bkreitz1/quantum-espresso/potentials/O.pbe-nl-kjpaw_psl.1.0.0.UPF
     MD5 check sum: eef08af8b58d9ec80f8fdb78829eb7cf
     Pseudo is Projector augmented-wave + core cor, Zval =  6.0
     Generated using 'atomic' code by A. Dal Corso  v.6.7MaX
     Shape of augmentation charge: PSQ
     Using radial grid of 1095 points,  4 beta functions with: 
                l(1) =   0
                l(2) =   0
                l(3) =   1
                l(4) =   1
     Q(r) pseudized with 0 coefficients 


     PseudoPot. # 3 for C  read from file:
     /users/bkreitz1/quantum-espresso/potentials/C.pbe-n-kjpaw_psl.1.0.0.UPF
     MD5 check sum: a169b0ebad56f5ec0d79c4633f80bf22
     Pseudo is Projector augmented-wave + core cor, Zval =  4.0
     Generated using 'atomic' code by A. Dal Corso  v.6.7MaX
     Shape of augmentation charge: PSQ
     Using radial grid of 1073 points,  4 beta functions with: 
                l(1) =   0
                l(2) =   0
                l(3) =   1
                l(4) =   1
     Q(r) pseudized with 0 coefficients 


     PseudoPot. # 4 for H  read from file:
     /users/bkreitz1/quantum-espresso/potentials/H.pbe-kjpaw_psl.1.0.0.UPF
     MD5 check sum: ae98473e6dc62675f0d0baffdab24f65
     Pseudo is Projector augmented-wave, Zval =  1.0
     Generated using 'atomic' code by A. Dal Corso  v.6.7MaX
     Shape of augmentation charge: PSQ
     Using radial grid of  929 points,  2 beta functions with: 
                l(1) =   0
                l(2) =   0
     Q(r) pseudized with 0 coefficients 


     atomic species   valence    mass     pseudopotential
        Pt            10.00   195.08400     Pt( 1.00)
        O              6.00    15.99900     O ( 1.00)
        C              4.00    12.01100     C ( 1.00)
        H              1.00     1.00800     H ( 1.00)

     No symmetry found



   Cartesian axes

     site n.     atom                  positions (alat units)
         1           Pt  tau(   1) = (   0.0000000   0.0000000   1.0017346  )
         2           Pt  tau(   2) = (   0.3333333   0.0000000   1.0017346  )
         3           Pt  tau(   3) = (   0.6666667   0.0000000   1.0017346  )
         4           Pt  tau(   4) = (   0.1666667   0.2886751   1.0017346  )
         5           Pt  tau(   5) = (   0.5000000   0.2886751   1.0017346  )
         6           Pt  tau(   6) = (   0.8333333   0.2886751   1.0017346  )
         7           Pt  tau(   7) = (   0.3333333   0.5773503   1.0017346  )
         8           Pt  tau(   8) = (   0.6666667   0.5773503   1.0017346  )
         9           Pt  tau(   9) = (   1.0000000   0.5773503   1.0017346  )
        10           Pt  tau(  10) = (   0.1666667   0.0962250   1.2739001  )
        11           Pt  tau(  11) = (   0.5000000   0.0962250   1.2739001  )
        12           Pt  tau(  12) = (   0.8333333   0.0962250   1.2739001  )
        13           Pt  tau(  13) = (   0.3333333   0.3849002   1.2739001  )
        14           Pt  tau(  14) = (   0.6666667   0.3849002   1.2739001  )
        15           Pt  tau(  15) = (   1.0000000   0.3849002   1.2739001  )
        16           Pt  tau(  16) = (   0.5000000   0.6735753   1.2739001  )
        17           Pt  tau(  17) = (   0.8333333   0.6735753   1.2739001  )
        18           Pt  tau(  18) = (   1.1666667   0.6735753   1.2739001  )
        19           Pt  tau(  19) = (  -0.0008340   0.1919664   1.5421252  )
        20           Pt  tau(  20) = (   0.3328369   0.1908462   1.5435184  )
        21           Pt  tau(  21) = (   0.6660521   0.1907239   1.5451652  )
        22           Pt  tau(  22) = (   0.1665863   0.4805372   1.5406858  )
        23           Pt  tau(  23) = (   0.4992066   0.4819507   1.5398896  )
        24           Pt  tau(  24) = (   0.8320923   0.4805122   1.5404457  )
        25           Pt  tau(  25) = (   0.3303617   0.7708639   1.5473642  )
        26           Pt  tau(  26) = (   0.6674086   0.7705733   1.5440474  )
        27           Pt  tau(  27) = (   0.9998812   0.7701958   1.5451948  )
        28           Pt  tau(  28) = (  -0.0006175  -0.0005548   1.8165902  )
        29           Pt  tau(  29) = (   0.3293479  -0.0010425   1.8216907  )
        30           Pt  tau(  30) = (   0.6676536  -0.0003419   1.8280317  )
        31           Pt  tau(  31) = (   0.1645595   0.2889757   1.8151400  )
        32           Pt  tau(  32) = (   0.4987964   0.2919518   1.8126403  )
        33           Pt  tau(  33) = (   0.8332200   0.2897832   1.8157051  )
        34           Pt  tau(  34) = (   0.3335175   0.5750573   1.8160669  )
        35           Pt  tau(  35) = (   0.6647763   0.5754868   1.8160439  )
        36           Pt  tau(  36) = (   0.9987844   0.5735287   1.8116328  )
        37           O   tau(  37) = (   0.6476845   0.0143368   2.0702335  )
        38           C   tau(  38) = (   0.5311546  -0.0719157   2.1395124  )
        39           O   tau(  39) = (   0.3693288  -0.0170681   2.1061769  )
        40           C   tau(  40) = (   0.3235785   0.1202757   2.1965846  )
        41           H   tau(  41) = (   0.5273091  -0.1959027   2.1010679  )
        42           H   tau(  42) = (   0.5474178  -0.0643552   2.2678582  )
        43           H   tau(  43) = (   0.2016627   0.1453317   2.1656235  )
        44           H   tau(  44) = (   0.3321153   0.0924655   2.3221565  )
        45           H   tau(  45) = (   0.3981540   0.2214177   2.1693819  )

     number of k points=    13  Marzari-Vanderbilt smearing, width (Ry)=  0.0200
                       cart. coord. in units 2pi/alat
        k(    1) = (   0.0000000   0.0000000   0.0000000), wk =   0.0800000
        k(    2) = (   0.0000000   0.2309401   0.0000000), wk =   0.1600000
        k(    3) = (   0.0000000   0.4618802   0.0000000), wk =   0.1600000
        k(    4) = (   0.2000000  -0.1154701   0.0000000), wk =   0.1600000
        k(    5) = (   0.2000000   0.1154701   0.0000000), wk =   0.1600000
        k(    6) = (   0.2000000   0.3464102   0.0000000), wk =   0.1600000
        k(    7) = (   0.2000000  -0.5773503   0.0000000), wk =   0.1600000
        k(    8) = (   0.2000000  -0.3464102   0.0000000), wk =   0.1600000
        k(    9) = (   0.4000000  -0.2309401   0.0000000), wk =   0.1600000
        k(   10) = (   0.4000000  -0.0000000   0.0000000), wk =   0.1600000
        k(   11) = (   0.4000000   0.2309401   0.0000000), wk =   0.1600000
        k(   12) = (   0.4000000  -0.6928203   0.0000000), wk =   0.1600000
        k(   13) = (   0.4000000  -0.4618802   0.0000000), wk =   0.1600000

     Dense  grid:   745277 G-vectors     FFT dimensions: (  80,  80, 270)

     Estimated max dynamical RAM per process >       9.20 GB

     Check: negative core charge=   -0.000002

     Initial potential from superposition of free atoms

     starting charge  384.99376, renormalised to  385.00000

     negative rho (up, down):  1.218E-02 0.000E+00


     %%%%%%%%%%%%%%%%%%%%%%%%%%%%%%%%%%%%%%%%%%%%%%%%%%%%%%%%%%%%%%%%%%%%%%%%
     %                                                                      %
     % You are using vdW-DF, which was implemented by the Thonhauser group. %
     % Please cite the following two papers that made this development      %
     % possible and the two reviews that describe the various versions:     %
     %                                                                      %
     %   T. Thonhauser et al., PRL 115, 136402 (2015).                      %
     %   T. Thonhauser et al., PRB 76, 125112 (2007).                       %
     %   K. Berland et al., Rep. Prog. Phys. 78, 066501 (2015).             %
     %   D.C. Langreth et al., J. Phys.: Condens. Matter 21, 084203 (2009). %
     %                                                                      %
     %                                                                      %
     % If you are calculating the stress with vdW-DF, please also cite:     %
     %                                                                      %
     %   R. Sabatini et al., J. Phys.: Condens. Matter 24, 424209 (2012).   %
     %                                                                      %
     %%%%%%%%%%%%%%%%%%%%%%%%%%%%%%%%%%%%%%%%%%%%%%%%%%%%%%%%%%%%%%%%%%%%%%%%


     Starting wfcs are  345 randomized atomic wfcs
     Checking if some PAW data can be deallocated... 

     total cpu time spent up to now is      396.5 secs

     Self-consistent Calculation

     iteration #  1     ecut=    60.00 Ry     beta= 0.70
     Davidson diagonalization with overlap
     ethr =  1.00E-02,  avg # of iterations =  2.7

     Threshold (ethr) on eigenvalues was too large:
     Diagonalizing with lowered threshold

     Davidson diagonalization with overlap
     ethr =  7.29E-04,  avg # of iterations =  2.8

     negative rho (up, down):  1.190E-02 0.000E+00

     total cpu time spent up to now is     1954.9 secs

     total energy              =  -27883.06794892 Ry
     estimated scf accuracy    <       2.99169539 Ry

     iteration #  2     ecut=    60.00 Ry     beta= 0.70
     Davidson diagonalization with overlap
     ethr =  7.77E-04,  avg # of iterations =  6.5

     negative rho (up, down):  1.006E-02 0.000E+00

     total cpu time spent up to now is     2702.6 secs

     total energy              =  -27883.20251970 Ry
     estimated scf accuracy    <       1.17972242 Ry

     iteration #  3     ecut=    60.00 Ry     beta= 0.70
     Davidson diagonalization with overlap
     ethr =  3.06E-04,  avg # of iterations =  8.2

     negative rho (up, down):  6.550E-03 0.000E+00

     total cpu time spent up to now is     3496.0 secs

     total energy              =  -27883.23863274 Ry
     estimated scf accuracy    <       0.40730623 Ry

     iteration #  4     ecut=    60.00 Ry     beta= 0.70
     Davidson diagonalization with overlap
     c_bands:  3 eigenvalues not converged
     c_bands:  2 eigenvalues not converged
     ethr =  1.06E-04,  avg # of iterations = 11.8

     negative rho (up, down):  5.098E-03 0.000E+00

     total cpu time spent up to now is     4423.1 secs

     total energy              =  -27883.29228259 Ry
     estimated scf accuracy    <       0.21256894 Ry

     iteration #  5     ecut=    60.00 Ry     beta= 0.70
     Davidson diagonalization with overlap
     ethr =  5.52E-05,  avg # of iterations =  4.8

     negative rho (up, down):  3.191E-03 0.000E+00

     total cpu time spent up to now is     5176.7 secs

     total energy              =  -27883.29577752 Ry
     estimated scf accuracy    <       0.04278429 Ry

     iteration #  6     ecut=    60.00 Ry     beta= 0.70
     Davidson diagonalization with overlap
     c_bands:  1 eigenvalues not converged
     c_bands:  1 eigenvalues not converged
     c_bands:  1 eigenvalues not converged
     c_bands:  1 eigenvalues not converged
     c_bands:  1 eigenvalues not converged
     c_bands:  1 eigenvalues not converged
     c_bands:  1 eigenvalues not converged
     ethr =  1.11E-05,  avg # of iterations = 16.8

     negative rho (up, down):  2.775E-03 0.000E+00

     total cpu time spent up to now is     6331.0 secs

     total energy              =  -27883.30577744 Ry
     estimated scf accuracy    <       0.05529864 Ry

     iteration #  7     ecut=    60.00 Ry     beta= 0.70
     Davidson diagonalization with overlap
     ethr =  1.11E-05,  avg # of iterations =  3.7

     negative rho (up, down):  3.036E-03 0.000E+00

     total cpu time spent up to now is     7036.1 secs

     total energy              =  -27883.30546033 Ry
     estimated scf accuracy    <       0.03143231 Ry

     iteration #  8     ecut=    60.00 Ry     beta= 0.70
     Davidson diagonalization with overlap
     c_bands:  1 eigenvalues not converged
     c_bands:  1 eigenvalues not converged
     c_bands:  1 eigenvalues not converged
     ethr =  8.16E-06,  avg # of iterations = 15.5

     negative rho (up, down):  3.733E-03 0.000E+00

     total cpu time spent up to now is     7890.2 secs

     total energy              =  -27883.30623042 Ry
     estimated scf accuracy    <       0.01030922 Ry

     iteration #  9     ecut=    60.00 Ry     beta= 0.70
     Davidson diagonalization with overlap
     c_bands:  1 eigenvalues not converged
     c_bands:  1 eigenvalues not converged
     ethr =  2.68E-06,  avg # of iterations =  9.5

     negative rho (up, down):  6.214E-03 0.000E+00

     total cpu time spent up to now is     8654.0 secs

     total energy              =  -27883.30649674 Ry
     estimated scf accuracy    <       0.00420503 Ry

     iteration # 10     ecut=    60.00 Ry     beta= 0.70
     Davidson diagonalization with overlap
     c_bands:  1 eigenvalues not converged
     ethr =  1.09E-06,  avg # of iterations = 11.0

     negative rho (up, down):  7.842E-03 0.000E+00

     total cpu time spent up to now is     9459.9 secs

     total energy              =  -27883.30665197 Ry
     estimated scf accuracy    <       0.00205025 Ry

     iteration # 11     ecut=    60.00 Ry     beta= 0.70
     Davidson diagonalization with overlap
     ethr =  5.33E-07,  avg # of iterations =  2.5

     negative rho (up, down):  8.587E-03 0.000E+00

     total cpu time spent up to now is    10156.1 secs

     total energy              =  -27883.30679260 Ry
     estimated scf accuracy    <       0.00095205 Ry

     iteration # 12     ecut=    60.00 Ry     beta= 0.70
     Davidson diagonalization with overlap
     ethr =  2.47E-07,  avg # of iterations =  3.1

     negative rho (up, down):  8.367E-03 0.000E+00

     total cpu time spent up to now is    10854.2 secs

     total energy              =  -27883.30687815 Ry
     estimated scf accuracy    <       0.00053349 Ry

     iteration # 13     ecut=    60.00 Ry     beta= 0.70
     Davidson diagonalization with overlap
     ethr =  1.39E-07,  avg # of iterations =  2.4

     negative rho (up, down):  9.860E-03 0.000E+00

     total cpu time spent up to now is    11557.8 secs

     total energy              =  -27883.30691364 Ry
     estimated scf accuracy    <       0.00022767 Ry

     iteration # 14     ecut=    60.00 Ry     beta= 0.70
     Davidson diagonalization with overlap
     ethr =  5.91E-08,  avg # of iterations =  2.6

     negative rho (up, down):  9.795E-03 0.000E+00

     total cpu time spent up to now is    12282.0 secs

     total energy              =  -27883.30692797 Ry
     estimated scf accuracy    <       0.00015336 Ry

     iteration # 15     ecut=    60.00 Ry     beta= 0.70
     Davidson diagonalization with overlap
     ethr =  3.98E-08,  avg # of iterations =  1.8

     negative rho (up, down):  1.106E-02 0.000E+00

     total cpu time spent up to now is    12953.9 secs

     total energy              =  -27883.30692131 Ry
     estimated scf accuracy    <       0.00008515 Ry

     iteration # 16     ecut=    60.00 Ry     beta= 0.70
     Davidson diagonalization with overlap
     ethr =  2.21E-08,  avg # of iterations =  2.0

     negative rho (up, down):  1.209E-02 0.000E+00

     total cpu time spent up to now is    13659.1 secs

     total energy              =  -27883.30691338 Ry
     estimated scf accuracy    <       0.00004843 Ry

     iteration # 17     ecut=    60.00 Ry     beta= 0.70
     Davidson diagonalization with overlap
     ethr =  1.26E-08,  avg # of iterations =  2.0

     negative rho (up, down):  1.252E-02 0.000E+00

     total cpu time spent up to now is    14353.0 secs

     total energy              =  -27883.30691716 Ry
     estimated scf accuracy    <       0.00002737 Ry

     iteration # 18     ecut=    60.00 Ry     beta= 0.70
     Davidson diagonalization with overlap
     ethr =  7.11E-09,  avg # of iterations =  2.0

     negative rho (up, down):  1.317E-02 0.000E+00

     total cpu time spent up to now is    15084.5 secs

     total energy              =  -27883.30691920 Ry
     estimated scf accuracy    <       0.00002002 Ry

     iteration # 19     ecut=    60.00 Ry     beta= 0.70
     Davidson diagonalization with overlap
     ethr =  5.20E-09,  avg # of iterations =  1.3

     negative rho (up, down):  1.349E-02 0.000E+00

     total cpu time spent up to now is    15735.2 secs

     total energy              =  -27883.30691964 Ry
     estimated scf accuracy    <       0.00000494 Ry

     iteration # 20     ecut=    60.00 Ry     beta= 0.70
     Davidson diagonalization with overlap
     ethr =  1.28E-09,  avg # of iterations =  4.1

     negative rho (up, down):  1.380E-02 0.000E+00

     total cpu time spent up to now is    16648.4 secs

     total energy              =  -27883.30692027 Ry
     estimated scf accuracy    <       0.00000309 Ry

     iteration # 21     ecut=    60.00 Ry     beta= 0.70
     Davidson diagonalization with overlap
     ethr =  8.04E-10,  avg # of iterations =  2.0

     negative rho (up, down):  1.396E-02 0.000E+00

     total cpu time spent up to now is    17328.7 secs

     End of self-consistent calculation

          k = 0.0000 0.0000 0.0000 ( 93155 PWs)   bands (ev):

   -19.9425 -18.0541 -11.1904  -9.0968  -7.0683  -6.1308  -5.7110  -5.5984
    -5.2199  -4.6852  -4.6589  -4.6478  -4.6442  -4.6311  -4.6238  -4.6131
    -4.6111  -4.1160  -4.0990  -4.0895  -4.0819  -4.0803  -4.0714  -3.9523
    -3.7205  -3.6329  -3.6196  -3.6148  -3.6021  -3.6018  -3.5815  -3.4038
    -3.3986  -3.3936  -3.3922  -3.3809  -3.3486  -3.1872  -3.1734  -3.1715
    -3.1672  -3.1656  -3.1597  -3.1575  -3.1470  -3.1427  -3.1361  -3.1243
    -3.1013  -2.7233  -2.5585  -2.5493  -2.5386  -2.5354  -2.5059  -2.4838
    -2.4757  -2.4673  -2.4620  -2.4457  -2.3307  -2.2943  -2.2486  -2.1389
    -1.8587  -1.7777  -1.7378  -1.7256  -1.7223  -1.7042  -1.6739  -1.6218
    -1.5733  -1.5541  -1.5522  -1.5421  -1.5290  -1.5232  -1.5163  -1.4959
    -1.4936  -1.4865  -1.4829  -1.4664  -1.4516  -1.4483  -1.3809  -1.3240
    -1.3188  -1.3009  -1.2944  -1.2869  -1.1916  -1.1647  -1.1509  -1.1405
    -1.1304  -1.1125  -1.1043  -1.0738  -1.0625  -1.0017  -0.9834  -0.9581
    -0.9550  -0.9367  -0.8734  -0.8716  -0.8343  -0.8313  -0.8114  -0.7915
    -0.7028  -0.6897  -0.6820  -0.6715  -0.6507  -0.4668  -0.3800  -0.3200
    -0.2233  -0.2136  -0.1968  -0.1924  -0.1848  -0.1775  -0.1373  -0.1155
    -0.1108  -0.0868  -0.0485  -0.0170   0.0142   0.0334   0.1055   0.1291
     0.1329   0.1681   0.2093   0.2337   0.2800   0.2911   0.3048   0.3064
     0.3100   0.4287   0.5254   0.5456   0.5468   0.5589   0.5664   0.6113
     0.6231   0.6738   0.8064   0.8097   0.8201   0.8301   0.8496   0.8741
     0.9481   0.9574   0.9817   0.9900   0.9984   1.0116   1.0178   1.0262
     1.0414   1.0519   1.0900   1.1186   1.1257   1.1339   1.1544   1.1741
     1.1840   1.2121   1.2269   1.2330   1.2384   1.2623   1.2730   1.2810
     1.2856   1.3105   1.3299   1.3700   1.3773   1.3806   1.3844   1.4013
     1.4093   1.4133   1.4932   1.4984   1.5062   1.5203   1.5216   1.6164
     1.7067   1.7208   1.7975   1.8137   1.8253   1.8378   1.8402   1.8466
     1.9431   2.6674   2.7090   2.7228   2.7355   2.7569   2.9791   3.5605
     5.0228   5.0283   5.0481   5.0656   5.2247   5.5758   5.7445   6.4530
     6.5872   6.5949   6.6288   6.6353   6.6493   6.6610   6.8197   7.0428

          k = 0.0000 0.2309 0.0000 ( 93154 PWs)   bands (ev):

   -19.9425 -18.0541 -11.1906  -9.0964  -6.9226  -6.1103  -5.6371  -5.5490
    -5.2267  -5.1422  -4.7478  -4.7455  -4.5404  -4.4961  -4.4459  -4.4029
    -4.3977  -4.2121  -4.1728  -4.0616  -4.0294  -4.0175  -4.0067  -3.9186
    -3.7236  -3.6958  -3.5891  -3.5856  -3.5722  -3.5573  -3.4931  -3.4880
    -3.4313  -3.4234  -3.4129  -3.4039  -3.3529  -3.3070  -3.3007  -3.1985
    -3.1880  -3.1733  -3.1509  -3.1440  -2.9876  -2.9645  -2.9578  -2.9423
    -2.9178  -2.7653  -2.6829  -2.6619  -2.6226  -2.6016  -2.5843  -2.5539
    -2.5052  -2.3778  -2.3753  -2.3057  -2.3002  -2.2681  -2.2423  -2.1772
    -2.0287  -1.9496  -1.9098  -1.8778  -1.8503  -1.8095  -1.7822  -1.7408
    -1.7321  -1.6987  -1.6913  -1.6779  -1.6277  -1.6059  -1.5496  -1.5358
    -1.5242  -1.4906  -1.4470  -1.4388  -1.4126  -1.3770  -1.3632  -1.3480
    -1.2905  -1.2604  -1.2507  -1.2439  -1.2195  -1.1964  -1.1712  -1.1467
    -1.1396  -1.1168  -1.0950  -1.0736  -1.0189  -1.0135  -0.9958  -0.9707
    -0.9624  -0.9251  -0.9190  -0.8931  -0.8663  -0.8620  -0.7848  -0.7527
    -0.7141  -0.7031  -0.6831  -0.6654  -0.6501  -0.6395  -0.6022  -0.5944
    -0.5751  -0.5670  -0.4766  -0.3729  -0.2998  -0.2607  -0.2395  -0.1911
    -0.1689  -0.1549  -0.1398  -0.1215  -0.0944  -0.0145   0.0242   0.0635
     0.1425   0.1805   0.2112   0.2230   0.2349   0.2399   0.3019   0.3131
     0.3286   0.3929   0.4048   0.4268   0.4468   0.4526   0.4904   0.6338
     0.6513   0.6623   0.6783   0.6893   0.7368   0.7714   0.8171   0.8327
     0.8383   0.8790   0.8969   0.9102   0.9302   0.9446   0.9677   1.0467
     1.0651   1.1045   1.1522   1.1724   1.2093   1.2131   1.2224   1.2475
     1.2630   1.2898   1.3450   1.3616   1.3913   1.4242   1.4359   1.4463
     1.4715   1.4786   1.4856   1.4982   1.5199   1.5468   1.5767   1.6749
     1.7002   1.7182   1.7294   1.7404   1.7683   1.7890   1.8072   1.8274
     1.8396   1.8808   1.9446   1.9545   1.9732   2.1217   2.1334   2.1429
     2.1699   2.4492   2.6789   2.8026   3.3149   3.4228   3.4338   3.7705
     4.4808   4.8393   4.9571   5.4518   5.4579   5.6327   5.7150   5.8479
     6.0340   6.4178   6.4451   6.5483   6.6652   6.8112   6.8348   6.9493

          k = 0.0000 0.4619 0.0000 ( 93222 PWs)   bands (ev):

   -19.9425 -18.0541 -11.1909  -9.0959  -6.5077  -6.0989  -5.8326  -5.6151
    -5.2345  -5.1759  -4.7809  -4.7768  -4.6490  -4.4213  -4.2673  -4.1562
    -4.1144  -4.0753  -4.0605  -4.0062  -3.9036  -3.8773  -3.8462  -3.8434
    -3.8115  -3.7295  -3.6936  -3.6748  -3.6612  -3.6192  -3.5978  -3.5851
    -3.5386  -3.4865  -3.4815  -3.4734  -3.2267  -3.2229  -3.2173  -3.2084
    -3.1933  -3.1830  -2.9842  -2.9665  -2.9472  -2.9320  -2.9275  -2.9074
    -2.7698  -2.6875  -2.6446  -2.6213  -2.6175  -2.5902  -2.5561  -2.5193
    -2.4937  -2.4771  -2.4519  -2.4215  -2.3807  -2.2847  -2.2730  -2.2365
    -2.2297  -2.1211  -2.0952  -2.0684  -2.0522  -2.0350  -1.8960  -1.8568
    -1.8362  -1.8119  -1.8051  -1.7490  -1.7089  -1.6937  -1.6562  -1.6048
    -1.5787  -1.5593  -1.5219  -1.4664  -1.4540  -1.4343  -1.4254  -1.4108
    -1.3849  -1.3473  -1.3310  -1.3258  -1.3170  -1.3133  -1.3040  -1.2680
    -1.2183  -1.2092  -1.1682  -1.1567  -1.1434  -1.1310  -1.1085  -1.0120
    -0.9921  -0.9669  -0.9360  -0.9104  -0.8768  -0.8663  -0.8417  -0.8177
    -0.7640  -0.7239  -0.7046  -0.6813  -0.6209  -0.5918  -0.5827  -0.5050
    -0.4534  -0.4256  -0.4081  -0.3398  -0.3227  -0.2819  -0.2587  -0.2365
    -0.2220  -0.2045  -0.1721  -0.1380  -0.1246  -0.1114  -0.0934  -0.0731
    -0.0508  -0.0423  -0.0045   0.0178   0.0659   0.1085   0.1223   0.1399
     0.2056   0.2405   0.3183   0.3265   0.3940   0.4385   0.4704   0.5362
     0.6011   0.6176   0.6491   0.6679   0.6796   0.7074   0.7211   0.7714
     0.8014   0.8340   0.8402   0.8826   0.9490   0.9541   0.9661   0.9900
     1.0106   1.0298   1.1576   1.2045   1.2267   1.2429   1.2603   1.2780
     1.2903   1.3718   1.3883   1.4135   1.4828   1.5017   1.5243   1.5559
     1.5763   1.5863   1.6084   1.6572   1.7115   1.7243   1.7299   1.7422
     1.7602   1.7786   1.8108   1.9394   1.9448   1.9781   1.9880   2.0200
     2.1510   2.2000   2.2113   2.6456   2.6827   2.7559   3.0169   3.0309
     3.1044   3.4277   3.4329   3.7521   3.7868   4.2355   4.2434   4.2927
     4.4576   4.5509   4.5793   4.7635   4.8682   4.9236   4.9792   5.5611
     5.6798   6.1043   6.1131   6.1535   6.5530   6.6154   6.6827   6.8869

          k = 0.2000-0.1155 0.0000 ( 93154 PWs)   bands (ev):

   -19.9425 -18.0541 -11.1905  -9.0964  -6.9227  -6.1097  -5.6358  -5.5545
    -5.2463  -5.1150  -4.7542  -4.7445  -4.5400  -4.4955  -4.4460  -4.4023
    -4.3973  -4.2131  -4.1759  -4.0583  -4.0236  -4.0140  -4.0046  -3.9241
    -3.7328  -3.6932  -3.5919  -3.5830  -3.5679  -3.5436  -3.4946  -3.4872
    -3.4389  -3.4263  -3.4085  -3.4002  -3.3539  -3.3129  -3.3011  -3.1983
    -3.1922  -3.1743  -3.1515  -3.1457  -2.9837  -2.9646  -2.9555  -2.9458
    -2.9222  -2.7701  -2.6848  -2.6654  -2.6159  -2.5984  -2.5812  -2.5577
    -2.5034  -2.3866  -2.3710  -2.3130  -2.2971  -2.2654  -2.2426  -2.1806
    -2.0253  -1.9378  -1.9181  -1.8883  -1.8437  -1.8164  -1.7836  -1.7388
    -1.7289  -1.6985  -1.6925  -1.6842  -1.6240  -1.5986  -1.5587  -1.5457
    -1.5190  -1.4805  -1.4512  -1.4347  -1.4200  -1.3834  -1.3668  -1.3431
    -1.2737  -1.2631  -1.2526  -1.2387  -1.2147  -1.1795  -1.1623  -1.1468
    -1.1425  -1.1197  -1.0991  -1.0629  -1.0203  -1.0087  -0.9783  -0.9725
    -0.9401  -0.9281  -0.9219  -0.9040  -0.8735  -0.8609  -0.8005  -0.7496
    -0.7230  -0.7199  -0.6781  -0.6689  -0.6494  -0.6352  -0.6050  -0.5928
    -0.5755  -0.5605  -0.4446  -0.3939  -0.3248  -0.2764  -0.2452  -0.2023
    -0.1786  -0.1516  -0.1381  -0.1247  -0.0885   0.0059   0.0348   0.0707
     0.1168   0.1927   0.1972   0.2215   0.2366   0.2622   0.2920   0.3284
     0.3407   0.3795   0.3958   0.4314   0.4375   0.4570   0.4809   0.6329
     0.6499   0.6636   0.6808   0.6929   0.7315   0.7563   0.8083   0.8246
     0.8458   0.8617   0.9053   0.9239   0.9382   0.9470   0.9753   1.0461
     1.0651   1.1050   1.1670   1.1856   1.2074   1.2163   1.2247   1.2451
     1.2627   1.2898   1.3501   1.3610   1.3753   1.4190   1.4301   1.4589
     1.4664   1.4794   1.4876   1.4991   1.5151   1.5390   1.5710   1.6636
     1.7033   1.7258   1.7336   1.7420   1.7598   1.7892   1.8128   1.8235
     1.8445   1.8745   1.9396   1.9598   1.9708   2.1224   2.1327   2.1446
     2.2419   2.3824   2.6482   2.8626   3.3222   3.3500   3.4801   3.8149
     4.4126   4.8007   5.0402   5.4528   5.4556   5.6228   5.7463   5.8441
     6.0171   6.4220   6.4360   6.5598   6.6633   6.8135   6.8324   6.9488

          k = 0.2000 0.1155 0.0000 ( 93154 PWs)   bands (ev):

   -19.9425 -18.0541 -11.1903  -9.0968  -6.9228  -6.1107  -5.6431  -5.5466
    -5.2364  -5.1257  -4.7537  -4.7444  -4.5390  -4.4953  -4.4456  -4.4018
    -4.3993  -4.2137  -4.1764  -4.0453  -4.0307  -4.0133  -4.0030  -3.9307
    -3.7150  -3.6984  -3.5926  -3.5856  -3.5644  -3.5587  -3.4932  -3.4894
    -3.4372  -3.4259  -3.4086  -3.4055  -3.3513  -3.3114  -3.2985  -3.1983
    -3.1860  -3.1750  -3.1492  -3.1471  -2.9753  -2.9658  -2.9578  -2.9515
    -2.9185  -2.7509  -2.6836  -2.6586  -2.6395  -2.6073  -2.5871  -2.5652
    -2.5042  -2.3992  -2.3695  -2.3090  -2.2930  -2.2603  -2.2438  -2.1663
    -2.0231  -1.9533  -1.9233  -1.8788  -1.8483  -1.8131  -1.7767  -1.7567
    -1.7272  -1.7009  -1.6878  -1.6772  -1.6236  -1.5954  -1.5604  -1.5374
    -1.5246  -1.4798  -1.4476  -1.4365  -1.4151  -1.3865  -1.3646  -1.3289
    -1.2910  -1.2632  -1.2554  -1.2479  -1.2284  -1.1755  -1.1543  -1.1497
    -1.1363  -1.1191  -1.0959  -1.0678  -1.0230  -1.0050  -0.9784  -0.9741
    -0.9584  -0.9381  -0.9088  -0.8960  -0.8654  -0.8523  -0.7853  -0.7467
    -0.7228  -0.7055  -0.6811  -0.6711  -0.6544  -0.6256  -0.6025  -0.5914
    -0.5710  -0.5705  -0.5264  -0.3834  -0.3172  -0.2631  -0.2473  -0.1964
    -0.1625  -0.1476  -0.1405  -0.1175  -0.0909  -0.0322   0.0307   0.0609
     0.1504   0.1679   0.2064   0.2244   0.2370   0.2575   0.2971   0.3083
     0.3470   0.3932   0.4108   0.4265   0.4490   0.4603   0.5166   0.6330
     0.6554   0.6626   0.6771   0.7047   0.7238   0.7413   0.8111   0.8373
     0.8419   0.8593   0.9067   0.9155   0.9264   0.9467   0.9782   1.0529
     1.0727   1.1000   1.1362   1.1823   1.2079   1.2143   1.2363   1.2529
     1.2755   1.2872   1.3463   1.3628   1.3827   1.4221   1.4347   1.4534
     1.4673   1.4803   1.4874   1.4899   1.5132   1.5446   1.5835   1.6808
     1.7054   1.7188   1.7288   1.7347   1.7577   1.7845   1.7952   1.8198
     1.8445   1.8692   1.9437   1.9506   1.9725   2.1192   2.1325   2.1432
     2.2575   2.3705   2.6383   2.8651   3.3222   3.3514   3.4811   3.8170
     4.4141   4.7969   5.0312   5.4525   5.4568   5.6305   5.7314   5.8498
     6.0201   6.4226   6.4452   6.5578   6.6550   6.8132   6.8200   6.8987

          k = 0.2000 0.3464 0.0000 ( 93138 PWs)   bands (ev):

   -19.9425 -18.0541 -11.1905  -9.0964  -6.6415  -6.0926  -5.6258  -5.4176
    -5.3917  -5.3061  -5.1879  -4.3294  -4.3253  -4.3134  -4.3089  -4.2612
    -4.2510  -4.2442  -4.2340  -4.1382  -4.1282  -3.9659  -3.7829  -3.7533
    -3.7395  -3.7242  -3.6902  -3.6643  -3.6269  -3.5134  -3.4930  -3.4850
    -3.4769  -3.4684  -3.3875  -3.3422  -3.3350  -3.3177  -3.3142  -3.2502
    -3.2179  -3.2054  -3.1696  -3.1557  -3.0830  -2.8457  -2.7945  -2.7406
    -2.7203  -2.6977  -2.6897  -2.6825  -2.6650  -2.6444  -2.6059  -2.5551
    -2.4546  -2.4445  -2.3973  -2.3506  -2.3190  -2.2693  -2.2586  -2.2466
    -2.1807  -2.1667  -2.0351  -2.0024  -1.9758  -1.9136  -1.8955  -1.8563
    -1.8486  -1.8407  -1.7944  -1.7751  -1.6691  -1.6274  -1.6085  -1.5958
    -1.5641  -1.5494  -1.5123  -1.5045  -1.4891  -1.4523  -1.4108  -1.3744
    -1.3202  -1.3095  -1.3038  -1.2802  -1.2750  -1.2430  -1.2337  -1.2207
    -1.1868  -1.1507  -1.1258  -1.1015  -1.0517  -1.0442  -1.0208  -0.9866
    -0.9600  -0.9502  -0.9150  -0.9054  -0.8901  -0.8672  -0.8491  -0.8351
    -0.8285  -0.8090  -0.7639  -0.7621  -0.7186  -0.6623  -0.6508  -0.6366
    -0.5770  -0.5380  -0.5185  -0.4579  -0.3628  -0.3505  -0.3058  -0.2640
    -0.1942  -0.1748  -0.1424  -0.1284  -0.1108  -0.0948  -0.0739  -0.0464
    -0.0005   0.0077   0.0377   0.0823   0.1557   0.1901   0.2669   0.2776
     0.2905   0.3143   0.3428   0.3828   0.4236   0.4782   0.4972   0.5277
     0.5642   0.5748   0.6274   0.7028   0.7125   0.7371   0.7524   0.7913
     0.8039   0.8133   0.8221   0.8430   0.8524   0.8617   0.8861   0.9388
     1.0433   1.0894   1.1100   1.1936   1.2279   1.2586   1.3625   1.3746
     1.4100   1.4321   1.4913   1.5054   1.5176   1.5351   1.5446   1.5666
     1.5757   1.5921   1.6150   1.6355   1.6468   1.6702   1.7240   1.7575
     1.7753   1.7963   1.8004   1.8431   1.8751   1.9931   2.0344   2.0509
     2.1035   2.1202   2.1658   2.2603   2.2730   2.4027   2.7890   2.7985
     2.9440   3.3212   3.3356   3.4237   3.4893   4.0372   4.1117   4.2520
     4.2940   4.3371   4.6434   4.9746   5.4382   5.5397   5.6141   5.6953
     6.0108   6.1694   6.1943   6.2655   6.3024   6.3566   6.5359   6.7049

          k = 0.2000-0.5774 0.0000 ( 93134 PWs)   bands (ev):

   -19.9425 -18.0541 -11.1908  -9.0958  -6.1978  -6.1070  -5.9731  -5.6195
    -5.4847  -5.2019  -4.8551  -4.8086  -4.3324  -4.3212  -4.1866  -4.1527
    -4.0640  -4.0350  -3.9816  -3.9360  -3.9236  -3.8430  -3.8137  -3.7992
    -3.7829  -3.7651  -3.7530  -3.7344  -3.6860  -3.6075  -3.5986  -3.5698
    -3.5480  -3.5423  -3.4762  -3.3884  -3.3435  -3.2892  -3.2047  -3.1896
    -3.1847  -3.1726  -3.1482  -3.0681  -3.0554  -2.9619  -2.9524  -2.7968
    -2.7589  -2.7482  -2.6735  -2.6182  -2.5838  -2.5534  -2.5094  -2.4356
    -2.4017  -2.3755  -2.3574  -2.3243  -2.2874  -2.2668  -2.2492  -2.1736
    -2.1489  -2.1369  -2.1183  -2.1081  -2.0970  -2.0869  -2.0529  -2.0126
    -1.9261  -1.8838  -1.8480  -1.8331  -1.7316  -1.7009  -1.6831  -1.6724
    -1.6444  -1.6112  -1.6005  -1.5756  -1.5243  -1.5091  -1.4786  -1.4594
    -1.4433  -1.4084  -1.3792  -1.3394  -1.3077  -1.2753  -1.2481  -1.2405
    -1.1601  -1.1423  -1.1181  -1.0697  -1.0503  -1.0426  -1.0066  -0.9922
    -0.9753  -0.9611  -0.9337  -0.9239  -0.9011  -0.8911  -0.8624  -0.8388
    -0.8305  -0.8223  -0.8160  -0.7908  -0.7748  -0.7589  -0.7230  -0.6882
    -0.5650  -0.4598  -0.4434  -0.4069  -0.3920  -0.3425  -0.3032  -0.2897
    -0.2625  -0.2102  -0.1944  -0.1759  -0.1585  -0.1345  -0.1137  -0.0696
    -0.0412  -0.0077   0.0429   0.0746   0.1023   0.1261   0.1544   0.2415
     0.2915   0.3312   0.3570   0.3921   0.4167   0.4566   0.4869   0.5045
     0.5150   0.5282   0.5607   0.5798   0.6110   0.6779   0.7161   0.7195
     0.7375   0.7584   0.7896   0.8088   0.8168   0.8947   0.9462   1.0498
     1.0928   1.1103   1.1926   1.1996   1.2159   1.2943   1.3322   1.3445
     1.3988   1.4560   1.5051   1.5195   1.5445   1.5550   1.5689   1.5849
     1.6290   1.6461   1.7076   1.7176   1.7327   1.7525   1.7649   1.7692
     1.8368   1.8449   1.9516   1.9652   1.9807   1.9896   2.0154   2.0495
     2.1421   2.1750   2.3108   2.4757   3.1327   3.1382   3.3281   3.4301
     3.5241   3.5379   3.5626   3.7465   4.1084   4.1488   4.1697   4.6110
     4.6428   4.7396   4.7502   4.7688   4.9738   5.0544   5.1154   5.3901
     5.5334   5.5977   5.7215   6.1808   6.2301   6.2434   6.3781   6.4111

          k = 0.2000-0.3464 0.0000 ( 93138 PWs)   bands (ev):

   -19.9425 -18.0541 -11.1908  -9.0958  -6.6412  -6.0913  -5.6196  -5.4197
    -5.3955  -5.3196  -5.1755  -4.3286  -4.3242  -4.3185  -4.3065  -4.2621
    -4.2532  -4.2414  -4.2348  -4.1367  -4.1301  -3.9676  -3.7845  -3.7564
    -3.7361  -3.7329  -3.6927  -3.6590  -3.6215  -3.5118  -3.4919  -3.4852
    -3.4769  -3.4659  -3.3926  -3.3399  -3.3322  -3.3213  -3.3117  -3.2476
    -3.2194  -3.2085  -3.1721  -3.1531  -3.0954  -2.8312  -2.8139  -2.7421
    -2.7287  -2.7049  -2.6948  -2.6812  -2.6743  -2.6200  -2.6080  -2.4887
    -2.4480  -2.4407  -2.4235  -2.3480  -2.3231  -2.2768  -2.2575  -2.2513
    -2.1937  -2.1610  -2.0171  -1.9953  -1.9756  -1.9468  -1.8835  -1.8639
    -1.8494  -1.8414  -1.7970  -1.7743  -1.6512  -1.6393  -1.6130  -1.5946
    -1.5702  -1.5477  -1.5266  -1.4918  -1.4735  -1.4589  -1.4216  -1.3632
    -1.3273  -1.3109  -1.2989  -1.2813  -1.2737  -1.2483  -1.2220  -1.2022
    -1.1878  -1.1555  -1.1394  -1.0787  -1.0681  -1.0349  -1.0208  -0.9989
    -0.9605  -0.9388  -0.9292  -0.9092  -0.8936  -0.8640  -0.8455  -0.8392
    -0.8225  -0.7980  -0.7774  -0.7618  -0.7249  -0.6606  -0.6441  -0.6139
    -0.5963  -0.5322  -0.5191  -0.4423  -0.3628  -0.3320  -0.3120  -0.2823
    -0.1896  -0.1742  -0.1520  -0.1204  -0.1067  -0.0891  -0.0816  -0.0381
    -0.0230   0.0234   0.0431   0.0673   0.1191   0.1876   0.2638   0.2745
     0.3052   0.3163   0.3481   0.3690   0.3961   0.4899   0.4975   0.5164
     0.5580   0.5760   0.6396   0.6946   0.7163   0.7262   0.7456   0.7831
     0.8076   0.8167   0.8321   0.8415   0.8531   0.8709   0.9000   0.9630
     1.0336   1.0734   1.1403   1.1812   1.2321   1.2618   1.3643   1.3778
     1.4009   1.4152   1.4897   1.5006   1.5180   1.5306   1.5432   1.5675
     1.5722   1.5961   1.6085   1.6349   1.6490   1.6791   1.7251   1.7539
     1.7694   1.7882   1.8060   1.8415   1.9118   1.9985   2.0405   2.0490
     2.1041   2.1198   2.1860   2.2404   2.2731   2.3886   2.7864   2.7962
     2.9476   3.3272   3.3397   3.4186   3.5025   4.0444   4.1166   4.2510
     4.2838   4.3381   4.6410   4.9801   5.4393   5.5492   5.6285   5.6883
     6.0168   6.1529   6.2088   6.2813   6.3065   6.3460   6.5591   6.6922

          k = 0.4000-0.2309 0.0000 ( 93222 PWs)   bands (ev):

   -19.9425 -18.0541 -11.1906  -9.0958  -6.5080  -6.0958  -5.8418  -5.6139
    -5.2688  -5.1341  -4.7868  -4.7790  -4.6417  -4.4189  -4.2649  -4.1593
    -4.1113  -4.0720  -4.0644  -4.0108  -3.8956  -3.8637  -3.8462  -3.8363
    -3.8182  -3.7453  -3.6999  -3.6719  -3.6449  -3.6236  -3.6176  -3.5748
    -3.5348  -3.4868  -3.4820  -3.4674  -3.2282  -3.2239  -3.2139  -3.2061
    -3.1957  -3.1908  -2.9793  -2.9651  -2.9475  -2.9330  -2.9309  -2.9128
    -2.7911  -2.6765  -2.6456  -2.6315  -2.6168  -2.5865  -2.5616  -2.5240
    -2.4907  -2.4841  -2.4571  -2.4220  -2.3892  -2.2863  -2.2626  -2.2390
    -2.2256  -2.1204  -2.0984  -2.0684  -2.0478  -2.0280  -1.8985  -1.8727
    -1.8327  -1.8140  -1.8014  -1.7451  -1.7269  -1.6937  -1.6331  -1.5992
    -1.5882  -1.5655  -1.5209  -1.4603  -1.4443  -1.4320  -1.4156  -1.3908
    -1.3668  -1.3469  -1.3290  -1.3246  -1.3172  -1.3079  -1.2984  -1.2575
    -1.2403  -1.1763  -1.1670  -1.1502  -1.1396  -1.1233  -1.1073  -1.0047
    -0.9905  -0.9513  -0.9432  -0.9287  -0.8924  -0.8529  -0.8490  -0.8369
    -0.7599  -0.7059  -0.6830  -0.6794  -0.6567  -0.6209  -0.5781  -0.5359
    -0.4773  -0.4375  -0.4254  -0.3483  -0.3074  -0.2939  -0.2593  -0.2457
    -0.2231  -0.2032  -0.1818  -0.1425  -0.1296  -0.1129  -0.0952  -0.0782
    -0.0569  -0.0337  -0.0174   0.0315   0.0732   0.1144   0.1397   0.1753
     0.2029   0.2407   0.3138   0.3179   0.3711   0.4388   0.4716   0.5704
     0.5894   0.6346   0.6392   0.6582   0.6948   0.7124   0.7387   0.7712
     0.7949   0.8224   0.8576   0.8737   0.9426   0.9672   0.9796   0.9918
     1.0207   1.0333   1.1311   1.2042   1.2209   1.2440   1.2525   1.2733
     1.2793   1.3738   1.3878   1.4178   1.4853   1.4984   1.5213   1.5537
     1.5781   1.5854   1.6050   1.6717   1.7072   1.7223   1.7360   1.7512
     1.7605   1.7696   1.8202   1.9398   1.9426   1.9792   1.9957   2.0188
     2.1488   2.1815   2.2097   2.6429   2.6725   2.7622   3.0246   3.0326
     3.1473   3.4206   3.4444   3.7488   3.7870   4.2382   4.2437   4.2855
     4.4486   4.5326   4.5793   4.7141   4.8985   4.9123   5.0542   5.5658
     5.6719   6.0732   6.1391   6.1704   6.5638   6.6274   6.6832   6.8883

          k = 0.4000-0.0000 0.0000 ( 93138 PWs)   bands (ev):

   -19.9425 -18.0541 -11.1903  -9.0964  -6.6417  -6.0924  -5.6249  -5.4198
    -5.4022  -5.3160  -5.1661  -4.3330  -4.3210  -4.3139  -4.3011  -4.2719
    -4.2622  -4.2360  -4.2270  -4.1405  -4.1263  -3.9615  -3.7677  -3.7506
    -3.7401  -3.7301  -3.6954  -3.6608  -3.6333  -3.5069  -3.4962  -3.4837
    -3.4764  -3.4673  -3.3885  -3.3533  -3.3244  -3.3183  -3.3093  -3.2523
    -3.2199  -3.2042  -3.1745  -3.1619  -3.0866  -2.8400  -2.7955  -2.7430
    -2.7283  -2.7162  -2.6902  -2.6800  -2.6651  -2.6498  -2.6094  -2.5294
    -2.4643  -2.4438  -2.4040  -2.3493  -2.3210  -2.2705  -2.2527  -2.2275
    -2.1842  -2.1680  -2.0177  -2.0060  -1.9816  -1.9377  -1.8909  -1.8699
    -1.8566  -1.8447  -1.7944  -1.7737  -1.6718  -1.6226  -1.6128  -1.5960
    -1.5621  -1.5455  -1.5237  -1.4989  -1.4859  -1.4531  -1.3990  -1.3593
    -1.3272  -1.3058  -1.2889  -1.2769  -1.2728  -1.2454  -1.2270  -1.2054
    -1.1778  -1.1469  -1.1317  -1.0935  -1.0544  -1.0297  -1.0224  -0.9828
    -0.9682  -0.9262  -0.9155  -0.9048  -0.8817  -0.8687  -0.8571  -0.8387
    -0.8235  -0.8056  -0.7800  -0.7500  -0.7070  -0.6647  -0.6547  -0.6208
    -0.6050  -0.5391  -0.5273  -0.5074  -0.3825  -0.3533  -0.3265  -0.2741
    -0.1896  -0.1707  -0.1374  -0.1207  -0.1056  -0.0839  -0.0624  -0.0533
    -0.0170  -0.0047   0.0473   0.0744   0.1515   0.1952   0.2571   0.2788
     0.2915   0.3217   0.3552   0.3830   0.4119   0.4704   0.5012   0.5441
     0.5556   0.5716   0.6464   0.6901   0.7107   0.7374   0.7657   0.7827
     0.8045   0.8148   0.8293   0.8404   0.8463   0.8771   0.8989   0.9510
     1.0313   1.0669   1.1336   1.1806   1.2062   1.2846   1.3607   1.3842
     1.3903   1.4275   1.4937   1.5051   1.5152   1.5301   1.5533   1.5682
     1.5762   1.5868   1.6165   1.6420   1.6510   1.6695   1.7232   1.7500
     1.7765   1.7879   1.8003   1.8459   1.9026   1.9951   2.0369   2.0541
     2.1009   2.1168   2.1381   2.2521   2.2718   2.4523   2.7829   2.8037
     2.9083   3.3179   3.3426   3.3787   3.5613   4.0382   4.1186   4.2506
     4.3029   4.3825   4.5610   4.9692   5.4389   5.5101   5.6806   5.7152
     6.0222   6.1516   6.1725   6.2766   6.2899   6.3876   6.5303   6.7077

          k = 0.4000 0.2309 0.0000 ( 93222 PWs)   bands (ev):

   -19.9425 -18.0541 -11.1902  -9.0968  -6.5084  -6.0982  -5.8434  -5.6135
    -5.2528  -5.1492  -4.7867  -4.7766  -4.6425  -4.4197  -4.2651  -4.1563
    -4.1120  -4.0727  -4.0632  -3.9876  -3.9188  -3.8649  -3.8473  -3.8341
    -3.8169  -3.7161  -3.7002  -3.6744  -3.6593  -3.6237  -3.6026  -3.5782
    -3.5411  -3.4882  -3.4856  -3.4710  -3.2318  -3.2254  -3.2134  -3.2063
    -3.1998  -3.1884  -2.9738  -2.9655  -2.9427  -2.9325  -2.9208  -2.9118
    -2.7422  -2.7297  -2.6496  -2.6297  -2.6182  -2.6051  -2.5706  -2.5240
    -2.4924  -2.4807  -2.4706  -2.4287  -2.3710  -2.2766  -2.2730  -2.2472
    -2.2250  -2.1212  -2.0913  -2.0729  -2.0456  -2.0342  -1.9004  -1.8492
    -1.8281  -1.8123  -1.8038  -1.7409  -1.7227  -1.6918  -1.6510  -1.6189
    -1.5698  -1.5651  -1.4993  -1.4779  -1.4502  -1.4293  -1.4236  -1.4012
    -1.3777  -1.3486  -1.3300  -1.3198  -1.3176  -1.3089  -1.2976  -1.2607
    -1.2102  -1.1941  -1.1676  -1.1531  -1.1433  -1.1300  -1.1060  -1.0236
    -0.9870  -0.9545  -0.9374  -0.9170  -0.8792  -0.8654  -0.8484  -0.8233
    -0.7329  -0.7080  -0.6926  -0.6853  -0.6600  -0.6134  -0.5788  -0.5005
    -0.4829  -0.4402  -0.3950  -0.3510  -0.3317  -0.2832  -0.2635  -0.2438
    -0.2181  -0.2050  -0.1934  -0.1590  -0.1399  -0.1180  -0.1001  -0.0863
    -0.0713  -0.0409  -0.0199   0.0360   0.0930   0.1118   0.1227   0.1678
     0.2039   0.2926   0.3227   0.3296   0.3942   0.4435   0.4765   0.5485
     0.5904   0.6217   0.6487   0.6610   0.6848   0.7102   0.7258   0.7721
     0.8076   0.8276   0.8482   0.8734   0.9466   0.9597   0.9738   0.9862
     1.0188   1.0396   1.1205   1.2031   1.2297   1.2476   1.2629   1.2672
     1.3032   1.3733   1.3893   1.4325   1.4875   1.5005   1.5255   1.5517
     1.5814   1.5867   1.5988   1.6679   1.7077   1.7239   1.7327   1.7466
     1.7572   1.7684   1.8098   1.9330   1.9413   1.9770   1.9950   2.0084
     2.1510   2.1928   2.2098   2.6291   2.6742   2.7471   3.0178   3.0345
     3.1526   3.4228   3.4433   3.7507   3.7808   4.2363   4.2451   4.2800
     4.4377   4.5464   4.5829   4.7026   4.9004   4.9105   5.0345   5.5600
     5.6800   6.0746   6.1029   6.1749   6.5850   6.6374   6.7395   6.8060

          k = 0.4000-0.6928 0.0000 ( 93134 PWs)   bands (ev):

   -19.9425 -18.0541 -11.1903  -9.0964  -6.2005  -6.0985  -5.9867  -5.6131
    -5.4842  -5.2124  -4.8308  -4.8191  -4.3314  -4.3207  -4.1856  -4.1519
    -4.0611  -4.0446  -3.9804  -3.9340  -3.9286  -3.8238  -3.8083  -3.8001
    -3.7758  -3.7615  -3.7494  -3.7303  -3.7006  -3.6060  -3.5977  -3.5864
    -3.5494  -3.5395  -3.4729  -3.3844  -3.3443  -3.2895  -3.2061  -3.1947
    -3.1840  -3.1731  -3.1515  -3.0677  -3.0554  -2.9659  -2.9437  -2.7771
    -2.7615  -2.7347  -2.7135  -2.6345  -2.5934  -2.5604  -2.5048  -2.4444
    -2.4062  -2.3693  -2.3410  -2.3334  -2.2940  -2.2684  -2.2499  -2.1729
    -2.1529  -2.1329  -2.1196  -2.1095  -2.0978  -2.0906  -2.0356  -2.0206
    -1.9131  -1.8850  -1.8443  -1.8313  -1.7351  -1.7153  -1.6857  -1.6713
    -1.6476  -1.6167  -1.5934  -1.5614  -1.5353  -1.5084  -1.4780  -1.4535
    -1.4168  -1.3926  -1.3774  -1.3455  -1.3025  -1.2780  -1.2560  -1.2324
    -1.1638  -1.1194  -1.0943  -1.0833  -1.0552  -1.0355  -1.0260  -0.9858
    -0.9714  -0.9612  -0.9358  -0.9271  -0.9121  -0.8905  -0.8635  -0.8451
    -0.8314  -0.8244  -0.8180  -0.7870  -0.7729  -0.7361  -0.7250  -0.6874
    -0.5525  -0.5348  -0.4320  -0.4138  -0.3902  -0.3490  -0.3007  -0.2819
    -0.2665  -0.2342  -0.2012  -0.1784  -0.1580  -0.1311  -0.1126  -0.0698
    -0.0357   0.0049   0.0427   0.0698   0.0958   0.1366   0.1451   0.2587
     0.2824   0.3421   0.3675   0.3823   0.4319   0.4550   0.4773   0.4913
     0.5171   0.5289   0.5614   0.5863   0.6380   0.6705   0.7020   0.7266
     0.7404   0.7757   0.7835   0.8107   0.8382   0.9120   0.9423   1.0278
     1.0783   1.1269   1.1692   1.2012   1.2118   1.2856   1.3370   1.3542
     1.3991   1.4706   1.5000   1.5102   1.5426   1.5572   1.5803   1.5921
     1.6095   1.6508   1.6991   1.7173   1.7271   1.7531   1.7704   1.7881
     1.8323   1.8677   1.9383   1.9562   1.9870   1.9952   2.0067   2.0473
     2.1149   2.1761   2.3097   2.4846   3.1342   3.1364   3.3828   3.4226
     3.5212   3.5269   3.5791   3.6739   4.1213   4.1560   4.1881   4.6058
     4.6642   4.7168   4.7481   4.7647   4.9632   5.0560   5.1575   5.3004
     5.5682   5.6040   5.7156   6.1486   6.2323   6.2458   6.3452   6.5992

          k = 0.4000-0.4619 0.0000 ( 93134 PWs)   bands (ev):

   -19.9425 -18.0541 -11.1906  -9.0958  -6.1979  -6.0990  -5.9872  -5.6197
    -5.4706  -5.2236  -4.8300  -4.8162  -4.3343  -4.3204  -4.1846  -4.1516
    -4.0587  -4.0428  -3.9819  -3.9290  -3.9277  -3.8414  -3.8124  -3.8095
    -3.7745  -3.7648  -3.7575  -3.7421  -3.6597  -3.6043  -3.5967  -3.5886
    -3.5549  -3.5412  -3.4710  -3.3824  -3.3434  -3.2891  -3.2102  -3.1958
    -3.1821  -3.1697  -3.1460  -3.0724  -3.0582  -2.9618  -2.9492  -2.7941
    -2.7679  -2.7583  -2.6661  -2.6185  -2.5835  -2.5639  -2.5117  -2.4400
    -2.4066  -2.3671  -2.3545  -2.3314  -2.2923  -2.2662  -2.2464  -2.1786
    -2.1527  -2.1252  -2.1164  -2.1072  -2.0981  -2.0853  -2.0388  -2.0236
    -1.9414  -1.8890  -1.8381  -1.8318  -1.7354  -1.7251  -1.6819  -1.6661
    -1.6355  -1.6064  -1.5891  -1.5604  -1.5122  -1.4947  -1.4804  -1.4613
    -1.4381  -1.4072  -1.3839  -1.3398  -1.2962  -1.2738  -1.2442  -1.2324
    -1.1777  -1.1434  -1.0908  -1.0781  -1.0456  -1.0362  -1.0102  -0.9928
    -0.9811  -0.9602  -0.9435  -0.9312  -0.9047  -0.8883  -0.8652  -0.8403
    -0.8374  -0.8216  -0.8153  -0.7840  -0.7600  -0.7464  -0.7260  -0.6609
    -0.5941  -0.4951  -0.4532  -0.4164  -0.4003  -0.3770  -0.3055  -0.2872
    -0.2673  -0.2191  -0.1954  -0.1780  -0.1471  -0.1293  -0.1133  -0.0687
    -0.0473  -0.0149   0.0361   0.0697   0.0959   0.1264   0.2175   0.2431
     0.2955   0.3371   0.3660   0.3856   0.4027   0.4553   0.4819   0.4946
     0.5177   0.5432   0.5689   0.5875   0.6229   0.6814   0.6972   0.7127
     0.7494   0.7688   0.7719   0.7989   0.8584   0.8888   0.9434   1.0493
     1.0627   1.1172   1.1690   1.2047   1.2093   1.2998   1.3380   1.3596
     1.3838   1.4791   1.4852   1.5087   1.5437   1.5562   1.5773   1.6040
     1.6119   1.6541   1.6921   1.7185   1.7327   1.7495   1.7720   1.7861
     1.8237   1.8703   1.9472   1.9604   1.9899   1.9947   2.0130   2.0540
     2.1110   2.1800   2.3028   2.4847   3.1339   3.1371   3.3872   3.4312
     3.5163   3.5277   3.5625   3.6842   4.1363   4.1510   4.1829   4.6102
     4.6665   4.7151   4.7466   4.7644   4.9774   5.0555   5.1689   5.3073
     5.5556   5.6012   5.7170   6.2005   6.2273   6.2557   6.4047   6.4427

     the Fermi energy is     1.7626 ev

!    total energy              =  -27883.30691972 Ry

     total all-electron energy =  -1327103.294303 Ry
     estimated scf accuracy    <       0.00000070 Ry
     smearing contrib. (-TS)   =      -0.00052945 Ry
     internal energy E=F+TS    =  -27883.30639027 Ry

     The total energy is F=E-TS. E is the sum of the following terms:
     one-electron contribution =  -30020.34596933 Ry
     hartree contribution      =   15317.76060527 Ry
     xc contribution           =    -918.94328538 Ry
     ewald contribution        =   13245.55524328 Ry
     one-center paw contrib.   =  -25507.33298412 Ry

     convergence has been achieved in  21 iterations

     negative rho (up, down):  1.396E-02 0.000E+00

     Forces acting on atoms (cartesian axes, Ry/au):

     atom    1 type  1   force =     0.00045868   -0.00101964   -0.00271681
     atom    2 type  1   force =    -0.00052171   -0.00067441   -0.00357965
     atom    3 type  1   force =     0.00043102   -0.00050894   -0.00327616
     atom    4 type  1   force =     0.00033046    0.00050855   -0.00293468
     atom    5 type  1   force =     0.00003493    0.00111028   -0.00289161
     atom    6 type  1   force =     0.00002125    0.00107453   -0.00317457
     atom    7 type  1   force =     0.00053519   -0.00000604   -0.00590602
     atom    8 type  1   force =     0.00052677    0.00001931   -0.00764214
     atom    9 type  1   force =    -0.00031115   -0.00012940   -0.00337202
     atom   10 type  1   force =     0.00029113   -0.00083097    0.00427446
     atom   11 type  1   force =     0.00063373   -0.00099066    0.00755251
     atom   12 type  1   force =    -0.00192058   -0.00189915    0.00838459
     atom   13 type  1   force =    -0.00014896   -0.00112460    0.00213864
     atom   14 type  1   force =    -0.00025865   -0.00093991   -0.00011743
     atom   15 type  1   force =    -0.00058565   -0.00077569    0.00017671
     atom   16 type  1   force =    -0.00054977    0.00263572    0.00638728
     atom   17 type  1   force =    -0.00083546    0.00118036    0.00161267
     atom   18 type  1   force =     0.00138862    0.00238934    0.00653356
     atom   19 type  1   force =    -0.00004859    0.00007945   -0.00008014
     atom   20 type  1   force =     0.00011137    0.00002510    0.00012228
     atom   21 type  1   force =    -0.00001301    0.00005599    0.00014213
     atom   22 type  1   force =    -0.00011082    0.00006171   -0.00024372
     atom   23 type  1   force =     0.00003855   -0.00011834   -0.00040826
     atom   24 type  1   force =     0.00001472    0.00001823   -0.00034328
     atom   25 type  1   force =    -0.00014202    0.00008618    0.00011175
     atom   26 type  1   force =     0.00006850   -0.00006645    0.00007560
     atom   27 type  1   force =     0.00000602    0.00000200    0.00009436
     atom   28 type  1   force =    -0.00001733   -0.00000120   -0.00002171
     atom   29 type  1   force =     0.00011677    0.00012612   -0.00047426
     atom   30 type  1   force =    -0.00012869   -0.00000500    0.00005153
     atom   31 type  1   force =     0.00006708    0.00010680    0.00029183
     atom   32 type  1   force =     0.00006406   -0.00001896    0.00003226
     atom   33 type  1   force =    -0.00001291    0.00009404    0.00011321
     atom   34 type  1   force =    -0.00000484    0.00003013    0.00011253
     atom   35 type  1   force =     0.00004660    0.00000705    0.00007379
     atom   36 type  1   force =    -0.00001897    0.00001843    0.00003184
     atom   37 type  2   force =    -0.00022720   -0.00005790    0.00055532
     atom   38 type  3   force =    -0.00069170   -0.00070158   -0.00100348
     atom   39 type  2   force =     0.00056296    0.00087975    0.00041972
     atom   40 type  3   force =    -0.00024932   -0.00168956    0.00126420
     atom   41 type  4   force =    -0.00002091    0.00008875    0.00004701
     atom   42 type  4   force =    -0.00015977   -0.00010018   -0.00023338
     atom   43 type  4   force =     0.00055263    0.00040704   -0.00000452
     atom   44 type  4   force =    -0.00060443   -0.00075629   -0.00002850
     atom   45 type  4   force =     0.00128141    0.00140999   -0.00214743

     Total force =     0.004337     Total SCF correction =     0.001301
     SCF correction compared to forces is large: reduce conv_thr to get better values

     negative rho (up, down):  1.396E-02 0.000E+00

     negative rho (up, down):  1.396E-02 0.000E+00

     negative rho (up, down):  1.396E-02 0.000E+00

     negative rho (up, down):  1.396E-02 0.000E+00

     negative rho (up, down):  1.396E-02 0.000E+00

     negative rho (up, down):  1.396E-02 0.000E+00

     negative rho (up, down):  1.396E-02 0.000E+00

     negative rho (up, down):  1.396E-02 0.000E+00

     negative rho (up, down):  1.396E-02 0.000E+00

     negative rho (up, down):  1.396E-02 0.000E+00

     negative rho (up, down):  1.396E-02 0.000E+00

     negative rho (up, down):  1.396E-02 0.000E+00

     negative rho (up, down):  1.396E-02 0.000E+00

     negative rho (up, down):  1.396E-02 0.000E+00

     negative rho (up, down):  1.396E-02 0.000E+00

     negative rho (up, down):  1.396E-02 0.000E+00

     negative rho (up, down):  1.396E-02 0.000E+00

     negative rho (up, down):  1.396E-02 0.000E+00

     negative rho (up, down):  1.396E-02 0.000E+00

     negative rho (up, down):  1.396E-02 0.000E+00

     negative rho (up, down):  1.396E-02 0.000E+00

     negative rho (up, down):  1.396E-02 0.000E+00

     negative rho (up, down):  1.396E-02 0.000E+00

     negative rho (up, down):  1.396E-02 0.000E+00

     negative rho (up, down):  1.396E-02 0.000E+00

     negative rho (up, down):  1.396E-02 0.000E+00

     negative rho (up, down):  1.396E-02 0.000E+00

     negative rho (up, down):  1.396E-02 0.000E+00

     negative rho (up, down):  1.396E-02 0.000E+00

     negative rho (up, down):  1.396E-02 0.000E+00

     negative rho (up, down):  1.396E-02 0.000E+00

     negative rho (up, down):  1.396E-02 0.000E+00

     negative rho (up, down):  1.396E-02 0.000E+00

     negative rho (up, down):  1.396E-02 0.000E+00
 BEEFens 2000 ensemble energies
             -0.615907312792052E+02
             -0.365400592202269E+01
             -0.160234643864762E+02
              0.435696986769656E+02
             -0.224126283980317E+02
             -0.207668993852274E+02
             -0.359103832941084E+02
             -0.878683021626757E+02
             -0.470333410952657E+02
             -0.478225893180079E+02
             -0.374532239166947E+02
              0.237579637800176E+01
              0.412104348030655E+01
              0.755310212618872E+01
              0.271442193970628E+01
              0.481701034141289E+02
             -0.211676504405722E+02
             -0.231853114031815E+02
              0.196051719404638E+02
             -0.113983863631436E+03
              0.544559927319719E+02
             -0.292570997584099E+02
             -0.342440408126203E+01
             -0.115456572884463E+02
             -0.881263157369369E+01
             -0.471750726810791E+01
              0.895331725526048E+02
             -0.190519195991195E+02
             -0.913343440969288E+01
             -0.526493152862652E+02
              0.825444760965504E+02
             -0.188049940776349E+02
             -0.380815939428398E+02
              0.252036770381301E+02
             -0.288384305780903E+01
              0.167913984778115E+02
             -0.483929655165178E+01
              0.108243362550528E+02
              0.293392158313589E+02
             -0.104711911955378E+03
              0.566264244173246E+02
              0.144267580883906E+02
             -0.188702773968100E+01
             -0.365984130675466E+02
              0.124851896529909E+02
             -0.149418459884068E+02
              0.405442213846977E+02
              0.369907837126314E+02
             -0.310935377775155E+02
             -0.279499680734089E+02
             -0.332652633243734E+02
             -0.357414407846204E+02
              0.139181295279295E+02
             -0.498396266059906E+02
              0.117935964577638E+02
              0.631976652138985E+02
              0.646070767198968E+02
              0.360474814998214E+02
              0.156561031354871E+02
              0.275155166366801E+02
              0.904484971164158E+02
              0.215009375236053E+02
             -0.556474507500129E+02
             -0.158520444078058E+02
             -0.239948594728033E+02
              0.638711720635485E+02
             -0.783867444148797E+02
             -0.680155698841099E+02
             -0.264109691149673E+02
             -0.674467125102217E+01
             -0.476581381810556E+02
              0.274615472434079E+02
              0.818054396876335E+01
              0.890247137060902E+01
             -0.402663972260788E+02
             -0.351922528266911E+02
             -0.550373779264263E+02
              0.394877518358658E+02
             -0.300878333206641E+02
              0.269662628165256E+02
             -0.726858628285159E+01
             -0.321998946149338E+02
             -0.583594623321766E+02
             -0.178769842350376E+02
             -0.927032197205654E+01
             -0.126890835311142E+02
              0.417856048835759E+02
              0.693847671075443E+02
             -0.392162348834640E+02
             -0.806169755780904E+02
             -0.222300264633459E+02
              0.113070340630941E+03
             -0.600470622376779E+02
              0.360527329076633E+02
             -0.975391108885094E+01
             -0.671692635521696E+02
              0.258252000628840E+02
              0.402658042239198E+02
             -0.200963922114475E+02
              0.404416159275306E+02
             -0.299427020924338E+02
             -0.486801343023918E+02
              0.879921509230196E+02
              0.460541564920825E+02
              0.339760796714858E+02
              0.148360095039049E+02
              0.209232485545898E+02
              0.868143012110311E+02
             -0.260512165699091E+02
              0.792551436768387E+01
             -0.144377134357137E+03
              0.183667698242433E+02
             -0.725667623551064E+02
              0.152800534140073E+02
              0.207753883495152E+02
             -0.338243697964238E+02
             -0.564362720695483E+02
              0.656366827656416E+01
             -0.308460696427687E+02
              0.314116031989515E+02
             -0.536576990778755E+02
              0.161025346024087E+01
             -0.362321014420535E+02
             -0.429663645841339E+01
             -0.983882295419647E+00
              0.184375146078314E+02
              0.141007608275447E+01
             -0.659759951360138E+01
              0.599845434275505E+02
              0.921410724062108E+02
              0.491166395698389E+02
              0.839981181011584E+02
             -0.116971981734261E+02
              0.144293121655099E+02
              0.548666655416221E+02
             -0.110425359900310E+02
             -0.746747660929989E+02
             -0.390177313705400E+02
             -0.528670599276467E+02
             -0.280864105327573E+02
              0.330888555029780E+02
             -0.118510510600802E+03
             -0.189093370815883E+02
              0.420630940764032E+02
             -0.391783363777700E+02
             -0.369471344106929E+02
              0.552523988368050E+02
              0.407504872531559E+02
             -0.358189618715898E+02
              0.142150461684945E+02
             -0.276804650140243E+02
              0.348446797369632E+02
              0.454142986891492E+01
              0.212701134518303E+02
             -0.896560154635848E+02
             -0.487022103141115E+02
             -0.100831193135084E+02
              0.318951885461387E+01
             -0.372922168051045E+02
              0.107590650867596E+03
             -0.232958391969576E+02
             -0.402641419425385E+02
              0.394417717387928E+02
             -0.500727091118345E+02
             -0.368589585998698E+02
              0.329406324101828E+02
              0.126266443770733E+02
              0.166316855352811E+02
              0.118811429040904E+02
             -0.134378911550446E+02
              0.226806221864505E+02
              0.598575638337781E+02
             -0.315589517889780E+02
              0.165518440397074E+02
              0.947239524438248E+02
              0.345294086373845E+02
             -0.737941833851448E+01
             -0.191469122456216E+02
              0.155578399984417E+03
             -0.167460993431000E+02
              0.368640657133259E+02
              0.198664710567225E+02
              0.365691218552934E+02
              0.905174266394804E+02
              0.549575063465213E+02
             -0.247770603638919E+01
              0.231338266426075E+02
              0.492089863979223E+02
              0.369067869656066E+02
             -0.534346047856168E+02
              0.949383425178132E+02
             -0.837858306120554E+02
             -0.199701845610160E+02
              0.590858792734683E+02
              0.698783122742132E+01
              0.797770979846530E+01
              0.344919482328314E+02
              0.301511362863556E+02
              0.358523139232969E+02
             -0.646578276269294E+02
              0.291963115598230E+01
             -0.301027496320506E+02
             -0.880370949502273E+01
             -0.149532471009945E+01
             -0.739998497889425E+01
             -0.423862296055097E+01
              0.871188171973418E+02
             -0.101917822821999E+02
             -0.280346638703009E+02
             -0.497786035294525E+01
              0.141904641718674E+02
             -0.572982674737540E+02
             -0.414968115993020E+02
             -0.386989028659601E+02
             -0.639147775637356E+02
             -0.172290073841117E+02
             -0.453301197634552E+02
              0.166077374554959E+02
             -0.236314530734451E+01
             -0.106319050366227E+02
             -0.946083217628862E+01
              0.814795254923695E+01
             -0.244652455609868E+02
              0.698666026232851E+02
             -0.819716888419601E+02
             -0.143137899861095E+02
             -0.175992474343380E+02
              0.184122050394261E+02
              0.217431279488471E+02
             -0.470819278314787E+02
             -0.203777453044151E+02
              0.447235237680354E+02
             -0.278911054697169E+02
              0.188964836716079E+02
              0.387650657163487E+02
             -0.324097982178216E+01
              0.115763799506449E+03
             -0.231792451706988E+02
             -0.345688388084174E+02
              0.581334017802459E+01
             -0.231997611810538E+02
              0.535488464442525E+02
             -0.343831441174266E+02
              0.108236486973798E+02
              0.648156314561681E+02
             -0.128225138863579E+02
              0.121917745569960E+03
              0.127707133455983E+03
             -0.659580044641771E+02
              0.598776496537457E+02
              0.169784387522923E+02
             -0.525828400822475E+02
              0.218584324242817E+02
              0.359966161494961E+02
              0.369289357104822E+02
              0.139700617399606E+01
              0.161992602606130E+02
              0.706473296510748E+02
             -0.250240894097548E+02
              0.182848194551216E+02
              0.748995269297166E+02
             -0.377771938833512E+02
             -0.132943727139317E+02
              0.516863879140079E+02
              0.301609432242908E+02
              0.791204320276621E+02
              0.227390608713540E+02
              0.643582540791203E+01
              0.284165064948787E+02
              0.389241024032929E+02
             -0.479315269865020E+02
              0.342939959299406E+01
              0.133565059779881E+02
              0.115378506939792E+02
              0.223929035726050E+02
             -0.583633638902826E+02
              0.370528090618435E+02
             -0.450007642050653E+02
             -0.351892397209922E+02
              0.180847513434539E+02
             -0.182745923086792E+02
              0.563456470215011E+02
             -0.258147201672660E+02
              0.271125920681117E+02
              0.372506769969760E+02
              0.840224346898804E+02
              0.582155483010010E+02
              0.468998099945348E+02
             -0.106014868097886E+02
             -0.406091284972229E+01
             -0.336431112443316E+02
              0.762258313457775E+02
              0.808780597475503E+02
              0.367607695548653E+02
             -0.195964570018602E+02
              0.518849241490750E+02
             -0.162948964485933E+02
              0.217282456741402E+02
              0.624203919753340E+02
              0.210370160911515E+01
             -0.105740681055804E+02
             -0.285808193693978E+02
             -0.520247172352212E+02
              0.959131444564010E+02
              0.447122492639796E+02
             -0.568124982855080E+02
             -0.993205253943978E+01
              0.253647793248046E+02
             -0.101196223058081E+02
              0.601479423031259E+02
              0.154181107939995E+02
              0.810717577198259E+02
              0.284152806228756E+02
             -0.267331358330862E+02
              0.251689310772230E+02
             -0.511653270916099E+01
             -0.327333208839149E+02
              0.135629579166130E+02
              0.207870599607304E+02
              0.945828892924417E+02
              0.808422729140910E+02
              0.559056255070527E+02
              0.740097270684930E+02
              0.810689151272848E+01
             -0.277259943858132E+02
              0.165066398716535E+02
             -0.372790224125523E+02
             -0.484334795300009E+02
             -0.571782639799160E+02
             -0.271161457120860E+02
             -0.111238562900693E+03
             -0.296623275068860E+02
             -0.849759041851200E+02
              0.213182312973606E+02
             -0.483514091241119E+02
              0.403900630348742E+02
             -0.955589372378980E+02
             -0.334349272597721E+02
              0.554242509165168E+02
              0.210745543003898E+02
             -0.843596889307382E+02
              0.638705166201137E+02
             -0.260805519717961E+02
              0.520330747394508E+02
             -0.246423599141967E+02
             -0.762767616374720E+02
              0.114398542623312E+02
             -0.620935536898862E+02
             -0.168836226383738E+02
             -0.150406134695255E+01
              0.424236911042237E+02
              0.128808313006623E+03
             -0.467893534062748E+02
             -0.367902838962099E+02
             -0.105355804546531E+01
             -0.131684046087327E+02
             -0.834067080991983E+02
             -0.604826798983097E+02
              0.524155497189064E+02
             -0.291817571173663E+02
              0.172312274836331E+02
             -0.496449868701897E+02
             -0.134350918919357E+02
             -0.443133534164123E+02
              0.572582444067296E+02
              0.152694501630137E+02
             -0.234964090125759E+02
             -0.129465121754607E+02
              0.685496938123836E+01
             -0.631442887264717E+01
              0.447554983371920E+02
             -0.255742664011416E+02
              0.293647148546540E+01
              0.344181507937890E+02
              0.173152716717617E+02
             -0.163113565329044E+02
              0.158476760044855E+03
              0.546443029489147E+02
              0.129373844031289E+01
              0.162566253055646E+02
             -0.623602215238174E+02
              0.319727250029541E+02
             -0.732980800799985E+02
             -0.256814390113990E+02
             -0.530967625614958E+02
             -0.222637579950460E+02
              0.577531142266698E+02
             -0.545319576977216E+02
              0.164580565067161E+02
             -0.413526190783887E+01
              0.389959990803604E+01
             -0.438467254799124E+02
             -0.484305375898546E+02
             -0.407142372829355E+01
             -0.429895399199637E+02
             -0.220401472682339E+02
             -0.444237837587815E+02
             -0.120268942265057E+02
             -0.363751849710243E+02
             -0.523648389247313E+02
              0.215878432376211E+02
             -0.211222392902142E+02
              0.191255482885045E+02
              0.987739096135824E+01
             -0.748904745882368E+02
             -0.555536121497293E+02
             -0.405135785290954E+02
              0.359055770638847E+02
              0.262604925140769E+01
             -0.635693756790890E+02
              0.593899281258830E+02
             -0.407107934160980E+02
              0.553187530537576E+02
             -0.294176112242738E+02
             -0.453074931873231E+02
              0.301943395381799E+02
             -0.668001654755756E+02
             -0.384635540901496E+02
              0.681223003523900E+02
              0.206708173381203E+02
             -0.366483763086774E+02
              0.497401310672849E+02
             -0.176523223461176E+02
             -0.328360126328538E+02
             -0.306156863426046E+02
             -0.507977191680562E+02
              0.253124997901754E+02
             -0.945584071571786E+02
             -0.851352332732165E+02
             -0.748177547709577E+01
             -0.311010718978918E+02
             -0.584207754084575E+02
              0.732690638284815E+02
              0.133495839501124E+03
             -0.364405671322318E+02
             -0.260766893474579E+01
             -0.645811164334996E+02
              0.660014445512267E+02
              0.173930319093757E+02
             -0.184868782146949E+02
             -0.415243271137692E+02
              0.150929433412554E+02
             -0.594807839857225E+02
             -0.199775564529219E+02
             -0.917237740213315E+02
              0.342155864873895E+02
              0.170553763172575E+02
              0.176946735226647E+01
             -0.720939161288288E+01
             -0.335677503389263E+02
             -0.775701745602254E+01
              0.127463249194722E+03
             -0.201356829757225E+02
             -0.444445469793786E+02
             -0.693888191594925E+02
              0.111266297773077E+02
             -0.347637674858834E+02
              0.606272594185648E+01
              0.266238208009295E+02
              0.102840249948456E+02
              0.282819100182482E+02
              0.122264857079158E+02
              0.637945656742738E+02
              0.320519964419352E+02
             -0.331749194312177E+02
              0.363267049510837E+02
              0.384465326041675E+02
              0.122680712302634E+02
              0.492576916233554E+02
             -0.229168110771460E+02
              0.776077535035444E+02
              0.175999934983437E+02
             -0.277085007261017E+02
             -0.730960485403177E+01
             -0.188888642678286E+02
              0.264336831090861E+02
             -0.238166872512405E+02
             -0.275378411046006E+00
             -0.869197363875196E+01
              0.821427092065355E+02
              0.508384831941697E+02
             -0.696528236911562E+02
             -0.487572545807654E+01
             -0.562797803579090E+02
             -0.161491087217422E+02
             -0.271406366732402E+02
              0.391656468406666E+01
              0.544596197552716E+00
             -0.261675543460442E+02
              0.839241330605196E+01
             -0.615115724994857E+01
             -0.129687068887165E+02
              0.871575561470035E+02
              0.184052918785019E+02
             -0.818906464684283E+02
             -0.463875240940769E+02
              0.958747542382118E+02
              0.281449487858199E+02
             -0.108000052506420E+02
              0.106145701697291E+03
             -0.197259187962874E+02
             -0.124237220983217E+02
             -0.553565139412694E+01
              0.109765960820771E+02
              0.277048770873553E+02
              0.784031167965679E+01
              0.309417618289675E+02
             -0.189581196000862E+02
             -0.309246845220702E+02
             -0.423592293954688E+02
             -0.483899464877907E+02
              0.469771428711160E+02
              0.128889801775201E+02
              0.393093597867928E+02
              0.135659815406073E+02
              0.868664551115588E+02
              0.159372026571029E+02
             -0.857212497883194E+02
             -0.339285252951118E+02
              0.134393149381083E+02
             -0.306857644328365E+02
              0.635743787983556E+02
             -0.910729328498064E+01
              0.151357918926122E+02
              0.505191776337703E+02
             -0.718773325984911E+02
              0.151883651085895E+03
              0.211564182793809E+02
              0.274750821075314E+02
              0.353056682307320E+02
              0.104591964786498E+02
             -0.158141265014632E+01
              0.363266817930910E+02
             -0.362267131544913E+02
              0.785645850441438E+02
              0.695685717341199E+02
             -0.411867406724394E+02
              0.152018833108377E+02
              0.680674725109364E+02
             -0.227071586860154E+02
              0.157076714845182E+02
              0.440196050606022E+02
              0.428250436489473E+02
             -0.795816909826891E+02
             -0.153809688889280E+02
             -0.360406368836514E+02
             -0.156480507770908E+01
             -0.775442068272110E+01
             -0.536897376446177E+01
             -0.182528726807274E+02
             -0.298360842758289E+02
              0.656321952131904E+01
              0.112696822880497E+02
              0.543433110335430E+02
             -0.396883746115291E+02
              0.380965800825603E+02
              0.445503486520379E+02
             -0.188186798041613E+02
              0.883648871670257E+02
             -0.707660166331564E+02
             -0.104683802027013E+03
             -0.670511223219872E+01
             -0.281159478444988E+01
              0.384011843900646E+01
              0.800842668749276E+02
             -0.107395255467495E+02
              0.422892739156981E+02
              0.452006131569416E+02
              0.390795931295318E+02
             -0.100582765347381E+02
              0.636221156051057E+02
             -0.136050166935276E+02
             -0.312986773735049E+02
             -0.484962536488283E+02
              0.603216761852062E+01
              0.374820402085782E+02
             -0.605395230379841E+01
              0.397954656224118E+02
             -0.174482327997896E+01
              0.663658425115288E+02
              0.189905109086069E+02
              0.100993092270929E+02
             -0.121667439335246E+02
              0.336638396618281E+02
              0.368473773302539E+02
              0.234946056589380E+02
             -0.558155176307594E+00
             -0.558466319651880E+02
              0.265162618866907E+02
              0.178185202115923E+02
              0.407527585687855E+02
              0.276711774719388E+02
              0.377720271843952E+02
             -0.617739453469639E+01
              0.255886453268018E+02
             -0.302491618450165E+02
             -0.199826454157926E+01
             -0.576881742103550E+02
             -0.312851965600803E+02
              0.384916748380194E+02
             -0.948446018032347E+02
              0.298096610880758E+02
              0.186058613050932E+02
              0.852427614142585E+02
             -0.302830229057967E+02
              0.334100723428063E+02
             -0.139277149798035E+02
             -0.471186585779156E+02
             -0.771236795740720E+02
             -0.545934240866808E+01
             -0.873071516325214E+02
              0.201038714912449E+02
             -0.250439499105991E+02
              0.310489754593914E+02
              0.240132128805587E+02
             -0.245316333580923E+02
             -0.269715768240662E+02
              0.397040904889589E+02
             -0.596727875232950E+02
             -0.118559472369495E+02
             -0.198680102652499E+02
              0.216643697238045E+02
             -0.885821076650257E+01
              0.367542696178330E+01
             -0.203111425902284E+02
              0.566573015555512E+02
             -0.447806178418972E+02
              0.799682193142314E+01
              0.594096778156487E+02
             -0.328752803046188E+02
              0.364963663161618E+01
             -0.879093409543748E+01
             -0.679024933016558E+02
             -0.488288117403633E+02
             -0.865563517342844E+01
              0.245041545007132E+02
              0.307249973862267E+02
              0.866314752286371E+01
             -0.430425982960332E+01
              0.154626139090993E+02
             -0.445912419273920E+02
              0.326579406226119E+01
             -0.538679836685792E+02
             -0.328528982863094E+02
              0.482000242099762E+02
             -0.299452614203433E+02
              0.632518435637011E+02
             -0.218046022883937E+02
              0.358712774506148E+02
              0.245394834982241E+02
             -0.652915620165766E+02
             -0.284251485108412E+02
              0.945774370314675E+01
             -0.377736955440611E+02
             -0.345460709988135E+02
             -0.842774031242698E+02
             -0.547413931232890E+02
             -0.517859640069850E+02
             -0.422143539757059E+02
             -0.970925343194295E+00
[...]
              0.286549031817416E+02
              0.143746938902985E+03
              0.246869379047326E+02
              0.125198199000665E+02
             -0.471286276418192E+02
             -0.646254128181321E+02
             -0.190867942782895E+02
              0.333890162965654E+02
             -0.436345544508129E+01
              0.193492054053116E+02
              0.341108717142500E+02
             -0.595285118984838E+02
              0.226355405320644E+02
              0.587365174807215E+02
              0.561141446170964E+02
             -0.432409003381571E+01
             -0.129679723701565E+01
             -0.100447388197008E+02
             -0.488912892736606E+02
             -0.685231072539890E+02
              0.796739719795582E+02
             -0.538060684010907E+01
             -0.595740665976392E+02
              0.180786176721594E+01
             -0.209361287605363E+02
              0.950857502592609E+02
             -0.219673680854678E+02
             -0.358861161089861E+02
              0.340261969471394E+02
             -0.148087729132232E+02
              0.396289240496150E+02
             -0.236416519080319E+01
              0.102432709390553E+03
              0.497215255929586E+02
             -0.498539979486391E+01
             -0.327521191966035E+02
              0.236426636253634E+02
             -0.536358342419585E+02
             -0.128755942008580E+02
              0.594722860706796E+02
             -0.291447680481065E+02
             -0.444634805580241E+02
             -0.226472669888068E+02
              0.525928001429266E+02
              0.126582859236187E+02
             -0.860574317776484E+02
              0.308784105782382E+02
              0.153235818460410E+02
              0.592438066558614E+01
             -0.520344217782662E+02
             -0.365831073613117E+01
              0.327977450782824E+02
              0.519547455543203E+02
              0.641842850856960E+02
              0.233699537408309E+02
              0.864528897251034E+00
             -0.505755086652349E+02
             -0.516124642152103E+02
             -0.757421844143623E+02
             -0.634837685385810E+01
              0.313700551627400E+02
             -0.380699543139912E+01
              0.554098792077832E+02
             -0.322620224480838E+02
              0.168907581900121E+02
             -0.105544854288258E+02
             -0.293521275768559E+02
              0.594069668470540E+02
              0.799552606584587E+01
              0.613189569310204E+02
              0.516972012431222E+01
              0.267961407208055E+02
             -0.195005862676912E+02
              0.594842328934208E+02
             -0.113722746227969E+02
             -0.132172564487202E+00
             -0.801222006035017E+02
             -0.129435805794112E+02
              0.729038754213520E+02
              0.682392266254082E+02
              0.255445060102200E+02
             -0.132757925977347E+02
              0.350104124477076E+01
             -0.176610123366998E+02
             -0.229976464714431E+01
              0.920557385391509E+02
              0.132421279400819E+01
             -0.194532095621522E+02
             -0.112281033723451E+03
             -0.559098095283801E+02
             -0.380343112198719E+02
             -0.667642166946216E+02
             -0.563935452935194E+02
             -0.692747054897040E+02
             -0.453582440659563E+02
             -0.414919913806262E+02
             -0.458827992218080E+02
              0.489911696556422E+02
             -0.296749881453967E+02
             -0.100784458402249E+03
              0.424802105158157E+02
             -0.264617675789219E+02
             -0.802220882269148E+02
              0.958136304002679E+02
             -0.223429757736177E+02
              0.230200920655738E+02
              0.460555077177066E+02
             -0.118805538093090E+01
              0.258048043284395E+02
              0.471761228245910E+01
              0.425003562777828E+00
             -0.152428711464822E+02
             -0.726271270580172E+02
              0.134859092492456E+02
             -0.131118202145269E+03
              0.634251312594378E+02
             -0.446512176332461E+02
             -0.165437919006534E+02
             -0.160904802623958E+02
              0.742221402246219E+01
             -0.229919391487408E+02
              0.301187876560699E+02
             -0.528827948423074E+02
              0.372363727379678E+02
              0.376979938798179E+02
              0.169845313019044E+02
              0.101893536930479E+02
              0.200879222587550E+02
              0.636557576954726E+01
              0.314495037535389E+02
             -0.808127750545688E+01
             -0.602659846976200E+02
              0.771800076591501E+01
             -0.157182216688957E+02
             -0.199968939198021E+01
              0.514038728920650E+02
             -0.838161589894480E+02
             -0.146767201211014E+01
              0.606002710177393E+00
              0.100820990913141E+02
              0.322879592220687E+02
             -0.125365977065093E+02
              0.847585091201477E+02
              0.493358682032432E+02
             -0.185454737795398E+02
             -0.969676734702864E+01
              0.114697061761129E+01
              0.780652054784784E+02
             -0.593306264600417E+02
             -0.107209165352305E+03
              0.313295410764651E+02
             -0.164358053678633E+02
             -0.141715450084087E+02
              0.133185173235488E+02
              0.779420428886172E+02
              0.470366320254271E+02
             -0.155772070610521E+02
             -0.510575711260299E+02
             -0.565234059286823E+01
              0.310403874621059E+02
             -0.114066688360011E+02
             -0.766349554881558E+02
             -0.282592686370410E+01
             -0.903711013789979E+02
             -0.482881925276003E+02
              0.780585067958799E+02
             -0.490962406581672E+02
             -0.646681576023216E+02
             -0.521813141304214E+02
             -0.355235707407654E+02
              0.345795460814990E+02
              0.833676602901660E+02
             -0.368988343801936E+01
              0.280314247395625E+02
             -0.186636173947353E+02
             -0.703679640439792E+02
              0.472163548685710E+02
             -0.451891832053432E+02
              0.325370389657645E+02
              0.380559705758176E+02
             -0.676339389871998E+01
              0.396012079531834E+02
              0.444081870863072E+02
              0.102348988616123E+03
             -0.157517320508717E+02
             -0.463753253392044E+02
             -0.622042253647011E+02
             -0.126545872343243E+02
             -0.238497646709811E+02
              0.104354678695224E+03
             -0.455360321582367E+02
              0.106668586344110E+02
              0.975672289211479E+01
             -0.267519038144457E+02
             -0.811022707746861E+02
             -0.708817769218240E+01
              0.994004415602730E+02
              0.967469905596820E+01
              0.820092484614270E+01
             -0.535225587599317E+02
             -0.613185553762626E+02
             -0.587330557135979E+01
              0.506737684435069E+02
             -0.225637344042805E+02
              0.109413654535383E+03
             -0.442316227148057E+02
              0.149100189122246E+02
             -0.226082831928837E+02
             -0.727296702348772E+02
              0.177153109805488E+01
             -0.509490047957897E+02
             -0.771030708129232E+02
              0.632002532774550E+01
              0.238238765517826E+01
              0.521233075328360E+02
              0.190990391456715E+02
             -0.328506999232860E+02
              0.233277061769536E+02
             -0.823439403860988E+02
             -0.528503879519490E+02
              0.914854827265802E+02
              0.143160455357954E+02
             -0.188859747662648E+02
             -0.356152306721850E+02
             -0.272559657932914E+01
             -0.602131333501131E+01
              0.843125419162108E+02
              0.423596291880300E+02
             -0.167348623800693E+02
             -0.122017031092632E+02
             -0.433090716415073E+02
             -0.202766195313174E+02
             -0.678854181015346E+02
              0.466924905552906E+02
              0.555794949477033E+01
              0.146023224841581E+02
              0.158641925840344E+02
             -0.734021771314882E+00
             -0.171566479277413E+02
             -0.298529254094611E+01
             -0.102010717886731E+03
             -0.231621014390768E+02
             -0.778045751180201E+01
             -0.957627253191876E+01
              0.553447838738984E+02
              0.633068404626278E+02
              0.167224332374332E+02
             -0.983920665530464E+02
              0.656492645170738E+02
             -0.218269312761313E+02
             -0.382355675342967E+02
             -0.876730474481481E+02
             -0.390842659270081E+02
              0.573393364380053E+02
              0.248948350827129E+02
              0.534576310047788E+01
              0.297299213561392E+02
             -0.572928285278518E+02
             -0.429308087909669E+02
              0.523924315791273E+02
              0.392984987765757E+02
              0.525697611423458E+02
             -0.113523970714962E+01
              0.699338830595406E+01
              0.577008298908653E+02
              0.976861823450595E+02
             -0.302769225524832E+02
              0.328729363245097E+02
             -0.122490875916214E+02
             -0.418462204007828E+02
             -0.319366316410699E+02
             -0.304941187887894E+02
             -0.133320938411653E+02
             -0.530197297139142E+02
             -0.220038267916499E+02
             -0.143040872185622E+03
              0.373393034534953E+02
              0.210487294120646E+02
             -0.398751535915235E+01
             -0.385523441808400E+02
             -0.206989166564838E+02
             -0.534796743262471E+02
              0.152201364910644E+02
              0.831361544102280E+02
             -0.254771908503147E+02
             -0.165566463544496E+02
              0.240880510398256E+02
             -0.496513045943502E+02
              0.892720491543111E+02
              0.156652203584791E+02
              0.227471720356300E+02
              0.497568927997147E+02
              0.313410886957394E+01
              0.550356735428666E+02
              0.145769798407536E+02
             -0.106849229191848E+02
              0.748131567636392E+01
              0.658345055438815E+00
              0.736700666038762E+02
              0.102254374399379E+02
              0.123358840604584E+02
             -0.131329009848490E+02
              0.134010715561341E+02
             -0.924528568213445E+02
             -0.331069717382513E+02
             -0.464279869580967E+02
              0.492412508090393E+02
             -0.295942290927204E+02
             -0.666654618139015E+02
              0.547052596653868E+02
             -0.123943477403296E+02
              0.445879314198870E+02
             -0.911636383806911E+02
              0.234698514942810E+02
              0.864189251019579E+01
              0.590641695668467E+01
             -0.850014013280628E+01
             -0.913666494500842E+01
              0.486594424317419E+02
              0.203210449248559E+01
             -0.482428270287261E+02
             -0.178972342099987E+02
              0.279587769870058E+02
             -0.119568360715748E+03
             -0.942232736573925E+02
              0.397633557461495E+01
              0.119853896603281E+02
             -0.420085772659145E+02
             -0.389544890789426E+01
              0.113573423169336E+03
              0.310883855909285E+02
             -0.579097130273877E+02
              0.937479450536068E+01
             -0.979064386263299E+01
              0.107407348639323E+02
             -0.342641426877088E+02
              0.198550805505437E+02
              0.288078153438528E+02
             -0.311302360130605E+01
              0.109775622744070E+03
             -0.140955044157802E+02
             -0.320532614112334E+02
              0.147241684169436E+02
              0.472559388854787E+02
             -0.360543309946073E+02
             -0.319209018176235E+01
              0.978581906548975E+02
             -0.467029260152333E+01
              0.629238585563431E+02
              0.137730972809208E+02
             -0.912465645590450E+01
             -0.307674774731286E+02
              0.573661420390511E+02
             -0.522710008667884E+02
             -0.223954468861103E+01
             -0.172747612727926E+02
             -0.410975008700843E+02
              0.186650625088090E+02
              0.242709394072757E+02
              0.116188583210986E+02
              0.694084395514324E+00
             -0.390242374729019E+02
              0.217595843190933E+02
             -0.675057747314878E+01
             -0.249659210316206E+02
             -0.213509787100687E+02
              0.205730530690981E+02
             -0.599872976208803E+01
             -0.354607598281332E+02
             -0.108159858155136E+03
              0.103966436920727E+02
              0.251191412756475E+02
             -0.394257265119329E+02
             -0.214334186885967E+02
              0.818745623291046E+02
              0.668309471768799E+01
              0.317053982721854E+02
              0.405355194346362E+01
              0.327586814388036E+02
              0.651695050597277E+01
             -0.378662994775193E+02
             -0.248249841485008E+01
              0.883828946757342E+01
              0.278357807184310E+02
              0.792719646121185E+02
              0.514358378584536E+02
              0.231194008575983E+00
              0.170996682291153E+02
              0.621726863396701E+02
              0.239877821788416E+02
             -0.762712864443945E+02
             -0.277658017421833E+02
              0.152688056248057E+02
              0.575811929437248E+01
              0.258681013915163E+02
             -0.555091848147009E+02
              0.907806225620578E+01
              0.391868573832043E+02
              0.504991459896809E+02
             -0.441020563547619E+02
             -0.687195388159262E+01
             -0.212854189824907E+01
             -0.136649365199891E+02
             -0.369323216469034E+02
             -0.217140712447215E+02
             -0.217110806257917E+01
              0.807899689121518E+01
              0.427326112092459E+02
             -0.312847859166926E+02
              0.837513049818151E+02
              0.332439727060722E+02
              0.223594149056353E+02
              0.338163669295780E+02
              0.326860828756405E+02
              0.351076050345583E+02
              0.545012090297196E+02
             -0.440556998568154E+02
              0.628459268808392E+02
             -0.113884496713706E+03
              0.311921595580462E+02
             -0.108041042445965E+03
              0.866181858012560E+02
              0.701749506992176E+02
             -0.111152534257479E+02
             -0.500007053333969E+02
             -0.435536702517738E+02
             -0.631211382307722E+02
             -0.637912386332602E+02
              0.559666176054743E+02
              0.411608910775018E+02
              0.240240759499823E+02
              0.377561400965384E+02
              0.409437225098623E+02
             -0.387808473371787E+02
             -0.200075832745836E+02
              0.594092709450324E+02
             -0.117769515477382E+02
              0.558877323014415E+02
              0.710307076502310E+02
             -0.559427648310585E+01
             -0.716874024279275E+02
             -0.828770013915573E+00
             -0.245740157133006E+01
             -0.898188642999048E+01
             -0.175945044770367E+01
             -0.662167205835661E+02
             -0.212098402999444E+02
              0.556359606281294E+01
              0.918100120722039E+01
              0.476026894348487E+02
             -0.403813681170445E+02
              0.664969698133833E+02
             -0.430830423664902E+02
              0.214253616171645E+02
              0.356422339110336E+02
 
 BEEF-vdW xc energy contributions
           1 :   -793.235228725296     
           2 :    728.055600693681     
           3 :   -615.461725173718     
           4 :    483.286318705161     
           5 :   -359.512726474458     
           6 :    264.094677958633     
           7 :   -204.593470639398     
           8 :    176.310468403885     
           9 :   -166.407004708217     
          10 :    160.107942578796     
          11 :   -146.499997194743     
          12 :    121.758202652468     
          13 :   -88.9641285211115     
          14 :    55.1655303278229     
          15 :   -27.3760895608443     
          16 :    9.32337165440288     
          17 :  -0.190584033800064     
          18 :   -4.41655364209078     
          19 :    9.98945038096485     
          20 :   -20.4236060231848     
          21 :    36.3424626423104     
          22 :   -55.0982429944838     
          23 :    72.2780170481942     
          24 :   -83.8975887744348     
          25 :    88.2147559011173     
          26 :   -86.3624258665079     
          27 :    81.5993090472464     
          28 :   -77.6343665859864     
          29 :    76.8674425635782     
          30 :   -79.3743057654979     
          31 :   -87.0934142034447     
          32 :   -66.5909802483944     

     Writing output data file ./pwscf.save/
 
     init_run     :    391.66s CPU    396.27s WALL (       1 calls)
     electrons    :  16787.80s CPU  16932.27s WALL (       1 calls)
     forces       :    116.48s CPU    117.83s WALL (       1 calls)

     Called by init_run:
     wfcinit      :    340.74s CPU    344.28s WALL (       1 calls)
     potinit      :     47.31s CPU     47.64s WALL (       1 calls)
     hinit0       :      1.59s CPU      1.63s WALL (       1 calls)

     Called by electrons:
     c_bands      :  13968.64s CPU  14078.89s WALL (      22 calls)
     sum_band     :   2036.45s CPU   2051.94s WALL (      22 calls)
     v_of_rho     :    122.10s CPU    126.67s WALL (      22 calls)
     newd         :     37.59s CPU     51.84s WALL (      22 calls)
     PAW_pot      :    157.44s CPU    157.45s WALL (      22 calls)
     mix_rho      :    513.58s CPU    514.40s WALL (      22 calls)
     vdW_kernel   :     35.66s CPU     35.66s WALL (       1 calls)

     Called by c_bands:
     init_us_2    :     89.30s CPU     89.51s WALL (     598 calls)
     cegterg      :  13051.05s CPU  13160.98s WALL (     286 calls)

     Called by *egterg:
     cdiaghg      :    128.07s CPU    128.08s WALL (    1819 calls)
     h_psi        :   8459.29s CPU   8498.21s WALL (    1845 calls)
     s_psi        :   1364.01s CPU   1364.02s WALL (    1845 calls)
     g_psi        :     18.27s CPU     18.28s WALL (    1546 calls)

     Called by h_psi:
     h_psi:calbec :   1285.20s CPU   1285.33s WALL (    1845 calls)
     vloc_psi     :   5781.23s CPU   5783.07s WALL (    1845 calls)
     add_vuspsi   :   1364.28s CPU   1364.39s WALL (    1845 calls)

     General routines
     calbec       :   1892.26s CPU   1892.42s WALL (    2183 calls)
     fft          :     56.76s CPU     56.77s WALL (    3342 calls)
     ffts         :    177.03s CPU    177.06s WALL (   10750 calls)
     fftw         :   5965.87s CPU   5967.00s WALL (  370136 calls)
 
     Parallel routines
 
     PWSCF        :      4h50m CPU      4h52m WALL

 
   This run was terminated on:  20:39: 5  20May2022            

=------------------------------------------------------------------------------=
   JOB DONE.
=------------------------------------------------------------------------------=
