
     Program PWSCF v.6.7MaX starts on 27Sep2022 at 21:58:34 

     This program is part of the open-source Quantum ESPRESSO suite
     for quantum simulation of materials; please cite
         "P. Giannozzi et al., J. Phys.:Condens. Matter 21 395502 (2009);
         "P. Giannozzi et al., J. Phys.:Condens. Matter 29 465901 (2017);
          URL http://www.quantum-espresso.org", 
     in publications or presentations arising from this work. More details at
     http://www.quantum-espresso.org/quote

     Parallel version (MPI), running on     1 processors

     MPI processes distributed on     1 nodes
     Reading input from h2co2h2-ensemble.in
Warning: card &CELL ignored
Warning: card / ignored

     Current dimensions of program PWSCF are:
     Max number of different atomic species (ntypx) = 10
     Max number of k-points (npk) =  40000
     Max angular momentum in pseudopotentials (lmaxx) =  3
     file Pt.pbe-n-kjpaw_psl.1.0.0.UPF: wavefunction(s)  6S 5D renormalized
     file O.pbe-nl-kjpaw_psl.1.0.0.UPF: wavefunction(s)  2S 2P renormalized
     file C.pbe-n-kjpaw_psl.1.0.0.UPF: wavefunction(s)  2S 2P renormalized
     file H.pbe-kjpaw_psl.1.0.0.UPF: wavefunction(s)  1S renormalized

     **************************************************************************
     Initializing libbeef V0.1.2 with the BEEF-vdW functional.
     Citation: Wellendorff et al., PRB 85, 235149 (2012).
     **************************************************************************


     IMPORTANT: XC functional enforced from input :
     Exchange-correlation= BEEF-VDW
                           (   1   4  43  14   2   0   0)
     Any further DFT definition will be discarded
     Please, verify this is what you really want


     Subspace diagonalization in iterative solution of the eigenvalue problem:
     a serial algorithm will be used

 
     G-vector sticks info
     --------------------
     sticks:   dense  smooth     PW     G-vecs:    dense   smooth      PW
     Sum        4267    4267   1159               742983   742983  104747
 


     bravais-lattice index     =            0
     lattice parameter (alat)  =      16.0349  a.u.
     unit-cell volume          =   11828.8277 (a.u.)^3
     number of atoms/cell      =           43
     number of atomic types    =            4
     number of electrons       =       380.00
     number of Kohn-Sham states=          228
     kinetic-energy cutoff     =      60.0000  Ry
     charge density cutoff     =     240.0000  Ry
     scf convergence threshold =      1.0E-06
     mixing beta               =       0.7000
     number of iterations used =            8  local-TF  mixing
     Exchange-correlation= BEEF-VDW
                           (   1   4  43  14   2   0   0)

     celldm(1)=  16.034858  celldm(2)=   0.000000  celldm(3)=   0.000000
     celldm(4)=   0.000000  celldm(5)=   0.000000  celldm(6)=   0.000000

     crystal axes: (cart. coord. in units of alat)
               a(1) = (   1.000000   0.000000   0.000000 )  
               a(2) = (   0.500000   0.866025   0.000000 )  
               a(3) = (   0.000000   0.000000   3.312956 )  

     reciprocal axes: (cart. coord. in units 2 pi/alat)
               b(1) = (  1.000000 -0.577350  0.000000 )  
               b(2) = (  0.000000  1.154701  0.000000 )  
               b(3) = (  0.000000  0.000000  0.301845 )  


     PseudoPot. # 1 for Pt read from file:
     /users/bkreitz1/quantum-espresso/potentials/Pt.pbe-n-kjpaw_psl.1.0.0.UPF
     MD5 check sum: 04dc8a03c51ece93fc7b5889c2958091
     Pseudo is Projector augmented-wave + core cor, Zval = 10.0
     Generated using 'atomic' code by A. Dal Corso  v.6.7MaX
     Shape of augmentation charge: PSQ
     Using radial grid of 1277 points,  6 beta functions with: 
                l(1) =   0
                l(2) =   0
                l(3) =   1
                l(4) =   1
                l(5) =   2
                l(6) =   2
     Q(r) pseudized with 0 coefficients 


     PseudoPot. # 2 for O  read from file:
     /users/bkreitz1/quantum-espresso/potentials/O.pbe-nl-kjpaw_psl.1.0.0.UPF
     MD5 check sum: eef08af8b58d9ec80f8fdb78829eb7cf
     Pseudo is Projector augmented-wave + core cor, Zval =  6.0
     Generated using 'atomic' code by A. Dal Corso  v.6.7MaX
     Shape of augmentation charge: PSQ
     Using radial grid of 1095 points,  4 beta functions with: 
                l(1) =   0
                l(2) =   0
                l(3) =   1
                l(4) =   1
     Q(r) pseudized with 0 coefficients 


     PseudoPot. # 3 for C  read from file:
     /users/bkreitz1/quantum-espresso/potentials/C.pbe-n-kjpaw_psl.1.0.0.UPF
     MD5 check sum: a169b0ebad56f5ec0d79c4633f80bf22
     Pseudo is Projector augmented-wave + core cor, Zval =  4.0
     Generated using 'atomic' code by A. Dal Corso  v.6.7MaX
     Shape of augmentation charge: PSQ
     Using radial grid of 1073 points,  4 beta functions with: 
                l(1) =   0
                l(2) =   0
                l(3) =   1
                l(4) =   1
     Q(r) pseudized with 0 coefficients 


     PseudoPot. # 4 for H  read from file:
     /users/bkreitz1/quantum-espresso/potentials/H.pbe-kjpaw_psl.1.0.0.UPF
     MD5 check sum: ae98473e6dc62675f0d0baffdab24f65
     Pseudo is Projector augmented-wave, Zval =  1.0
     Generated using 'atomic' code by A. Dal Corso  v.6.7MaX
     Shape of augmentation charge: PSQ
     Using radial grid of  929 points,  2 beta functions with: 
                l(1) =   0
                l(2) =   0
     Q(r) pseudized with 0 coefficients 


     atomic species   valence    mass     pseudopotential
        Pt            10.00   195.08400     Pt( 1.00)
        O              6.00    15.99900     O ( 1.00)
        C              4.00    12.01100     C ( 1.00)
        H              1.00     1.00800     H ( 1.00)

     No symmetry found



   Cartesian axes

     site n.     atom                  positions (alat units)
         1           Pt  tau(   1) = (   0.0000000   0.0000000   1.0017346  )
         2           Pt  tau(   2) = (   0.3333333   0.0000000   1.0017346  )
         3           Pt  tau(   3) = (   0.6666667   0.0000000   1.0017346  )
         4           Pt  tau(   4) = (   0.1666667   0.2886751   1.0017346  )
         5           Pt  tau(   5) = (   0.5000000   0.2886751   1.0017346  )
         6           Pt  tau(   6) = (   0.8333333   0.2886751   1.0017346  )
         7           Pt  tau(   7) = (   0.3333333   0.5773503   1.0017346  )
         8           Pt  tau(   8) = (   0.6666667   0.5773503   1.0017346  )
         9           Pt  tau(   9) = (   1.0000000   0.5773503   1.0017346  )
        10           Pt  tau(  10) = (   0.1666667   0.0962250   1.2739001  )
        11           Pt  tau(  11) = (   0.5000000   0.0962250   1.2739001  )
        12           Pt  tau(  12) = (   0.8333333   0.0962250   1.2739001  )
        13           Pt  tau(  13) = (   0.3333333   0.3849002   1.2739001  )
        14           Pt  tau(  14) = (   0.6666667   0.3849002   1.2739001  )
        15           Pt  tau(  15) = (   1.0000000   0.3849002   1.2739001  )
        16           Pt  tau(  16) = (   0.5000000   0.6735753   1.2739001  )
        17           Pt  tau(  17) = (   0.8333333   0.6735753   1.2739001  )
        18           Pt  tau(  18) = (   1.1666667   0.6735753   1.2739001  )
        19           Pt  tau(  19) = (   0.0001993   0.1923801   1.5425880  )
        20           Pt  tau(  20) = (   0.3335163   0.1925096   1.5426305  )
        21           Pt  tau(  21) = (   0.6663937   0.1925433   1.5429434  )
        22           Pt  tau(  22) = (   0.1666020   0.4811427   1.5425184  )
        23           Pt  tau(  23) = (   0.5000537   0.4807670   1.5429393  )
        24           Pt  tau(  24) = (   0.8333494   0.4811337   1.5426889  )
        25           Pt  tau(  25) = (   0.3335132   0.7700941   1.5419508  )
        26           Pt  tau(  26) = (   0.6664009   0.7698147   1.5422169  )
        27           Pt  tau(  27) = (   1.0001561   0.7697979   1.5424600  )
        28           Pt  tau(  28) = (  -0.0000683  -0.0002887   1.8173729  )
        29           Pt  tau(  29) = (   0.3331065  -0.0013404   1.8160520  )
        30           Pt  tau(  30) = (   0.6669870  -0.0008581   1.8166139  )
        31           Pt  tau(  31) = (   0.1659617   0.2890488   1.8160946  )
        32           Pt  tau(  32) = (   0.5000673   0.2893230   1.8173087  )
        33           Pt  tau(  33) = (   0.8337557   0.2887960   1.8162630  )
        34           Pt  tau(  34) = (   0.3331362   0.5785607   1.8158617  )
        35           Pt  tau(  35) = (   0.6671254   0.5780500   1.8166761  )
        36           Pt  tau(  36) = (   0.9998049   0.5776461   1.8169981  )
        37           O   tau(  37) = (   0.4983629   0.2644576   2.1439723  )
        38           C   tau(  38) = (   0.3711693   0.3164595   2.2416358  )
        39           O   tau(  39) = (   0.2193701   0.2911698   2.1765726  )
        40           H   tau(  40) = (   0.3808314   0.2608457   2.3578413  )
        41           H   tau(  41) = (   0.3849848   0.4436865   2.2500157  )
        42           H   tau(  42) = (   0.1907242   0.1810696   2.1858275  )
        43           H   tau(  43) = (   0.5057635   0.1504659   2.1477401  )

     number of k points=    13  Marzari-Vanderbilt smearing, width (Ry)=  0.0200
                       cart. coord. in units 2pi/alat
        k(    1) = (   0.0000000   0.0000000   0.0000000), wk =   0.0800000
        k(    2) = (   0.0000000   0.2309401   0.0000000), wk =   0.1600000
        k(    3) = (   0.0000000   0.4618802   0.0000000), wk =   0.1600000
        k(    4) = (   0.2000000  -0.1154701   0.0000000), wk =   0.1600000
        k(    5) = (   0.2000000   0.1154701   0.0000000), wk =   0.1600000
        k(    6) = (   0.2000000   0.3464102   0.0000000), wk =   0.1600000
        k(    7) = (   0.2000000  -0.5773503   0.0000000), wk =   0.1600000
        k(    8) = (   0.2000000  -0.3464102   0.0000000), wk =   0.1600000
        k(    9) = (   0.4000000  -0.2309401   0.0000000), wk =   0.1600000
        k(   10) = (   0.4000000  -0.0000000   0.0000000), wk =   0.1600000
        k(   11) = (   0.4000000   0.2309401   0.0000000), wk =   0.1600000
        k(   12) = (   0.4000000  -0.6928203   0.0000000), wk =   0.1600000
        k(   13) = (   0.4000000  -0.4618802   0.0000000), wk =   0.1600000

     Dense  grid:   742983 G-vectors     FFT dimensions: (  80,  80, 270)

     Estimated max dynamical RAM per process >       9.08 GB

     Check: negative core charge=   -0.000002

     Initial potential from superposition of free atoms

     starting charge  379.99381, renormalised to  380.00000

     negative rho (up, down):  1.151E-02 0.000E+00


     %%%%%%%%%%%%%%%%%%%%%%%%%%%%%%%%%%%%%%%%%%%%%%%%%%%%%%%%%%%%%%%%%%%%%%%%
     %                                                                      %
     % You are using vdW-DF, which was implemented by the Thonhauser group. %
     % Please cite the following two papers that made this development      %
     % possible and the two reviews that describe the various versions:     %
     %                                                                      %
     %   T. Thonhauser et al., PRL 115, 136402 (2015).                      %
     %   T. Thonhauser et al., PRB 76, 125112 (2007).                       %
     %   K. Berland et al., Rep. Prog. Phys. 78, 066501 (2015).             %
     %   D.C. Langreth et al., J. Phys.: Condens. Matter 21, 084203 (2009). %
     %                                                                      %
     %                                                                      %
     % If you are calculating the stress with vdW-DF, please also cite:     %
     %                                                                      %
     %   R. Sabatini et al., J. Phys.: Condens. Matter 24, 424209 (2012).   %
     %                                                                      %
     %%%%%%%%%%%%%%%%%%%%%%%%%%%%%%%%%%%%%%%%%%%%%%%%%%%%%%%%%%%%%%%%%%%%%%%%


     Starting wfcs are  340 randomized atomic wfcs
     Checking if some PAW data can be deallocated... 

     total cpu time spent up to now is      390.6 secs

     Self-consistent Calculation

     iteration #  1     ecut=    60.00 Ry     beta= 0.70
     Davidson diagonalization with overlap
     ethr =  1.00E-02,  avg # of iterations =  2.8

     Threshold (ethr) on eigenvalues was too large:
     Diagonalizing with lowered threshold

     Davidson diagonalization with overlap
     ethr =  5.74E-04,  avg # of iterations =  3.9

     negative rho (up, down):  1.094E-02 0.000E+00

     total cpu time spent up to now is     1970.5 secs

     total energy              =  -27862.89464222 Ry
     estimated scf accuracy    <       2.36325246 Ry

     iteration #  2     ecut=    60.00 Ry     beta= 0.70
     Davidson diagonalization with overlap
     ethr =  6.22E-04,  avg # of iterations =  5.9

     negative rho (up, down):  9.559E-03 0.000E+00

     total cpu time spent up to now is     2699.6 secs

     total energy              =  -27863.04486708 Ry
     estimated scf accuracy    <       1.00362394 Ry

     iteration #  3     ecut=    60.00 Ry     beta= 0.70
     Davidson diagonalization with overlap
     ethr =  2.64E-04,  avg # of iterations =  7.7

     negative rho (up, down):  6.257E-03 0.000E+00

     total cpu time spent up to now is     3462.3 secs

     total energy              =  -27863.08837921 Ry
     estimated scf accuracy    <       0.22495658 Ry

     iteration #  4     ecut=    60.00 Ry     beta= 0.70
     Davidson diagonalization with overlap
     c_bands:  1 eigenvalues not converged
     ethr =  5.92E-05,  avg # of iterations = 13.5

     negative rho (up, down):  3.566E-03 0.000E+00

     total cpu time spent up to now is     4535.5 secs

     total energy              =  -27863.13392844 Ry
     estimated scf accuracy    <       0.07337567 Ry

     iteration #  5     ecut=    60.00 Ry     beta= 0.70
     Davidson diagonalization with overlap
     c_bands:  1 eigenvalues not converged
     c_bands:  1 eigenvalues not converged
     c_bands:  1 eigenvalues not converged
     c_bands:  1 eigenvalues not converged
     ethr =  1.93E-05,  avg # of iterations = 10.5

     negative rho (up, down):  2.967E-03 0.000E+00

     total cpu time spent up to now is     5350.2 secs

     total energy              =  -27863.13986563 Ry
     estimated scf accuracy    <       0.02924827 Ry

     iteration #  6     ecut=    60.00 Ry     beta= 0.70
     Davidson diagonalization with overlap
     c_bands:  1 eigenvalues not converged
     c_bands:  1 eigenvalues not converged
     ethr =  7.70E-06,  avg # of iterations = 10.8

     negative rho (up, down):  2.511E-03 0.000E+00

     total cpu time spent up to now is     6154.8 secs

     total energy              =  -27863.14068017 Ry
     estimated scf accuracy    <       0.00713181 Ry

     iteration #  7     ecut=    60.00 Ry     beta= 0.70
     Davidson diagonalization with overlap
     c_bands:  2 eigenvalues not converged
     c_bands:  2 eigenvalues not converged
     c_bands:  1 eigenvalues not converged
     c_bands:  1 eigenvalues not converged
     ethr =  1.88E-06,  avg # of iterations = 15.2

     negative rho (up, down):  2.444E-03 0.000E+00

     total cpu time spent up to now is     7232.0 secs

     total energy              =  -27863.14231289 Ry
     estimated scf accuracy    <       0.00861311 Ry

     iteration #  8     ecut=    60.00 Ry     beta= 0.70
     Davidson diagonalization with overlap
     ethr =  1.88E-06,  avg # of iterations =  6.6

     negative rho (up, down):  3.526E-03 0.000E+00

     total cpu time spent up to now is     7946.8 secs

     total energy              =  -27863.14257296 Ry
     estimated scf accuracy    <       0.00348274 Ry

     iteration #  9     ecut=    60.00 Ry     beta= 0.70
     Davidson diagonalization with overlap
     c_bands:  1 eigenvalues not converged
     c_bands:  2 eigenvalues not converged
     c_bands:  1 eigenvalues not converged
     ethr =  9.17E-07,  avg # of iterations = 15.4

     negative rho (up, down):  5.107E-03 0.000E+00

     total cpu time spent up to now is     8824.2 secs

     total energy              =  -27863.14278791 Ry
     estimated scf accuracy    <       0.00205001 Ry

     iteration # 10     ecut=    60.00 Ry     beta= 0.70
     Davidson diagonalization with overlap
     c_bands:  1 eigenvalues not converged
     ethr =  5.39E-07,  avg # of iterations =  5.2

     negative rho (up, down):  6.603E-03 0.000E+00

     total cpu time spent up to now is     9527.4 secs

     total energy              =  -27863.14295044 Ry
     estimated scf accuracy    <       0.00095616 Ry

     iteration # 11     ecut=    60.00 Ry     beta= 0.70
     Davidson diagonalization with overlap
     c_bands:  1 eigenvalues not converged
     c_bands:  1 eigenvalues not converged
     ethr =  2.52E-07,  avg # of iterations =  9.2

     negative rho (up, down):  6.940E-03 0.000E+00

     total cpu time spent up to now is    10285.2 secs

     total energy              =  -27863.14306334 Ry
     estimated scf accuracy    <       0.00055661 Ry

     iteration # 12     ecut=    60.00 Ry     beta= 0.70
     Davidson diagonalization with overlap
     c_bands:  1 eigenvalues not converged
     ethr =  1.46E-07,  avg # of iterations =  4.6

     negative rho (up, down):  7.644E-03 0.000E+00

     total cpu time spent up to now is    10997.3 secs

     total energy              =  -27863.14310938 Ry
     estimated scf accuracy    <       0.00038665 Ry

     iteration # 13     ecut=    60.00 Ry     beta= 0.70
     Davidson diagonalization with overlap
     ethr =  1.02E-07,  avg # of iterations =  5.8

     negative rho (up, down):  8.929E-03 0.000E+00

     total cpu time spent up to now is    11704.7 secs

     total energy              =  -27863.14309607 Ry
     estimated scf accuracy    <       0.00023341 Ry

     iteration # 14     ecut=    60.00 Ry     beta= 0.70
     Davidson diagonalization with overlap
     ethr =  6.14E-08,  avg # of iterations =  4.6

     negative rho (up, down):  1.071E-02 0.000E+00

     total cpu time spent up to now is    12414.4 secs

     total energy              =  -27863.14308584 Ry
     estimated scf accuracy    <       0.00012269 Ry

     iteration # 15     ecut=    60.00 Ry     beta= 0.70
     Davidson diagonalization with overlap
     ethr =  3.23E-08,  avg # of iterations =  2.0

     negative rho (up, down):  1.157E-02 0.000E+00

     total cpu time spent up to now is    13110.3 secs

     total energy              =  -27863.14308548 Ry
     estimated scf accuracy    <       0.00011504 Ry

     iteration # 16     ecut=    60.00 Ry     beta= 0.70
     Davidson diagonalization with overlap
     ethr =  3.03E-08,  avg # of iterations =  1.1

     negative rho (up, down):  1.176E-02 0.000E+00

     total cpu time spent up to now is    13748.1 secs

     total energy              =  -27863.14308646 Ry
     estimated scf accuracy    <       0.00006169 Ry

     iteration # 17     ecut=    60.00 Ry     beta= 0.70
     Davidson diagonalization with overlap
     ethr =  1.62E-08,  avg # of iterations =  1.2

     negative rho (up, down):  1.344E-02 0.000E+00

     total cpu time spent up to now is    14390.7 secs

     total energy              =  -27863.14308979 Ry
     estimated scf accuracy    <       0.00002765 Ry

     iteration # 18     ecut=    60.00 Ry     beta= 0.70
     Davidson diagonalization with overlap
     ethr =  7.28E-09,  avg # of iterations =  2.0

     negative rho (up, down):  1.309E-02 0.000E+00

     total cpu time spent up to now is    15099.5 secs

     total energy              =  -27863.14309435 Ry
     estimated scf accuracy    <       0.00003472 Ry

     iteration # 19     ecut=    60.00 Ry     beta= 0.70
     Davidson diagonalization with overlap
     ethr =  7.28E-09,  avg # of iterations =  2.0

     negative rho (up, down):  1.314E-02 0.000E+00

     total cpu time spent up to now is    15780.2 secs

     total energy              =  -27863.14309507 Ry
     estimated scf accuracy    <       0.00000478 Ry

     iteration # 20     ecut=    60.00 Ry     beta= 0.70
     Davidson diagonalization with overlap
     ethr =  1.26E-09,  avg # of iterations =  4.2

     negative rho (up, down):  1.295E-02 0.000E+00

     total cpu time spent up to now is    16630.4 secs

     total energy              =  -27863.14309613 Ry
     estimated scf accuracy    <       0.00000462 Ry

     iteration # 21     ecut=    60.00 Ry     beta= 0.70
     Davidson diagonalization with overlap
     ethr =  1.22E-09,  avg # of iterations =  2.0

     negative rho (up, down):  1.293E-02 0.000E+00

     total cpu time spent up to now is    17315.6 secs

     total energy              =  -27863.14309634 Ry
     estimated scf accuracy    <       0.00000164 Ry

     iteration # 22     ecut=    60.00 Ry     beta= 0.70
     Davidson diagonalization with overlap
     ethr =  4.31E-10,  avg # of iterations =  2.0

     negative rho (up, down):  1.310E-02 0.000E+00

     total cpu time spent up to now is    17987.7 secs

     End of self-consistent calculation

          k = 0.0000 0.0000 0.0000 ( 92939 PWs)   bands (ev):

   -20.4206 -18.9560 -10.7472  -7.0001  -6.9676  -6.6318  -5.6904  -4.9742
    -4.6131  -4.5779  -4.5776  -4.5761  -4.5753  -4.5727  -4.5712  -4.5635
    -4.0241  -4.0186  -4.0166  -4.0155  -4.0152  -4.0146  -3.5483  -3.5465
    -3.5458  -3.5447  -3.5412  -3.5405  -3.3515  -3.3318  -3.3277  -3.3271
    -3.3267  -3.3267  -3.1008  -3.0994  -3.0949  -3.0937  -3.0921  -3.0862
    -3.0837  -3.0828  -3.0788  -3.0768  -3.0706  -3.0590  -2.9435  -2.4857
    -2.4821  -2.4778  -2.4517  -2.4495  -2.3976  -2.3958  -2.3944  -2.3928
    -2.3860  -2.3678  -2.2557  -2.2522  -2.1564  -2.1458  -1.6579  -1.6509
    -1.6474  -1.6459  -1.6445  -1.6438  -1.5796  -1.5094  -1.4905  -1.4903
    -1.4594  -1.4590  -1.4499  -1.4474  -1.4287  -1.4271  -1.4267  -1.4257
    -1.4233  -1.4194  -1.3885  -1.3884  -1.2868  -1.2375  -1.2332  -1.2312
    -1.2273  -1.2264  -1.0970  -1.0820  -1.0786  -1.0757  -1.0749  -1.0732
    -1.0716  -0.9806  -0.9803  -0.8845  -0.8841  -0.8662  -0.8213  -0.8165
    -0.8147  -0.7793  -0.7722  -0.7684  -0.7668  -0.7364  -0.6136  -0.6100
    -0.6074  -0.6045  -0.5967  -0.5753  -0.4614  -0.1176  -0.1133  -0.1124
    -0.1076  -0.1071  -0.1057  -0.0482  -0.0418  -0.0393  -0.0373  -0.0352
    -0.0253   0.0373   0.0411   0.1929   0.2007   0.2041   0.2063   0.2186
     0.2401   0.3445   0.3465   0.3575   0.3579   0.3654   0.3659   0.6154
     0.6173   0.6210   0.6213   0.6236   0.6239   0.6996   0.7009   0.8761
     0.8788   0.8826   0.8844   0.8933   0.9026   1.0495   1.0504   1.0571
     1.0574   1.0582   1.0607   1.0881   1.0899   1.0930   1.0975   1.1201
     1.1485   1.2303   1.2408   1.2433   1.2468   1.2483   1.2496   1.2507
     1.2549   1.3410   1.3439   1.3558   1.3580   1.3593   1.3613   1.3680
     1.3689   1.4537   1.4543   1.4611   1.4636   1.4668   1.4681   1.5584
     1.5686   1.5693   1.5712   1.5767   1.5770   1.7116   1.7881   1.7885
     1.8909   1.8944   1.8984   1.8998   1.9001   1.9032   2.6784   2.7620
     2.7630   2.7761   2.7826   2.8331   2.9687   5.0369   5.0678   5.0892
     5.0945   5.1553   5.2259   5.3227   6.2800   6.6290   6.6523   6.6551
     6.7022   6.7092   6.7125   6.7157

          k = 0.0000 0.2309 0.0000 ( 92828 PWs)   bands (ev):

   -20.4206 -18.9560 -10.7472  -6.9692  -6.8520  -6.6313  -5.5459  -5.0917
    -4.9720  -4.6926  -4.6900  -4.4656  -4.4296  -4.3842  -4.3417  -4.3399
    -4.1337  -4.1121  -3.9583  -3.9545  -3.9387  -3.9358  -3.6589  -3.5252
    -3.5236  -3.4964  -3.4887  -3.4308  -3.4269  -3.3669  -3.3577  -3.3572
    -3.3530  -3.2709  -3.2494  -3.2480  -3.1520  -3.1309  -3.1274  -3.0729
    -3.0672  -2.9512  -2.9068  -2.9039  -2.8751  -2.8695  -2.8453  -2.6074
    -2.6024  -2.5740  -2.5221  -2.5179  -2.4875  -2.4729  -2.4348  -2.2981
    -2.2945  -2.2294  -2.2281  -2.1858  -2.1525  -2.1460  -1.9498  -1.8516
    -1.8487  -1.7699  -1.7660  -1.7274  -1.6933  -1.6523  -1.6479  -1.6297
    -1.6086  -1.6071  -1.5597  -1.4885  -1.4745  -1.4565  -1.4557  -1.3853
    -1.3738  -1.3628  -1.3359  -1.3087  -1.2918  -1.2647  -1.2030  -1.1934
    -1.1740  -1.1718  -1.1458  -1.0815  -1.0766  -1.0709  -1.0614  -1.0552
    -0.9863  -0.9843  -0.9529  -0.9496  -0.8875  -0.8857  -0.8717  -0.8390
    -0.8355  -0.8190  -0.7924  -0.7826  -0.7649  -0.6658  -0.6136  -0.6061
    -0.6028  -0.5904  -0.5833  -0.5700  -0.5627  -0.5349  -0.5117  -0.4953
    -0.4824  -0.4577  -0.2700  -0.1977  -0.1397  -0.0921  -0.0902  -0.0795
    -0.0765  -0.0526  -0.0515   0.1074   0.1134   0.1221   0.2298   0.2687
     0.2715   0.2786   0.2881   0.3831   0.3871   0.3960   0.4024   0.4843
     0.4943   0.4963   0.5225   0.5258   0.7149   0.7245   0.7475   0.7496
     0.7530   0.7802   0.7950   0.8737   0.8819   0.8984   0.9262   0.9570
     0.9907   0.9946   0.9993   1.0039   1.1112   1.1136   1.1434   1.1491
     1.2331   1.2845   1.2888   1.2916   1.2982   1.3160   1.3570   1.3839
     1.4247   1.4292   1.4870   1.4903   1.4946   1.5434   1.5449   1.5468
     1.5504   1.5519   1.5610   1.6249   1.6287   1.7826   1.7864   1.7945
     1.8126   1.8234   1.8248   1.8599   1.9006   1.9015   1.9170   2.0159
     2.0168   2.0405   2.1964   2.2011   2.2034   2.2085   2.3363   2.6614
     2.6756   3.3531   3.3829   3.4020   3.5626   4.3980   4.8287   4.8466
     5.3531   5.5211   5.5231   5.6669   5.6787   5.9523   6.3108   6.4910
     6.4947   6.5798   6.7170   6.8876

          k = 0.0000 0.4619 0.0000 ( 92858 PWs)   bands (ev):

   -20.4206 -18.9560 -10.7472  -6.9688  -6.6343  -6.4263  -5.7922  -5.1428
    -4.9693  -4.7267  -4.7238  -4.5805  -4.3582  -4.2035  -4.0754  -4.0394
    -4.0005  -3.9990  -3.8220  -3.8173  -3.7847  -3.7772  -3.7740  -3.6545
    -3.6191  -3.6160  -3.5667  -3.5642  -3.5036  -3.4793  -3.4287  -3.4269
    -3.3954  -3.1641  -3.1535  -3.1499  -3.1376  -3.1368  -3.1350  -3.0070
    -2.9120  -2.8868  -2.8517  -2.8479  -2.8377  -2.8199  -2.6638  -2.5564
    -2.5526  -2.5440  -2.5404  -2.4900  -2.4759  -2.4535  -2.4252  -2.4082
    -2.3992  -2.3330  -2.3307  -2.2046  -2.2026  -2.1537  -2.1492  -2.0576
    -2.0213  -1.9766  -1.9753  -1.9723  -1.8345  -1.7575  -1.7447  -1.7338
    -1.7295  -1.6455  -1.6405  -1.6195  -1.5101  -1.5057  -1.4919  -1.4862
    -1.3915  -1.3671  -1.3622  -1.3602  -1.3581  -1.3021  -1.2820  -1.2655
    -1.2598  -1.2580  -1.2349  -1.2323  -1.2204  -1.1928  -1.1476  -1.1079
    -1.0929  -1.0809  -1.0802  -1.0418  -1.0381  -0.9602  -0.9343  -0.8680
    -0.8489  -0.8291  -0.8104  -0.7848  -0.7794  -0.7612  -0.7401  -0.7062
    -0.6232  -0.6179  -0.5892  -0.5400  -0.5368  -0.4939  -0.3568  -0.3549
    -0.3201  -0.2707  -0.1914  -0.1845  -0.1706  -0.1491  -0.1481  -0.1438
    -0.1411  -0.0562  -0.0487  -0.0235  -0.0190  -0.0035   0.0062   0.0289
     0.0328   0.0679   0.1057   0.1872   0.2176   0.2228   0.2914   0.3677
     0.3838   0.3881   0.5200   0.5223   0.5833   0.6676   0.6873   0.6940
     0.7188   0.7398   0.7760   0.7797   0.8364   0.8436   0.8867   0.8893
     0.9464   0.9952   0.9974   1.0458   1.0495   1.0619   1.0650   1.1472
     1.2482   1.2519   1.3247   1.3393   1.3444   1.3479   1.4418   1.4490
     1.4538   1.5472   1.5488   1.5596   1.5732   1.6291   1.6478   1.6524
     1.6601   1.7810   1.7858   1.8052   1.8111   1.8128   1.8191   1.8368
     1.8617   2.0094   2.0507   2.0519   2.0590   2.0638   2.2481   2.2823
     2.6665   2.6767   2.7293   2.9749   3.0977   3.0994   3.4974   3.4985
     3.6934   3.8344   4.3094   4.3115   4.3225   4.4308   4.5788   4.5828
     4.7286   4.7495   4.9811   4.9821   5.3821   5.6147   5.7646   6.1348
     6.1413   6.3888   6.5083   6.6181

          k = 0.2000-0.1155 0.0000 ( 92828 PWs)   bands (ev):

   -20.4206 -18.9560 -10.7471  -6.9695  -6.8518  -6.6313  -5.5458  -5.0915
    -4.9723  -4.6915  -4.6905  -4.4658  -4.4296  -4.3849  -4.3410  -4.3401
    -4.1352  -4.1123  -3.9572  -3.9548  -3.9376  -3.9358  -3.6591  -3.5247
    -3.5239  -3.4988  -3.4903  -3.4283  -3.4270  -3.3651  -3.3577  -3.3565
    -3.3536  -3.2734  -3.2485  -3.2480  -3.1500  -3.1291  -3.1277  -3.0708
    -3.0671  -2.9522  -2.9070  -2.9034  -2.8756  -2.8732  -2.8446  -2.6072
    -2.6029  -2.5686  -2.5238  -2.5184  -2.4938  -2.4731  -2.4315  -2.3002
    -2.2933  -2.2300  -2.2276  -2.1850  -2.1529  -2.1458  -1.9471  -1.8552
    -1.8486  -1.7691  -1.7661  -1.7271  -1.6934  -1.6552  -1.6476  -1.6299
    -1.6094  -1.6065  -1.5597  -1.4886  -1.4730  -1.4586  -1.4549  -1.3852
    -1.3761  -1.3628  -1.3391  -1.3089  -1.2945  -1.2565  -1.2008  -1.1929
    -1.1745  -1.1719  -1.1404  -1.0826  -1.0758  -1.0703  -1.0599  -1.0522
    -0.9892  -0.9841  -0.9530  -0.9452  -0.8951  -0.8859  -0.8849  -0.8458
    -0.8382  -0.8031  -0.7947  -0.7825  -0.7587  -0.6675  -0.6149  -0.6082
    -0.6009  -0.5949  -0.5813  -0.5709  -0.5608  -0.5395  -0.5137  -0.4879
    -0.4816  -0.4541  -0.2715  -0.1978  -0.1407  -0.0937  -0.0896  -0.0802
    -0.0746  -0.0539  -0.0490   0.1075   0.1145   0.1208   0.2259   0.2657
     0.2752   0.2829   0.2880   0.3840   0.3855   0.3976   0.4025   0.4842
     0.4947   0.4960   0.5229   0.5256   0.7139   0.7302   0.7492   0.7499
     0.7520   0.7780   0.7860   0.8668   0.8890   0.8978   0.9261   0.9525
     0.9926   0.9951   0.9979   1.0063   1.1089   1.1197   1.1422   1.1492
     1.2355   1.2852   1.2879   1.2921   1.2979   1.3164   1.3565   1.3830
     1.4266   1.4295   1.4848   1.4927   1.4946   1.5417   1.5444   1.5475
     1.5513   1.5518   1.5590   1.6251   1.6273   1.7827   1.7849   1.7952
     1.8123   1.8230   1.8257   1.8597   1.9005   1.9026   1.9167   2.0154
     2.0175   2.0404   2.1983   2.2012   2.2034   2.2336   2.2980   2.6505
     2.7031   3.3372   3.3691   3.4484   3.5470   4.3776   4.8117   4.8874
     5.3657   5.5217   5.5223   5.6539   5.7086   5.9438   6.2781   6.4182
     6.4985   6.5099   6.7267   6.8864

          k = 0.2000 0.1155 0.0000 ( 92828 PWs)   bands (ev):

   -20.4206 -18.9560 -10.7471  -6.9695  -6.8518  -6.6313  -5.5459  -5.0917
    -4.9719  -4.6920  -4.6901  -4.4658  -4.4296  -4.3848  -4.3412  -4.3399
    -4.1349  -4.1122  -3.9574  -3.9547  -3.9375  -3.9363  -3.6594  -3.5249
    -3.5236  -3.4982  -3.4903  -3.4290  -3.4266  -3.3644  -3.3575  -3.3569
    -3.3531  -3.2723  -3.2493  -3.2481  -3.1509  -3.1294  -3.1265  -3.0734
    -3.0671  -2.9577  -2.9049  -2.9039  -2.8754  -2.8716  -2.8423  -2.6070
    -2.6017  -2.5654  -2.5233  -2.5193  -2.4933  -2.4766  -2.4294  -2.3007
    -2.2940  -2.2293  -2.2287  -2.1842  -2.1529  -2.1474  -1.9470  -1.8552
    -1.8488  -1.7690  -1.7644  -1.7300  -1.6926  -1.6536  -1.6471  -1.6302
    -1.6093  -1.6062  -1.5597  -1.4912  -1.4770  -1.4571  -1.4555  -1.3852
    -1.3713  -1.3627  -1.3417  -1.3088  -1.2959  -1.2528  -1.1973  -1.1936
    -1.1748  -1.1716  -1.1366  -1.0814  -1.0782  -1.0703  -1.0621  -1.0555
    -0.9903  -0.9839  -0.9529  -0.9426  -0.8952  -0.8856  -0.8828  -0.8449
    -0.8359  -0.8009  -0.7945  -0.7824  -0.7632  -0.6668  -0.6136  -0.6078
    -0.6013  -0.5941  -0.5818  -0.5708  -0.5636  -0.5374  -0.5138  -0.4884
    -0.4827  -0.4625  -0.2685  -0.1979  -0.1410  -0.0933  -0.0892  -0.0795
    -0.0752  -0.0544  -0.0491   0.1074   0.1147   0.1187   0.2264   0.2658
     0.2750   0.2821   0.2879   0.3827   0.3866   0.3971   0.4009   0.4842
     0.4949   0.4958   0.5232   0.5257   0.7141   0.7295   0.7486   0.7500
     0.7527   0.7803   0.7863   0.8678   0.8880   0.8974   0.9262   0.9555
     0.9918   0.9955   0.9977   1.0071   1.1088   1.1179   1.1422   1.1504
     1.2356   1.2848   1.2875   1.2927   1.2973   1.3161   1.3559   1.3828
     1.4267   1.4291   1.4853   1.4940   1.4946   1.5414   1.5447   1.5474
     1.5506   1.5530   1.5588   1.6249   1.6279   1.7839   1.7847   1.7949
     1.8122   1.8228   1.8256   1.8596   1.9003   1.9025   1.9167   2.0151
     2.0175   2.0404   2.1983   2.2007   2.2040   2.2340   2.2984   2.6516
     2.7008   3.3365   3.3712   3.4453   3.5489   4.3784   4.8138   4.8849
     5.3614   5.5217   5.5224   5.6534   5.7062   5.9460   6.2643   6.4308
     6.4989   6.5092   6.7493   6.8862

          k = 0.2000 0.3464 0.0000 ( 92836 PWs)   bands (ev):

   -20.4206 -18.9560 -10.7472  -6.9691  -6.6365  -6.5612  -5.3398  -5.3380
    -5.2701  -4.9698  -4.2629  -4.2611  -4.2336  -4.2305  -4.1894  -4.1863
    -4.1851  -4.1721  -4.0723  -4.0705  -3.6871  -3.6821  -3.6797  -3.6784
    -3.6146  -3.5937  -3.4507  -3.4270  -3.4243  -3.3979  -3.3958  -3.3310
    -3.2771  -3.2719  -3.2369  -3.2343  -3.1928  -3.1583  -3.1470  -3.1207
    -3.1004  -3.0267  -2.9515  -2.7530  -2.6542  -2.6482  -2.6341  -2.6167
    -2.6129  -2.6044  -2.5918  -2.5419  -2.5213  -2.4473  -2.3658  -2.3597
    -2.3536  -2.2777  -2.2496  -2.2021  -2.1973  -2.1758  -2.0977  -2.0939
    -1.9255  -1.9212  -1.9072  -1.8252  -1.8201  -1.7909  -1.7860  -1.7826
    -1.7119  -1.7081  -1.5584  -1.5357  -1.5331  -1.5279  -1.4724  -1.4647
    -1.4079  -1.3989  -1.3947  -1.3924  -1.2898  -1.2580  -1.2313  -1.2252
    -1.2150  -1.2108  -1.2031  -1.1848  -1.1642  -1.1402  -1.0769  -1.0725
    -1.0474  -1.0054  -0.9802  -0.9725  -0.9201  -0.8995  -0.8606  -0.8538
    -0.8415  -0.8114  -0.7981  -0.7937  -0.7820  -0.7675  -0.7556  -0.7507
    -0.7282  -0.7081  -0.6770  -0.6634  -0.5755  -0.5356  -0.5284  -0.4592
    -0.4555  -0.4461  -0.4236  -0.2679  -0.2641  -0.1263  -0.1056  -0.0722
    -0.0664  -0.0523  -0.0380  -0.0334   0.0099   0.0148   0.0420   0.0580
     0.0979   0.1327   0.2454   0.3244   0.3277   0.3690   0.3765   0.3993
     0.4267   0.4443   0.5702   0.5714   0.5793   0.6281   0.6313   0.7085
     0.7642   0.7800   0.7880   0.7952   0.8652   0.8678   0.8704   0.8863
     0.8945   0.9115   0.9143   0.9257   0.9428   1.0621   1.1243   1.1369
     1.2633   1.2682   1.2926   1.4317   1.4353   1.4395   1.4501   1.5463
     1.5731   1.5837   1.5877   1.5927   1.6267   1.6308   1.6538   1.6574
     1.6640   1.7177   1.7203   1.7410   1.8082   1.8332   1.8363   1.8684
     1.8702   1.9146   2.0485   2.1002   2.1009   2.1789   2.1851   2.1862
     2.2225   2.3326   2.3397   2.7884   2.8628   2.8685   3.3994   3.4027
     3.4334   3.4515   4.0615   4.1139   4.2188   4.3219   4.3724   4.4077
     5.0304   5.4726   5.5104   5.5504   5.5967   5.7514   6.0367   6.1644
     6.2466   6.3336   6.3539   6.3927

          k = 0.2000-0.5774 0.0000 ( 92836 PWs)   bands (ev):

   -20.4206 -18.9560 -10.7472  -6.9690  -6.6334  -6.0313  -6.0273  -5.4220
    -4.9785  -4.7726  -4.7643  -4.2587  -4.2569  -4.1228  -4.0893  -3.9826
    -3.9772  -3.8741  -3.8688  -3.7502  -3.7467  -3.7440  -3.7090  -3.7044
    -3.6830  -3.6764  -3.5552  -3.5386  -3.5360  -3.4977  -3.4925  -3.3948
    -3.3048  -3.2831  -3.2301  -3.1295  -3.1226  -3.1116  -3.1061  -3.0946
    -3.0153  -2.9785  -2.9444  -2.8795  -2.8615  -2.7012  -2.6960  -2.6460
    -2.5440  -2.5369  -2.4916  -2.4832  -2.4466  -2.3710  -2.3286  -2.2815
    -2.2774  -2.2565  -2.2181  -2.2104  -2.1822  -2.0802  -2.0758  -2.0494
    -2.0464  -2.0431  -2.0385  -2.0339  -1.9650  -1.9616  -1.8335  -1.8097
    -1.7615  -1.7599  -1.6440  -1.6092  -1.6034  -1.6018  -1.5565  -1.5139
    -1.5126  -1.4368  -1.4101  -1.4008  -1.3899  -1.3744  -1.3419  -1.2928
    -1.2778  -1.2528  -1.2348  -1.1815  -1.1782  -1.1648  -1.0887  -1.0468
    -1.0024  -0.9961  -0.9584  -0.9556  -0.9189  -0.9110  -0.9032  -0.8928
    -0.8661  -0.8614  -0.8331  -0.8180  -0.7998  -0.7791  -0.7645  -0.7617
    -0.7558  -0.7412  -0.7147  -0.7017  -0.6478  -0.6438  -0.6202  -0.4336
    -0.4152  -0.3360  -0.3288  -0.2252  -0.2183  -0.2086  -0.1805  -0.1289
    -0.1210  -0.1148  -0.1068  -0.0829  -0.0081   0.0187   0.0208   0.0873
     0.0937   0.1360   0.1695   0.2076   0.2399   0.3673   0.4256   0.4314
     0.4523   0.4527   0.5404   0.5520   0.5561   0.5733   0.5790   0.6207
     0.6271   0.6394   0.7436   0.7558   0.7629   0.8165   0.8184   0.8401
     0.8473   0.8606   0.8906   1.0254   1.0766   1.1092   1.1765   1.2036
     1.2659   1.2699   1.3516   1.3912   1.4019   1.4150   1.5051   1.5254
     1.5813   1.6130   1.6216   1.6309   1.6421   1.6698   1.6882   1.7208
     1.7889   1.7929   1.8158   1.8320   1.8400   1.8481   1.8903   1.9182
     2.0483   2.0539   2.0550   2.0578   2.0629   2.1326   2.2106   2.2466
     2.3840   3.2052   3.2064   3.3767   3.4636   3.5299   3.6032   3.6110
     3.6207   4.0474   4.2152   4.2189   4.6730   4.6857   4.7235   4.8179
     4.8200   4.9781   5.0359   5.1159   5.2577   5.5317   5.6447   5.6668
     5.7379   6.0264   6.2942   6.3028

          k = 0.2000-0.3464 0.0000 ( 92836 PWs)   bands (ev):

   -20.4206 -18.9560 -10.7472  -6.9691  -6.6366  -6.5611  -5.3392  -5.3387
    -5.2697  -4.9700  -4.2631  -4.2610  -4.2332  -4.2309  -4.1880  -4.1871
    -4.1855  -4.1722  -4.0724  -4.0705  -3.6871  -3.6824  -3.6794  -3.6779
    -3.6149  -3.5934  -3.4508  -3.4270  -3.4244  -3.3978  -3.3962  -3.3307
    -3.2762  -3.2729  -3.2383  -3.2344  -3.1928  -3.1589  -3.1480  -3.1198
    -3.1002  -3.0255  -2.9458  -2.7519  -2.6555  -2.6495  -2.6340  -2.6170
    -2.6138  -2.6032  -2.5979  -2.5419  -2.5214  -2.4503  -2.3643  -2.3620
    -2.3477  -2.2778  -2.2502  -2.2011  -2.1976  -2.1751  -2.0985  -2.0942
    -1.9250  -1.9206  -1.9071  -1.8234  -1.8193  -1.7932  -1.7868  -1.7820
    -1.7115  -1.7081  -1.5586  -1.5351  -1.5320  -1.5287  -1.4707  -1.4647
    -1.4140  -1.3999  -1.3965  -1.3911  -1.2830  -1.2627  -1.2326  -1.2235
    -1.2147  -1.2111  -1.2052  -1.1860  -1.1642  -1.1402  -1.0752  -1.0737
    -1.0482  -1.0063  -0.9809  -0.9708  -0.9224  -0.9010  -0.8615  -0.8534
    -0.8375  -0.8179  -0.7992  -0.7949  -0.7777  -0.7704  -0.7544  -0.7444
    -0.7294  -0.7010  -0.6787  -0.6682  -0.5756  -0.5337  -0.5233  -0.4607
    -0.4541  -0.4428  -0.4269  -0.2675  -0.2643  -0.1265  -0.1054  -0.0716
    -0.0673  -0.0496  -0.0385  -0.0323   0.0082   0.0158   0.0423   0.0570
     0.0993   0.1327   0.2454   0.3250   0.3269   0.3693   0.3756   0.4006
     0.4276   0.4442   0.5691   0.5739   0.5776   0.6278   0.6306   0.7081
     0.7628   0.7802   0.7892   0.7935   0.8641   0.8689   0.8699   0.8890
     0.8911   0.9122   0.9133   0.9265   0.9399   1.0640   1.1232   1.1367
     1.2633   1.2705   1.2919   1.4311   1.4363   1.4422   1.4483   1.5464
     1.5726   1.5838   1.5868   1.5924   1.6266   1.6307   1.6530   1.6572
     1.6641   1.7170   1.7200   1.7415   1.8086   1.8327   1.8363   1.8688
     1.8700   1.9144   2.0488   2.0999   2.1017   2.1793   2.1837   2.1886
     2.2217   2.3344   2.3386   2.7889   2.8614   2.8691   3.3984   3.4032
     3.4398   3.4453   4.0614   4.1141   4.2213   4.3217   4.3715   4.4055
     5.0299   5.4812   5.5107   5.5576   5.5871   5.7522   6.0448   6.1578
     6.2452   6.3357   6.3487   6.3959

          k = 0.4000-0.2309 0.0000 ( 92858 PWs)   bands (ev):

   -20.4206 -18.9560 -10.7471  -6.9694  -6.6337  -6.4265  -5.7923  -5.1418
    -4.9695  -4.7252  -4.7245  -4.5822  -4.3587  -4.2036  -4.0760  -4.0403
    -3.9999  -3.9990  -3.8196  -3.8163  -3.7848  -3.7770  -3.7742  -3.6556
    -3.6184  -3.6165  -3.5666  -3.5644  -3.5046  -3.4815  -3.4282  -3.4272
    -3.3975  -3.1602  -3.1538  -3.1459  -3.1371  -3.1367  -3.1357  -2.9915
    -2.9127  -2.8966  -2.8515  -2.8487  -2.8379  -2.8252  -2.6592  -2.5555
    -2.5510  -2.5441  -2.5431  -2.4967  -2.4759  -2.4499  -2.4240  -2.4135
    -2.4015  -2.3336  -2.3297  -2.2040  -2.2023  -2.1537  -2.1500  -2.0560
    -2.0203  -1.9771  -1.9741  -1.9707  -1.8339  -1.7574  -1.7467  -1.7353
    -1.7302  -1.6467  -1.6412  -1.6194  -1.5122  -1.5069  -1.4943  -1.4850
    -1.3962  -1.3663  -1.3616  -1.3597  -1.3573  -1.2973  -1.2823  -1.2657
    -1.2599  -1.2567  -1.2357  -1.2331  -1.2185  -1.1876  -1.1426  -1.1081
    -1.0922  -1.0811  -1.0799  -1.0439  -1.0378  -0.9641  -0.9345  -0.8695
    -0.8590  -0.8346  -0.8033  -0.7883  -0.7790  -0.7583  -0.7370  -0.7075
    -0.6214  -0.6194  -0.5889  -0.5436  -0.5315  -0.4934  -0.3578  -0.3553
    -0.3196  -0.2710  -0.1916  -0.1861  -0.1704  -0.1520  -0.1488  -0.1456
    -0.1373  -0.0563  -0.0446  -0.0246  -0.0179  -0.0014   0.0056   0.0220
     0.0354   0.0708   0.1133   0.1872   0.2185   0.2227   0.2911   0.3703
     0.3844   0.3872   0.5198   0.5212   0.5900   0.6455   0.6865   0.6938
     0.7187   0.7389   0.7773   0.7790   0.8331   0.8466   0.8866   0.8908
     0.9462   0.9941   1.0014   1.0472   1.0506   1.0625   1.0645   1.1443
     1.2409   1.2643   1.3251   1.3387   1.3444   1.3473   1.4387   1.4524
     1.4567   1.5444   1.5502   1.5592   1.5760   1.6299   1.6478   1.6509
     1.6598   1.7814   1.7842   1.8047   1.8097   1.8143   1.8189   1.8366
     1.8557   2.0094   2.0509   2.0536   2.0588   2.0645   2.2479   2.2819
     2.6577   2.6916   2.7260   2.9826   3.0983   3.0993   3.4958   3.5006
     3.6874   3.8338   4.3100   4.3108   4.3293   4.3990   4.5746   4.5993
     4.7105   4.8008   4.9751   4.9840   5.4138   5.6111   5.7090   6.1231
     6.1567   6.3277   6.5564   6.6307

          k = 0.4000-0.0000 0.0000 ( 92836 PWs)   bands (ev):

   -20.4206 -18.9560 -10.7471  -6.9696  -6.6358  -6.5617  -5.3403  -5.3376
    -5.2697  -4.9697  -4.2645  -4.2600  -4.2333  -4.2307  -4.1888  -4.1877
    -4.1848  -4.1724  -4.0738  -4.0691  -3.6869  -3.6822  -3.6801  -3.6771
    -3.6148  -3.5932  -3.4507  -3.4270  -3.4251  -3.3995  -3.3958  -3.3312
    -3.2762  -3.2714  -3.2409  -3.2334  -3.1919  -3.1567  -3.1485  -3.1116
    -3.0992  -3.0279  -2.9546  -2.7531  -2.6547  -2.6487  -2.6363  -2.6161
    -2.6130  -2.6025  -2.5924  -2.5420  -2.5191  -2.4543  -2.3644  -2.3620
    -2.3512  -2.2777  -2.2497  -2.2000  -2.1987  -2.1737  -2.0966  -2.0950
    -1.9248  -1.9233  -1.9065  -1.8240  -1.8199  -1.7969  -1.7866  -1.7811
    -1.7119  -1.7079  -1.5622  -1.5356  -1.5329  -1.5261  -1.4716  -1.4661
    -1.4123  -1.3974  -1.3958  -1.3915  -1.2899  -1.2457  -1.2324  -1.2208
    -1.2146  -1.2119  -1.2026  -1.1843  -1.1643  -1.1401  -1.0771  -1.0723
    -1.0510  -1.0046  -0.9820  -0.9718  -0.9184  -0.8954  -0.8638  -0.8540
    -0.8433  -0.8319  -0.7986  -0.7957  -0.7792  -0.7677  -0.7531  -0.7467
    -0.7225  -0.7045  -0.6755  -0.6717  -0.5751  -0.5359  -0.5285  -0.4595
    -0.4521  -0.4426  -0.4270  -0.2681  -0.2635  -0.1263  -0.1049  -0.0727
    -0.0716  -0.0499  -0.0384  -0.0283   0.0079   0.0162   0.0387   0.0620
     0.0992   0.1328   0.2456   0.3193   0.3273   0.3680   0.3788   0.4045
     0.4266   0.4441   0.5629   0.5743   0.5823   0.6274   0.6314   0.7099
     0.7534   0.7864   0.7882   0.8008   0.8636   0.8675   0.8768   0.8829
     0.8893   0.9099   0.9141   0.9278   0.9380   1.0679   1.1206   1.1340
     1.2624   1.2673   1.2987   1.4305   1.4363   1.4399   1.4541   1.5456
     1.5693   1.5831   1.5851   1.6013   1.6247   1.6310   1.6531   1.6549
     1.6633   1.7158   1.7205   1.7405   1.8080   1.8313   1.8389   1.8684
     1.8703   1.9144   2.0492   2.0992   2.1033   2.1667   2.1821   2.1883
     2.2396   2.3292   2.3427   2.7832   2.8602   2.8681   3.4003   3.4020
     3.4210   3.4731   4.0721   4.1204   4.2203   4.3218   4.3583   4.3949
     5.0285   5.4677   5.5108   5.5729   5.6607   5.7530   5.9150   6.2172
     6.2814   6.3333   6.3384   6.3806

          k = 0.4000 0.2309 0.0000 ( 92858 PWs)   bands (ev):

   -20.4206 -18.9560 -10.7471  -6.9695  -6.6336  -6.4266  -5.7924  -5.1425
    -4.9689  -4.7259  -4.7240  -4.5817  -4.3586  -4.2036  -4.0759  -4.0402
    -4.0001  -3.9989  -3.8192  -3.8174  -3.7853  -3.7772  -3.7739  -3.6556
    -3.6185  -3.6164  -3.5670  -3.5640  -3.5045  -3.4810  -3.4281  -3.4269
    -3.3965  -3.1601  -3.1534  -3.1471  -3.1377  -3.1368  -3.1349  -3.0012
    -2.9103  -2.8983  -2.8517  -2.8478  -2.8371  -2.8216  -2.6545  -2.5568
    -2.5499  -2.5450  -2.5417  -2.4967  -2.4792  -2.4464  -2.4234  -2.4131
    -2.4008  -2.3348  -2.3302  -2.2045  -2.2024  -2.1540  -2.1497  -2.0565
    -2.0201  -1.9770  -1.9730  -1.9706  -1.8344  -1.7580  -1.7491  -1.7351
    -1.7298  -1.6467  -1.6441  -1.6206  -1.5130  -1.5073  -1.4928  -1.4847
    -1.3888  -1.3638  -1.3630  -1.3597  -1.3576  -1.2987  -1.2782  -1.2667
    -1.2599  -1.2520  -1.2349  -1.2333  -1.2191  -1.1884  -1.1447  -1.1080
    -1.0915  -1.0851  -1.0801  -1.0440  -1.0384  -0.9625  -0.9345  -0.8707
    -0.8498  -0.8340  -0.8047  -0.7920  -0.7708  -0.7590  -0.7417  -0.7115
    -0.6214  -0.6194  -0.5919  -0.5444  -0.5337  -0.4933  -0.3579  -0.3551
    -0.3184  -0.2710  -0.1917  -0.1878  -0.1705  -0.1512  -0.1480  -0.1469
    -0.1366  -0.0562  -0.0451  -0.0249  -0.0192  -0.0017   0.0027   0.0207
     0.0356   0.0714   0.1129   0.1871   0.2181   0.2212   0.2911   0.3696
     0.3844   0.3874   0.5198   0.5220   0.5897   0.6469   0.6879   0.6958
     0.7185   0.7392   0.7772   0.7793   0.8331   0.8497   0.8868   0.8905
     0.9458   0.9938   1.0014   1.0468   1.0498   1.0630   1.0646   1.1449
     1.2412   1.2617   1.3248   1.3384   1.3441   1.3471   1.4383   1.4527
     1.4554   1.5444   1.5507   1.5620   1.5750   1.6290   1.6491   1.6511
     1.6597   1.7808   1.7849   1.8047   1.8104   1.8143   1.8189   1.8364
     1.8562   2.0093   2.0507   2.0535   2.0587   2.0642   2.2480   2.2820
     2.6576   2.6914   2.7277   2.9818   3.0981   3.0992   3.4962   3.5001
     3.6872   3.8346   4.3095   4.3113   4.3284   4.3992   4.5772   4.5961
     4.7131   4.7994   4.9757   4.9835   5.4099   5.6122   5.6988   6.1242
     6.1550   6.2884   6.5759   6.6522

          k = 0.4000-0.6928 0.0000 ( 92836 PWs)   bands (ev):

   -20.4206 -18.9560 -10.7471  -6.9694  -6.6330  -6.0298  -6.0291  -5.4218
    -4.9771  -4.7729  -4.7661  -4.2584  -4.2563  -4.1229  -4.0891  -3.9812
    -3.9784  -3.8726  -3.8703  -3.7495  -3.7482  -3.7447  -3.7078  -3.7055
    -3.6826  -3.6791  -3.5524  -3.5392  -3.5367  -3.4970  -3.4934  -3.3955
    -3.3062  -3.2825  -3.2256  -3.1288  -3.1226  -3.1099  -3.1058  -3.0924
    -3.0182  -2.9793  -2.9477  -2.8798  -2.8575  -2.7040  -2.6972  -2.6370
    -2.5487  -2.5402  -2.4910  -2.4842  -2.4439  -2.3740  -2.3294  -2.2815
    -2.2779  -2.2575  -2.2159  -2.2108  -2.1827  -2.0797  -2.0763  -2.0497
    -2.0463  -2.0398  -2.0380  -2.0339  -1.9644  -1.9612  -1.8372  -1.8107
    -1.7623  -1.7599  -1.6440  -1.6086  -1.6030  -1.5991  -1.5568  -1.5156
    -1.5131  -1.4365  -1.4083  -1.4035  -1.3908  -1.3734  -1.3392  -1.2848
    -1.2796  -1.2584  -1.2313  -1.1818  -1.1789  -1.1617  -1.0946  -1.0510
    -1.0022  -0.9974  -0.9571  -0.9554  -0.9181  -0.9086  -0.9005  -0.8948
    -0.8647  -0.8608  -0.8290  -0.8115  -0.7978  -0.7786  -0.7637  -0.7606
    -0.7536  -0.7393  -0.7226  -0.7085  -0.6511  -0.6440  -0.6329  -0.4302
    -0.4156  -0.3336  -0.3310  -0.2258  -0.2150  -0.2111  -0.1813  -0.1290
    -0.1212  -0.1182  -0.1019  -0.0823  -0.0089   0.0177   0.0215   0.0896
     0.1033   0.1334   0.1719   0.1942   0.2468   0.3678   0.4273   0.4286
     0.4508   0.4538   0.5414   0.5495   0.5528   0.5733   0.5860   0.6148
     0.6276   0.6385   0.7475   0.7509   0.7653   0.8167   0.8179   0.8395
     0.8463   0.8646   0.8880   1.0251   1.0758   1.1104   1.1821   1.1936
     1.2678   1.2697   1.3521   1.3977   1.4038   1.4123   1.5120   1.5171
     1.5810   1.6117   1.6228   1.6340   1.6373   1.6744   1.6907   1.7167
     1.7900   1.7918   1.8148   1.8383   1.8420   1.8494   1.8839   1.9099
     2.0474   2.0544   2.0555   2.0582   2.0629   2.1319   2.2162   2.2471
     2.3842   3.2054   3.2062   3.4076   3.4382   3.5172   3.6045   3.6121
     3.6188   4.0612   4.2155   4.2184   4.6712   4.6983   4.7036   4.8162
     4.8214   5.0327   5.0552   5.1185   5.1344   5.5638   5.6476   5.6568
     5.7685   6.1031   6.2853   6.3033

          k = 0.4000-0.4619 0.0000 ( 92836 PWs)   bands (ev):

   -20.4206 -18.9560 -10.7471  -6.9694  -6.6331  -6.0305  -6.0283  -5.4219
    -4.9760  -4.7722  -4.7680  -4.2585  -4.2560  -4.1228  -4.0891  -3.9808
    -3.9786  -3.8726  -3.8704  -3.7502  -3.7477  -3.7440  -3.7074  -3.7059
    -3.6821  -3.6800  -3.5526  -3.5388  -3.5370  -3.4970  -3.4934  -3.3954
    -3.3078  -3.2824  -3.2249  -3.1289  -3.1226  -3.1099  -3.1061  -3.0918
    -3.0095  -2.9791  -2.9517  -2.8805  -2.8593  -2.7045  -2.6972  -2.6413
    -2.5507  -2.5361  -2.4897  -2.4831  -2.4462  -2.3742  -2.3296  -2.2798
    -2.2782  -2.2578  -2.2166  -2.2106  -2.1828  -2.0804  -2.0753  -2.0496
    -2.0467  -2.0402  -2.0380  -2.0337  -1.9645  -1.9615  -1.8345  -1.8106
    -1.7617  -1.7594  -1.6440  -1.6104  -1.6027  -1.6000  -1.5577  -1.5149
    -1.5128  -1.4409  -1.4072  -1.4029  -1.3931  -1.3792  -1.3414  -1.2868
    -1.2798  -1.2464  -1.2314  -1.1806  -1.1786  -1.1613  -1.0920  -1.0479
    -1.0034  -0.9975  -0.9589  -0.9570  -0.9201  -0.9102  -0.9014  -0.8938
    -0.8671  -0.8632  -0.8339  -0.8121  -0.7952  -0.7795  -0.7632  -0.7607
    -0.7540  -0.7365  -0.7249  -0.7058  -0.6482  -0.6445  -0.6272  -0.4274
    -0.4166  -0.3341  -0.3305  -0.2256  -0.2156  -0.2105  -0.1814  -0.1274
    -0.1223  -0.1183  -0.1020  -0.0826  -0.0093   0.0192   0.0206   0.0901
     0.1038   0.1324   0.1701   0.1926   0.2495   0.3682   0.4275   0.4296
     0.4518   0.4537   0.5418   0.5491   0.5510   0.5733   0.5869   0.6143
     0.6295   0.6370   0.7484   0.7514   0.7646   0.8162   0.8178   0.8399
     0.8466   0.8649   0.8856   1.0238   1.0744   1.1116   1.1816   1.1954
     1.2681   1.2696   1.3517   1.3983   1.4043   1.4119   1.5100   1.5183
     1.5813   1.6113   1.6227   1.6326   1.6370   1.6762   1.6883   1.7177
     1.7900   1.7916   1.8145   1.8377   1.8417   1.8496   1.8836   1.9106
     2.0476   2.0544   2.0556   2.0585   2.0630   2.1320   2.2166   2.2470
     2.3849   3.2054   3.2063   3.4079   3.4371   3.5194   3.6043   3.6099
     3.6188   4.0612   4.2166   4.2180   4.6703   4.6928   4.7087   4.8190
     4.8197   5.0355   5.0680   5.1159   5.1206   5.5613   5.6484   5.6581
     5.7778   6.0928   6.2954   6.3011

     the Fermi energy is     1.8238 ev

!    total energy              =  -27863.14309578 Ry

     total all-electron energy =  -1327025.366387 Ry
     estimated scf accuracy    <       0.00000045 Ry
     smearing contrib. (-TS)   =       0.00195138 Ry
     internal energy E=F+TS    =  -27863.14504716 Ry

     The total energy is F=E-TS. E is the sum of the following terms:
     one-electron contribution =  -29279.47123177 Ry
     hartree contribution      =   14946.11334757 Ry
     xc contribution           =    -913.34644325 Ry
     ewald contribution        =   12884.33100883 Ry
     one-center paw contrib.   =  -25500.77172854 Ry

     convergence has been achieved in  22 iterations

     negative rho (up, down):  1.310E-02 0.000E+00

     Forces acting on atoms (cartesian axes, Ry/au):

     atom    1 type  1   force =    -0.00017749    0.00016106   -0.00462353
     atom    2 type  1   force =    -0.00013588    0.00014165   -0.00317326
     atom    3 type  1   force =     0.00034280    0.00022051   -0.00380603
     atom    4 type  1   force =    -0.00002393   -0.00021033   -0.00337281
     atom    5 type  1   force =     0.00002923   -0.00011450   -0.00359115
     atom    6 type  1   force =     0.00002848   -0.00035742   -0.00305946
     atom    7 type  1   force =     0.00008905    0.00014934   -0.00305444
     atom    8 type  1   force =    -0.00004906    0.00013112   -0.00308426
     atom    9 type  1   force =    -0.00001927    0.00002624   -0.00317646
     atom   10 type  1   force =     0.00007844    0.00014996    0.00344671
     atom   11 type  1   force =     0.00014831    0.00030357    0.00341535
     atom   12 type  1   force =     0.00001372    0.00047034    0.00473647
     atom   13 type  1   force =     0.00019876   -0.00012963    0.00275896
     atom   14 type  1   force =    -0.00015141   -0.00001320    0.00308043
     atom   15 type  1   force =    -0.00000388    0.00030479    0.00269583
     atom   16 type  1   force =     0.00019469   -0.00070101    0.00304221
     atom   17 type  1   force =     0.00016704   -0.00039853    0.00272627
     atom   18 type  1   force =    -0.00027238   -0.00033690    0.00264765
     atom   19 type  1   force =    -0.00001473    0.00012527    0.00013487
     atom   20 type  1   force =     0.00002401    0.00007493    0.00037605
     atom   21 type  1   force =     0.00000538    0.00008715    0.00025961
     atom   22 type  1   force =     0.00000577    0.00011481    0.00012194
     atom   23 type  1   force =     0.00000533    0.00007214    0.00020566
     atom   24 type  1   force =     0.00005376    0.00012378    0.00013422
     atom   25 type  1   force =    -0.00000153    0.00001642    0.00027460
     atom   26 type  1   force =     0.00003404   -0.00014150    0.00026126
     atom   27 type  1   force =     0.00000145   -0.00019258    0.00007586
     atom   28 type  1   force =     0.00006444    0.00024252    0.00023659
     atom   29 type  1   force =     0.00008734    0.00050493    0.00018102
     atom   30 type  1   force =    -0.00014039    0.00042523    0.00027364
     atom   31 type  1   force =     0.00025107    0.00005816    0.00016287
     atom   32 type  1   force =    -0.00010047   -0.00003866    0.00052137
     atom   33 type  1   force =    -0.00018355    0.00004782    0.00039039
     atom   34 type  1   force =     0.00006977   -0.00003721    0.00027381
     atom   35 type  1   force =    -0.00011907   -0.00011178    0.00037819
     atom   36 type  1   force =     0.00002881   -0.00003955    0.00026543
     atom   37 type  2   force =    -0.00133799   -0.00179309    0.00159862
     atom   38 type  3   force =    -0.00011672    0.00015866   -0.00193202
     atom   39 type  2   force =     0.00046988   -0.00103782    0.00022024
     atom   40 type  4   force =    -0.00026655    0.00034572   -0.00088870
     atom   41 type  4   force =    -0.00039255   -0.00049898    0.00018094
     atom   42 type  4   force =     0.00024251    0.00058424   -0.00038546
     atom   43 type  4   force =     0.00087278    0.00111234   -0.00092947

     Total force =     0.004434     Total SCF correction =     0.001529
     SCF correction compared to forces is large: reduce conv_thr to get better values

     negative rho (up, down):  1.310E-02 0.000E+00

     negative rho (up, down):  1.310E-02 0.000E+00

     negative rho (up, down):  1.310E-02 0.000E+00

     negative rho (up, down):  1.310E-02 0.000E+00

     negative rho (up, down):  1.310E-02 0.000E+00

     negative rho (up, down):  1.310E-02 0.000E+00

     negative rho (up, down):  1.310E-02 0.000E+00

     negative rho (up, down):  1.310E-02 0.000E+00

     negative rho (up, down):  1.310E-02 0.000E+00

     negative rho (up, down):  1.310E-02 0.000E+00

     negative rho (up, down):  1.310E-02 0.000E+00

     negative rho (up, down):  1.310E-02 0.000E+00

     negative rho (up, down):  1.310E-02 0.000E+00

     negative rho (up, down):  1.310E-02 0.000E+00

     negative rho (up, down):  1.310E-02 0.000E+00

     negative rho (up, down):  1.310E-02 0.000E+00

     negative rho (up, down):  1.310E-02 0.000E+00

     negative rho (up, down):  1.310E-02 0.000E+00

     negative rho (up, down):  1.310E-02 0.000E+00

     negative rho (up, down):  1.310E-02 0.000E+00

     negative rho (up, down):  1.310E-02 0.000E+00

     negative rho (up, down):  1.310E-02 0.000E+00

     negative rho (up, down):  1.310E-02 0.000E+00

     negative rho (up, down):  1.310E-02 0.000E+00

     negative rho (up, down):  1.310E-02 0.000E+00

     negative rho (up, down):  1.310E-02 0.000E+00

     negative rho (up, down):  1.310E-02 0.000E+00

     negative rho (up, down):  1.310E-02 0.000E+00

     negative rho (up, down):  1.310E-02 0.000E+00

     negative rho (up, down):  1.310E-02 0.000E+00

     negative rho (up, down):  1.310E-02 0.000E+00

     negative rho (up, down):  1.310E-02 0.000E+00

     negative rho (up, down):  1.310E-02 0.000E+00

     negative rho (up, down):  1.310E-02 0.000E+00
 BEEFens 2000 ensemble energies
             -0.611506245074293E+02
             -0.363121957782940E+01
             -0.159361657313389E+02
              0.432928417490267E+02
             -0.222906444552116E+02
             -0.206752351731594E+02
             -0.355984663993299E+02
             -0.872324789188192E+02
             -0.468437668082884E+02
             -0.476310326023275E+02
             -0.372037320789263E+02
              0.232177691720152E+01
              0.407081158402687E+01
              0.762420087844981E+01
              0.268747291904401E+01
              0.478575488089962E+02
             -0.210655216646196E+02
             -0.231480973203458E+02
              0.194150475875036E+02
             -0.113280357280710E+03
              0.540906211499635E+02
             -0.291485253718065E+02
             -0.338976357718011E+01
             -0.115104491101443E+02
             -0.884191463335083E+01
             -0.469840311928951E+01
              0.889820857900447E+02
             -0.188582183632934E+02
             -0.908805733400800E+01
             -0.522555463358862E+02
              0.821423805145103E+02
             -0.188127900046068E+02
             -0.378098611846808E+02
              0.251052530809242E+02
             -0.287462710514421E+01
              0.165640034644056E+02
             -0.487218618292400E+01
              0.108544073073031E+02
              0.290444635402502E+02
             -0.104094278982185E+03
              0.562843455111113E+02
              0.143337921245596E+02
             -0.178324982124730E+01
             -0.364103724039259E+02
              0.124025954683205E+02
             -0.148228310750293E+02
              0.402012440841227E+02
              0.367761996395537E+02
             -0.310054544440884E+02
             -0.277274678406643E+02
             -0.330406457389738E+02
             -0.354926447096708E+02
              0.137418621877867E+02
             -0.495009120996881E+02
              0.116849628748174E+02
              0.627937436359309E+02
              0.640891747101822E+02
              0.358662165971851E+02
              0.155680636341137E+02
              0.272869744003608E+02
              0.898688792573869E+02
              0.214275578510159E+02
             -0.553051048479994E+02
             -0.158107868608830E+02
             -0.238007197965940E+02
              0.634633712990577E+02
             -0.779676560780047E+02
             -0.676440139897486E+02
             -0.261750918098688E+02
             -0.658674246112309E+01
             -0.474192056845091E+02
              0.272878691545116E+02
              0.810042236142817E+01
              0.878652898440617E+01
             -0.400286795695852E+02
             -0.349590481523934E+02
             -0.546349359998957E+02
              0.393122161197714E+02
             -0.298583731819254E+02
              0.267476473969971E+02
             -0.720595583153120E+01
             -0.320345215011799E+02
             -0.580733050390998E+02
             -0.177740819646368E+02
             -0.914618672241272E+01
             -0.126124227207299E+02
              0.415485692666808E+02
              0.688515812749785E+02
             -0.389065908266065E+02
             -0.801111255996281E+02
             -0.221164052709265E+02
              0.112394503104518E+03
             -0.596923513339489E+02
              0.358539220406089E+02
             -0.965346950502908E+01
             -0.668136141437263E+02
              0.256553523298419E+02
              0.400981853378551E+02
             -0.199843789911864E+02
              0.402677999974696E+02
             -0.297965509610015E+02
             -0.482475722970032E+02
              0.873032115962142E+02
              0.457486667563620E+02
              0.338842278605261E+02
              0.147385399378861E+02
              0.207353991797874E+02
              0.862909546093805E+02
             -0.258914296263718E+02
              0.791180219328182E+01
             -0.143499599029002E+03
              0.182841440519248E+02
             -0.721468855794419E+02
              0.152087323583372E+02
              0.206353261279357E+02
             -0.335641720447608E+02
             -0.561331928525578E+02
              0.655920060740095E+01
             -0.306396750596805E+02
              0.310951123710103E+02
             -0.533633936708344E+02
              0.168364144091049E+01
             -0.359812669963546E+02
             -0.426295815039941E+01
             -0.105753035245866E+01
              0.182462410128856E+02
              0.141271457256164E+01
             -0.657279446266205E+01
              0.595344444336679E+02
              0.915498557028336E+02
              0.487848551350438E+02
              0.836298363349185E+02
             -0.116309903156856E+02
              0.143719024834625E+02
              0.545571651507473E+02
             -0.111261710475730E+02
             -0.742043648001002E+02
             -0.387207117221210E+02
             -0.525586566203346E+02
             -0.279094244572174E+02
              0.329188368750855E+02
             -0.117711065104373E+03
             -0.188395372840321E+02
              0.417383183076552E+02
             -0.389206580068495E+02
             -0.367897952269949E+02
              0.548344487738076E+02
              0.404433567559005E+02
             -0.356556704074191E+02
              0.139519688920606E+02
             -0.275228781019955E+02
              0.346082628258314E+02
              0.450681938601934E+01
              0.212204470809410E+02
             -0.891569720642034E+02
             -0.484111939720331E+02
             -0.100441105355014E+02
              0.319606740966298E+01
             -0.370091548865659E+02
              0.106855630147492E+03
             -0.232503636306008E+02
             -0.401117438801725E+02
              0.392018157728610E+02
             -0.497934277014878E+02
             -0.365837663781146E+02
              0.327062445657212E+02
              0.125238409014805E+02
              0.165543182940430E+02
              0.117431674131924E+02
             -0.133649684342377E+02
              0.226450704836808E+02
              0.594896948218314E+02
             -0.314085499237887E+02
              0.163869757023998E+02
              0.941653813399902E+02
              0.343217335839222E+02
             -0.736183469372554E+01
             -0.189912780156637E+02
              0.154561511181959E+03
             -0.165575373968017E+02
              0.366044573328729E+02
              0.196438912436241E+02
              0.364231283522558E+02
              0.899225520974840E+02
              0.546538458827498E+02
             -0.243327090722680E+01
              0.229471274877358E+02
              0.488499402556305E+02
              0.366629002590337E+02
             -0.530383641694422E+02
              0.943313882247627E+02
             -0.832603822595499E+02
             -0.199299792345449E+02
              0.587328666336675E+02
              0.682698030346254E+01
              0.790831883282476E+01
              0.343409951352157E+02
              0.300635347014077E+02
              0.356506845695937E+02
             -0.642485489754715E+02
              0.290214873787852E+01
             -0.299538099186091E+02
             -0.877125998440266E+01
             -0.145641322317545E+01
             -0.730104850017182E+01
             -0.419870091650012E+01
              0.865988126982003E+02
             -0.101612060862456E+02
             -0.278656591252440E+02
             -0.497773343172323E+01
              0.140801739152411E+02
             -0.568661689315493E+02
             -0.410934540723778E+02
             -0.384756443303406E+02
             -0.635018105255638E+02
             -0.170869274496682E+02
             -0.450648373062604E+02
              0.165029588198176E+02
             -0.239689869402528E+01
             -0.105468543426989E+02
             -0.941203398134974E+01
              0.812636157796351E+01
             -0.244315174494963E+02
              0.694421812916859E+02
             -0.813910610073941E+02
             -0.142244889127827E+02
             -0.175292721898250E+02
              0.183316192114158E+02
              0.215601002191271E+02
             -0.467305000747644E+02
             -0.203009965770724E+02
              0.444361209981543E+02
             -0.277918137607921E+02
              0.188009361130153E+02
              0.385810463339955E+02
             -0.322885914290100E+01
              0.115017487607199E+03
             -0.231335614013720E+02
             -0.343590726645808E+02
              0.582740665740221E+01
             -0.230139460981175E+02
              0.531655675773301E+02
             -0.340425397399004E+02
              0.107144128050709E+02
              0.645192050832412E+02
             -0.127624902893897E+02
              0.121163203882083E+03
              0.126892548672223E+03
             -0.655160856186449E+02
              0.595008462847416E+02
              0.167861592246514E+02
             -0.522080363943053E+02
              0.217597949356594E+02
              0.356899752129258E+02
              0.365985795196682E+02
              0.137235082741216E+01
              0.160570565271453E+02
              0.701600384663867E+02
             -0.248674267212011E+02
              0.182369887881852E+02
              0.744970529927792E+02
             -0.375501794502511E+02
             -0.131103655549202E+02
              0.512849915935903E+02
              0.299539175209431E+02
              0.786135761526000E+02
              0.225015613138277E+02
              0.633080810075774E+01
              0.282451085125924E+02
              0.386486958141066E+02
             -0.475600406977506E+02
              0.335252439707068E+01
              0.131400661978784E+02
              0.114483032406671E+02
              0.222291848861834E+02
             -0.579649257272284E+02
              0.368524111372998E+02
             -0.447237326756988E+02
             -0.349830421759993E+02
              0.179370713218482E+02
             -0.182433664637498E+02
              0.559233181812922E+02
             -0.257778555891050E+02
              0.269094915967343E+02
              0.370371133427018E+02
              0.835312131543605E+02
              0.578963979007748E+02
              0.465839150971939E+02
             -0.106351830139671E+02
             -0.396114269587724E+01
             -0.334718551545392E+02
              0.756753654135842E+02
              0.803362047981527E+02
              0.364877257949222E+02
             -0.193995058660908E+02
              0.515633419109270E+02
             -0.163293889430307E+02
              0.216594049750925E+02
              0.619548072409369E+02
              0.211194678223023E+01
             -0.105162034898729E+02
             -0.284763250371849E+02
             -0.516025718602126E+02
              0.952965305992824E+02
              0.443498692861893E+02
             -0.563675022859259E+02
             -0.977644816542897E+01
              0.252147415256490E+02
             -0.100763565338304E+02
              0.597077307577165E+02
              0.153128918023922E+02
              0.805226639283979E+02
              0.281878822615633E+02
             -0.266018849782282E+02
              0.250620189036891E+02
             -0.505769657467334E+01
             -0.325861478810755E+02
              0.134591219042153E+02
              0.207032753554188E+02
              0.939770690423877E+02
              0.803512084957386E+02
              0.555247154019246E+02
              0.735971529652400E+02
              0.807028677272618E+01
             -0.275800860460938E+02
              0.164133865069019E+02
             -0.370655943872442E+02
             -0.480486512581435E+02
             -0.568306421152191E+02
             -0.268933671800144E+02
             -0.110549636921674E+03
             -0.293990185723914E+02
             -0.844129011550273E+02
              0.211640368465852E+02
             -0.480722960553832E+02
              0.400276701690854E+02
             -0.948928214197065E+02
             -0.332431329589079E+02
              0.552122438207414E+02
              0.209311831370782E+02
             -0.837454525147471E+02
              0.635447767641140E+02
             -0.258910095740253E+02
              0.516696283911016E+02
             -0.244889993140428E+02
             -0.757688879266071E+02
              0.113175738642233E+02
             -0.616507518988093E+02
             -0.169072879554603E+02
             -0.148046628099572E+01
              0.421705032850748E+02
              0.127981724916731E+03
             -0.465260748516589E+02
             -0.365326513769357E+02
             -0.100199541960774E+01
             -0.131506504901939E+02
             -0.828777864259933E+02
             -0.601311109543461E+02
              0.521126401839512E+02
             -0.290889491403365E+02
              0.170445690655473E+02
             -0.493199239388762E+02
             -0.133096654741354E+02
             -0.440377882350785E+02
              0.569425567358007E+02
              0.152137835539307E+02
             -0.233364869605783E+02
             -0.128032650816987E+02
              0.676017008912864E+01
             -0.627884032129384E+01
              0.444903316941973E+02
             -0.254061924677965E+02
              0.284212482659325E+01
              0.342004495736537E+02
              0.172504091400039E+02
             -0.161417454908526E+02
              0.157476933036275E+03
              0.542413933218982E+02
              0.121080361816179E+01
              0.161951829383369E+02
             -0.619785448629368E+02
              0.317352913385145E+02
             -0.727629282527370E+02
             -0.254321885544771E+02
             -0.527159875170955E+02
             -0.221375070151807E+02
              0.573568330526273E+02
             -0.541632005951817E+02
              0.162513226082023E+02
             -0.410324056266950E+01
              0.389183252339407E+01
             -0.436509673224950E+02
             -0.481569854367046E+02
             -0.400653073725755E+01
             -0.428249414878984E+02
             -0.219033246537764E+02
             -0.441490118210149E+02
             -0.119958902548101E+02
             -0.361720196992411E+02
             -0.520583823750247E+02
              0.214846822485800E+02
             -0.210584835211848E+02
              0.189511360953548E+02
              0.984704590565393E+01
             -0.743876490252416E+02
             -0.552413151112193E+02
             -0.401576040327424E+02
              0.357275071463821E+02
              0.268840772095211E+01
             -0.631857801178309E+02
              0.590225415206639E+02
             -0.404437790104070E+02
              0.549030780396014E+02
             -0.292115280076914E+02
             -0.449973434698621E+02
              0.300393649570811E+02
             -0.663191416797011E+02
             -0.382984963577715E+02
              0.677790186099326E+02
              0.205476265748758E+02
             -0.363448604530194E+02
              0.493943374915935E+02
             -0.175506551906756E+02
             -0.326019552145220E+02
             -0.304362096705440E+02
             -0.504550594513905E+02
              0.251271787341195E+02
             -0.940087270654650E+02
             -0.846751314218637E+02
             -0.742361101959250E+01
             -0.309038214556364E+02
             -0.580180498095030E+02
              0.727518909397619E+02
              0.132583462374897E+03
             -0.363417479138507E+02
             -0.256247129832195E+01
             -0.642274541284772E+02
              0.655552500682312E+02
              0.172481880471241E+02
             -0.183392881505088E+02
             -0.413018419420884E+02
              0.149965856800163E+02
             -0.591061545112951E+02
             -0.199212770105667E+02
             -0.911830360952799E+02
              0.339832510282871E+02
              0.170087292081786E+02
              0.182568250568681E+01
             -0.710749034852279E+01
             -0.332698706948886E+02
             -0.766516055339548E+01
              0.126575246075994E+03
             -0.200234020661970E+02
             -0.441298881077850E+02
             -0.689192551396482E+02
              0.110389582497301E+02
             -0.345023272166474E+02
              0.598064486437247E+01
              0.264018935258158E+02
              0.102508125853150E+02
              0.280459671089309E+02
              0.120995566678760E+02
              0.634139629704367E+02
              0.319157358953570E+02
             -0.329277310209638E+02
              0.359286023366726E+02
              0.382256197568171E+02
              0.121805532338084E+02
              0.490508020058932E+02
             -0.226757351903418E+02
              0.771341686560595E+02
              0.173909174863643E+02
             -0.274705647371274E+02
             -0.729645471388002E+01
             -0.187874375469736E+02
              0.263493279441365E+02
             -0.236641695770334E+02
             -0.168112041412826E+00
             -0.861064494192249E+01
              0.816052763899459E+02
              0.504615622942213E+02
             -0.692616733697264E+02
             -0.480394612358012E+01
             -0.559721316173847E+02
             -0.160691261009165E+02
             -0.270158495718686E+02
              0.383899207317643E+01
              0.563440107061732E+00
             -0.259773741924387E+02
              0.824800649315370E+01
             -0.608316533580079E+01
             -0.129446673809368E+02
              0.865750395621578E+02
              0.183261251416887E+02
             -0.813360394185120E+02
             -0.461798518644717E+02
              0.952236252428581E+02
              0.279905423842518E+02
             -0.107371580857581E+02
              0.105440617750568E+03
             -0.196274798070953E+02
             -0.123787038361100E+02
             -0.545345023194056E+01
              0.108774436987618E+02
              0.274689602249691E+02
              0.782498328849775E+01
              0.307476111831265E+02
             -0.188951913684192E+02
             -0.306397982178098E+02
             -0.421114691393163E+02
             -0.480922442742544E+02
              0.467472704949660E+02
              0.127946477120275E+02
              0.390692912057932E+02
              0.134737226416431E+02
              0.862729508686395E+02
              0.157815692642107E+02
             -0.852113180359614E+02
             -0.337207988177057E+02
              0.134421107809853E+02
             -0.304979014064428E+02
              0.631469791562091E+02
             -0.900150186245651E+01
              0.150178558165042E+02
              0.501339029567341E+02
             -0.713376519001565E+02
              0.150921346610019E+03
              0.210305625297742E+02
              0.273056916784652E+02
              0.350557502321629E+02
              0.104561706107361E+02
             -0.157066548746650E+01
              0.361203836326481E+02
             -0.360076557886732E+02
              0.779891944663837E+02
              0.690687037884595E+02
             -0.409335005179885E+02
              0.151136851754359E+02
              0.675893924015227E+02
             -0.225663537799831E+02
              0.155564882267602E+02
              0.438379283914653E+02
              0.425710590409344E+02
             -0.791136955378770E+02
             -0.153697618603121E+02
             -0.358900138981835E+02
             -0.154332604258690E+01
             -0.770613967283233E+01
             -0.542924389290715E+01
             -0.182029354542739E+02
             -0.296330776512859E+02
              0.643447758275519E+01
              0.112520262669964E+02
              0.540047606195410E+02
             -0.393764917832567E+02
              0.377680352039295E+02
              0.442277611776345E+02
             -0.187835503353533E+02
              0.879062291403584E+02
             -0.703186092937650E+02
             -0.104018789304252E+03
             -0.662427609423655E+01
             -0.277901977558349E+01
              0.386125652171393E+01
              0.795666652738479E+02
             -0.107465368392414E+02
              0.419989866255882E+02
              0.447882464149398E+02
              0.388239711772977E+02
             -0.999543666435238E+01
              0.632561261412516E+02
             -0.135010529431754E+02
             -0.310279312650647E+02
             -0.483214726017653E+02
              0.592572032656099E+01
              0.372866144244521E+02
             -0.605587528547733E+01
              0.395930622973187E+02
             -0.174694365712895E+01
              0.660122980985234E+02
              0.188973132856103E+02
              0.100388466940548E+02
             -0.121971388287822E+02
              0.334838942952161E+02
              0.365678063321716E+02
              0.234093137356459E+02
             -0.524783688450043E+00
             -0.554778607640551E+02
              0.263144437564422E+02
              0.176784137445165E+02
              0.405548526349577E+02
              0.274879674669090E+02
              0.375137925291957E+02
             -0.608370130578328E+01
              0.253486880491588E+02
             -0.300457301226718E+02
             -0.200086107744949E+01
             -0.573592249702627E+02
             -0.310427470527869E+02
              0.382077900932680E+02
             -0.942849373760430E+02
              0.296742995753273E+02
              0.185270101656082E+02
              0.846857689193787E+02
             -0.302395986207400E+02
              0.331888173194028E+02
             -0.138595890553586E+02
             -0.467876066022909E+02
             -0.767113737884853E+02
             -0.534424562141497E+01
             -0.867308441919997E+02
              0.200760872720507E+02
             -0.249185733236342E+02
              0.308233772149427E+02
              0.238376114304640E+02
             -0.243364656609177E+02
             -0.267704830269694E+02
              0.394194507307519E+02
             -0.592894123093142E+02
             -0.117740945882043E+02
             -0.197666818396385E+02
              0.214660970340628E+02
             -0.892959933709125E+01
              0.365863632717969E+01
             -0.202319437320666E+02
              0.563131846772141E+02
             -0.443598903362617E+02
              0.798849465152421E+01
              0.590282149112874E+02
             -0.326144738350842E+02
              0.361645115265256E+01
             -0.882881223851894E+01
             -0.675136863397387E+02
             -0.486203880317269E+02
             -0.866220738920931E+01
              0.242938255132996E+02
              0.304815099783506E+02
              0.864696881823727E+01
             -0.419747651452678E+01
              0.153780400328780E+02
             -0.443467989775307E+02
              0.330608579182234E+01
             -0.535220074326788E+02
             -0.326689372521911E+02
              0.478599568331509E+02
             -0.297444166008715E+02
              0.627808121018095E+02
             -0.216490634867696E+02
              0.356639888762482E+02
              0.243875714841616E+02
             -0.648994896275508E+02
             -0.282802054340588E+02
              0.937171361277910E+01
             -0.374803187815236E+02
             -0.342744792205459E+02
             -0.836704311509350E+02
             -0.543991166823643E+02
             -0.514735182594922E+02
             -0.419051350111544E+02
             -0.958629180577560E+00
              0.100946219809453E+02
              0.107511801059201E+01
              0.155046517262590E+02
             -0.553989995126216E+02
              0.143046986492583E+02
              0.258466604829755E+02
             -0.672232248436908E+02
             -0.706875509476304E+02
[...]
              0.285167316628599E+02
              0.142876045243164E+03
              0.244737341787410E+02
              0.124020649587197E+02
             -0.468247830949560E+02
             -0.642768198148635E+02
             -0.190229749068902E+02
              0.332058606210921E+02
             -0.433217179505300E+01
              0.191812304680518E+02
              0.338804766382027E+02
             -0.591330469285545E+02
              0.224660335285774E+02
              0.585490023200815E+02
              0.557547994046763E+02
             -0.424608280000996E+01
             -0.135764306783040E+01
             -0.100019134997162E+02
             -0.486255085542657E+02
             -0.680317549719551E+02
              0.792011595584739E+02
             -0.529715480292498E+01
             -0.592496824019728E+02
              0.172304304156580E+01
             -0.207309493565458E+02
              0.945418445080576E+02
             -0.218131715945840E+02
             -0.356227184520060E+02
              0.337740800756933E+02
             -0.146952147945835E+02
              0.393222695297565E+02
             -0.240622771549351E+01
              0.101846568504720E+03
              0.493396399756815E+02
             -0.510321055336229E+01
             -0.324850790358245E+02
              0.234462579693540E+02
             -0.532906213277481E+02
             -0.128532016541567E+02
              0.590586665095926E+02
             -0.289829247696958E+02
             -0.441885294441847E+02
             -0.224758297307239E+02
              0.522590031286724E+02
              0.125846814800154E+02
             -0.855353869425713E+02
              0.306623030564515E+02
              0.153307899840193E+02
              0.584825788600997E+01
             -0.517218368217814E+02
             -0.372635384652574E+01
              0.325796349393956E+02
              0.516844496010828E+02
              0.637428167076123E+02
              0.231360078152001E+02
              0.802414345404486E+00
             -0.501969694658034E+02
             -0.513438599433384E+02
             -0.753513647165082E+02
             -0.623897832989940E+01
              0.311579744237953E+02
             -0.383084634139431E+01
              0.550814602927844E+02
             -0.320513991593110E+02
              0.167698873946835E+02
             -0.103873715963264E+02
             -0.291827561780019E+02
              0.590194861988020E+02
              0.796600583994848E+01
              0.609014545639839E+02
              0.513501452196749E+01
              0.266897918030206E+02
             -0.193868686998507E+02
              0.590961167016521E+02
             -0.112494824193408E+02
             -0.131099133342204E+00
             -0.796118840186964E+02
             -0.129087817916975E+02
              0.724625552546458E+02
              0.678451308718564E+02
              0.253622909163095E+02
             -0.131401021068745E+02
              0.345053737819336E+01
             -0.174843525522101E+02
             -0.211787203628148E+01
              0.914511205510069E+02
              0.125145422762535E+01
             -0.192451314352176E+02
             -0.111600656460364E+03
             -0.556703265144828E+02
             -0.377879879468641E+02
             -0.663765833463560E+02
             -0.560126036026234E+02
             -0.688306809976074E+02
             -0.450757155621923E+02
             -0.413418514362410E+02
             -0.455452384751713E+02
              0.487128012393369E+02
             -0.295889271622081E+02
             -0.100293714891697E+03
              0.422275683518455E+02
             -0.262481192676512E+02
             -0.796998024319793E+02
              0.951591541745079E+02
             -0.221660110320716E+02
              0.229358034780800E+02
              0.458269689498380E+02
             -0.130449119642793E+01
              0.256169201192296E+02
              0.469492146021756E+01
              0.402511404638563E+00
             -0.151653358933393E+02
             -0.721484424071992E+02
              0.134131127216959E+02
             -0.130376423738220E+03
              0.629253075069938E+02
             -0.443936754424665E+02
             -0.163797193431516E+02
             -0.159261215069014E+02
              0.726517036246075E+01
             -0.229061796399185E+02
              0.299401811902280E+02
             -0.524769553940915E+02
              0.370308082842857E+02
              0.374137767851422E+02
              0.169552591587790E+02
              0.101370804883182E+02
              0.199415144054616E+02
              0.628066090217777E+01
              0.312753720907990E+02
             -0.808030119170797E+01
             -0.597292400692822E+02
              0.766511621050336E+01
             -0.154922434609006E+02
             -0.197613645065616E+01
              0.510129486023510E+02
             -0.833189342357367E+02
             -0.146658159212006E+01
              0.572418399246033E+00
              0.100148061944611E+02
              0.320963941864544E+02
             -0.124719312715959E+02
              0.842008170190727E+02
              0.491263529792898E+02
             -0.184545262341256E+02
             -0.965061471586239E+01
              0.109277263945694E+01
              0.775561247142959E+02
             -0.590097519249653E+02
             -0.106559047793881E+03
              0.311449423722303E+02
             -0.163786537604667E+02
             -0.140674261910817E+02
              0.131850596658353E+02
              0.774620107474476E+02
              0.467835889670757E+02
             -0.154800788536930E+02
             -0.506904914782651E+02
             -0.555153676078318E+01
              0.308658304873813E+02
             -0.112789888422985E+02
             -0.761274804851955E+02
             -0.274849193529761E+01
             -0.897110666545618E+02
             -0.479177367545355E+02
              0.774761265933691E+02
             -0.487508538954481E+02
             -0.641920192958639E+02
             -0.518587584579833E+02
             -0.352521089729812E+02
              0.343602834885577E+02
              0.827969945823473E+02
             -0.361709376699872E+01
              0.278631157115248E+02
             -0.185095888682764E+02
             -0.699093372703699E+02
              0.469008987220066E+02
             -0.448664545598905E+02
              0.323967326407100E+02
              0.378834246236154E+02
             -0.664306478877205E+01
              0.393849401903681E+02
              0.441678614053367E+02
              0.101519936580143E+03
             -0.157116224969768E+02
             -0.459622275589967E+02
             -0.617691943757824E+02
             -0.124967287286263E+02
             -0.235415568000055E+02
              0.103797150202345E+03
             -0.452654438702069E+02
              0.105775129974563E+02
              0.975340242163293E+01
             -0.266473348572678E+02
             -0.805209673903119E+02
             -0.705269888076901E+01
              0.987398452345108E+02
              0.948642898400763E+01
              0.815009794645181E+01
             -0.530953837449595E+02
             -0.609519950729671E+02
             -0.571750734903321E+01
              0.503841931356317E+02
             -0.223851422467499E+02
              0.108765596956623E+03
             -0.439047030021685E+02
              0.147648463209314E+02
             -0.225571008585375E+02
             -0.723329973681880E+02
              0.171711999614752E+01
             -0.505694678708303E+02
             -0.766097520506964E+02
              0.622557362108194E+01
              0.236408691533174E+01
              0.517953730271217E+02
              0.189036533125845E+02
             -0.326292822459747E+02
              0.231972148649736E+02
             -0.817324105706448E+02
             -0.525559297880569E+02
              0.908860459235362E+02
              0.143024455755688E+02
             -0.188772620977427E+02
             -0.354655010390674E+02
             -0.272523799724127E+01
             -0.592020121461633E+01
              0.837076262482336E+02
              0.420973835326937E+02
             -0.166930762563002E+02
             -0.122268823921349E+02
             -0.430686115972694E+02
             -0.202162491344077E+02
             -0.674941066399675E+02
              0.463667147692409E+02
              0.552528895154029E+01
              0.145754995459798E+02
              0.157146730091936E+02
             -0.630912096754123E+00
             -0.169946183844555E+02
             -0.308956565331047E+01
             -0.101251805968331E+03
             -0.231225787189244E+02
             -0.771176473270168E+01
             -0.954322459669598E+01
              0.550487190021432E+02
              0.628711582377024E+02
              0.165889529028755E+02
             -0.977785417531651E+02
              0.652292887293808E+02
             -0.216654343484432E+02
             -0.379909029929628E+02
             -0.870935310464410E+02
             -0.389385443735704E+02
              0.568969129581569E+02
              0.246807630575844E+02
              0.525373589320566E+01
              0.294801646094970E+02
             -0.569215147692922E+02
             -0.425803146996995E+02
              0.519877023601632E+02
              0.390174869743564E+02
              0.522732846502580E+02
             -0.122014319529663E+01
              0.692894761013679E+01
              0.573499838823429E+02
              0.970489324669964E+02
             -0.301871369180129E+02
              0.326049324523890E+02
             -0.120003118126319E+02
             -0.415555260288243E+02
             -0.317099077224406E+02
             -0.302531254079788E+02
             -0.132362944061176E+02
             -0.527058960983553E+02
             -0.219020053659569E+02
             -0.142210994348330E+03
              0.371532641308442E+02
              0.208403169943690E+02
             -0.395437700877767E+01
             -0.383196925864740E+02
             -0.205938382650085E+02
             -0.530906048030263E+02
              0.152149494643735E+02
              0.826275564302431E+02
             -0.253421709462810E+02
             -0.164343616232628E+02
              0.239523059409333E+02
             -0.493179570533069E+02
              0.887293722991674E+02
              0.155816508665318E+02
              0.227236706671324E+02
              0.494205114615291E+02
              0.318845418235037E+01
              0.546394550378740E+02
              0.144292194665772E+02
             -0.107103394144166E+02
              0.738966672380570E+01
              0.722660731212159E+00
              0.732515524914444E+02
              0.101938401389832E+02
              0.121850154832318E+02
             -0.130742440087582E+02
              0.133330575672863E+02
             -0.918302569219082E+02
             -0.328980766308035E+02
             -0.460787615828233E+02
              0.489340982330014E+02
             -0.293480989556784E+02
             -0.663245439589709E+02
              0.543095575647394E+02
             -0.123075417676799E+02
              0.443407436819772E+02
             -0.905848802239171E+02
              0.234055598063544E+02
              0.861796256453258E+01
              0.584753135378878E+01
             -0.838667099424333E+01
             -0.908595484621173E+01
              0.483326939334483E+02
              0.200723366149208E+01
             -0.478702364046794E+02
             -0.177517983559418E+02
              0.278497701244036E+02
             -0.118840935364911E+03
             -0.936871255340645E+02
              0.397230931189961E+01
              0.118516305197528E+02
             -0.416682453507159E+02
             -0.392706842753108E+01
              0.112917375266010E+03
              0.309176025744937E+02
             -0.575732212943622E+02
              0.931633967435144E+01
             -0.970230243524996E+01
              0.106640348345658E+02
             -0.340235972182813E+02
              0.196845285343142E+02
              0.286588095472941E+02
             -0.304110813453747E+01
              0.109027466191544E+03
             -0.141002595716590E+02
             -0.318536956960104E+02
              0.144822957818025E+02
              0.469709062094499E+02
             -0.358728973830334E+02
             -0.318454066894394E+01
              0.972189907887297E+02
             -0.465857732618008E+01
              0.625715347762457E+02
              0.136706635858480E+02
             -0.908796942874253E+01
             -0.306804757116429E+02
              0.570706884014134E+02
             -0.518629079989676E+02
             -0.224304955381871E+01
             -0.171223141247687E+02
             -0.408577446259608E+02
              0.186004590608131E+02
              0.241016519934602E+02
              0.116578065934626E+02
              0.688777040926880E+00
             -0.387287981616727E+02
              0.216564470517692E+02
             -0.674603681178041E+01
             -0.248241011952962E+02
             -0.212302614180133E+02
              0.204835653990445E+02
             -0.603071082782230E+01
             -0.352037684422926E+02
             -0.107454086418434E+03
              0.103333355781763E+02
              0.250605906664055E+02
             -0.390881776471492E+02
             -0.212614028162654E+02
              0.813402244349072E+02
              0.657350719837544E+01
              0.313811249553806E+02
              0.396024589794879E+01
              0.324698625708764E+02
              0.650787885111561E+01
             -0.376067796452076E+02
             -0.236413757267931E+01
              0.881849485734261E+01
              0.276010866690772E+02
              0.788100454960863E+02
              0.511030186458147E+02
              0.203720046402111E+00
              0.170380546952715E+02
              0.617779928408670E+02
              0.237912041731927E+02
             -0.758402077273063E+02
             -0.275824026581362E+02
              0.152328501133212E+02
              0.568510568951297E+01
              0.256985060468781E+02
             -0.551805704222151E+02
              0.906380650693646E+01
              0.389055977499163E+02
              0.501750791702190E+02
             -0.438213509195341E+02
             -0.692877458538987E+01
             -0.210704226320331E+01
             -0.135054473842714E+02
             -0.367755686381174E+02
             -0.216599601002799E+02
             -0.205145542590563E+01
              0.799524527317936E+01
              0.424540561943711E+02
             -0.310482069432906E+02
              0.832233365113517E+02
              0.330243960775375E+02
              0.221865231991974E+02
              0.335797043087216E+02
              0.325492190193046E+02
              0.348588416697173E+02
              0.541331249008761E+02
             -0.437444959840036E+02
              0.624453168917601E+02
             -0.113129809114082E+03
              0.309810974828060E+02
             -0.107354306960331E+03
              0.860790024635145E+02
              0.696554253742235E+02
             -0.110634362182469E+02
             -0.497004260300212E+02
             -0.432730898777971E+02
             -0.627872106107149E+02
             -0.633515150290649E+02
              0.556153179770541E+02
              0.408824595772803E+02
              0.238577341969006E+02
              0.376132470822897E+02
              0.406063016705420E+02
             -0.385032552104896E+02
             -0.199159505278959E+02
              0.590905246538282E+02
             -0.117103769174203E+02
              0.555682333626077E+02
              0.705069451758606E+02
             -0.556656539964360E+01
             -0.711847663797575E+02
             -0.865164937807549E+00
             -0.245619635327333E+01
             -0.890557062925359E+01
             -0.179346563781786E+01
             -0.658087893324705E+02
             -0.211880706652389E+02
              0.546775356558268E+01
              0.906872514950760E+01
              0.472636369251599E+02
             -0.400751204011997E+02
              0.662064652637438E+02
             -0.428352312937125E+02
              0.212278341046886E+02
              0.353473638544725E+02
 
 BEEF-vdW xc energy contributions
           1 :   -788.573822836087     
           2 :    724.031159981068     
           3 :   -612.556513611760     
           4 :    481.692515174998     
           5 :   -359.081608874094     
           6 :    264.432170897462     
           7 :   -205.240692502363     
           8 :    176.907498980243     
           9 :   -166.779277015254     
          10 :    160.264103594528     
          11 :   -146.559239218203     
          12 :    121.846907859418     
          13 :   -89.1372817546448     
          14 :    55.3912115318518     
          15 :   -27.5740853293726     
          16 :    9.42614803002607     
          17 :  -0.188975488007713     
          18 :   -4.47203388008234     
          19 :    10.0275129330613     
          20 :   -20.3953968032423     
          21 :    36.2426983790406     
          22 :   -54.9569655011267     
          23 :    72.1320263862367     
          24 :   -83.7649069463858     
          25 :    88.0868694100253     
          26 :   -86.2145581662023     
          27 :    81.4132640125559     
          28 :   -77.4179376287815     
          29 :    76.6556645598133     
          30 :   -79.2154005455704     
          31 :   -86.4574455692214     
          32 :   -66.1562574291335     

     Writing output data file ./pwscf.save/
 
     init_run     :    385.69s CPU    390.38s WALL (       1 calls)
     electrons    :  17441.64s CPU  17597.21s WALL (       1 calls)
     forces       :    113.08s CPU    114.42s WALL (       1 calls)

     Called by init_run:
     wfcinit      :    334.21s CPU    337.75s WALL (       1 calls)
     potinit      :     47.75s CPU     48.12s WALL (       1 calls)
     hinit0       :      1.64s CPU      1.67s WALL (       1 calls)

     Called by electrons:
     c_bands      :  14506.58s CPU  14625.75s WALL (      23 calls)
     sum_band     :   2111.79s CPU   2128.26s WALL (      23 calls)
     v_of_rho     :    128.51s CPU    133.38s WALL (      23 calls)
     newd         :     40.69s CPU     55.78s WALL (      23 calls)
     PAW_pot      :    165.53s CPU    165.54s WALL (      23 calls)
     mix_rho      :    537.01s CPU    537.93s WALL (      23 calls)
     vdW_kernel   :     35.93s CPU     35.93s WALL (       1 calls)

     Called by c_bands:
     init_us_2    :     94.83s CPU     95.08s WALL (     624 calls)
     cegterg      :  13528.59s CPU  13647.39s WALL (     299 calls)

     Called by *egterg:
     cdiaghg      :    126.01s CPU    126.05s WALL (    2083 calls)
     h_psi        :   8796.82s CPU   8838.23s WALL (    2109 calls)
     s_psi        :   1415.68s CPU   1415.78s WALL (    2109 calls)
     g_psi        :     19.54s CPU     19.56s WALL (    1797 calls)

     Called by h_psi:
     h_psi:calbec :   1319.14s CPU   1319.43s WALL (    2109 calls)
     vloc_psi     :   6033.48s CPU   6035.77s WALL (    2109 calls)
     add_vuspsi   :   1414.39s CPU   1414.60s WALL (    2109 calls)

     General routines
     calbec       :   1923.25s CPU   1923.63s WALL (    2460 calls)
     fft          :     57.55s CPU     57.57s WALL (    3403 calls)
     ffts         :    182.29s CPU    182.34s WALL (   10958 calls)
     fftw         :   6193.60s CPU   6195.18s WALL (  381710 calls)
 
     Parallel routines
 
     PWSCF        :      5h 0m CPU      5h 3m WALL

 
   This run was terminated on:   3: 2:24  28Sep2022            

=------------------------------------------------------------------------------=
   JOB DONE.
=------------------------------------------------------------------------------=
