
     Program PWSCF v.6.7MaX starts on 20Dec2022 at 15:52:30 

     This program is part of the open-source Quantum ESPRESSO suite
     for quantum simulation of materials; please cite
         "P. Giannozzi et al., J. Phys.:Condens. Matter 21 395502 (2009);
         "P. Giannozzi et al., J. Phys.:Condens. Matter 29 465901 (2017);
          URL http://www.quantum-espresso.org", 
     in publications or presentations arising from this work. More details at
     http://www.quantum-espresso.org/quote

     Parallel version (MPI), running on     1 processors

     MPI processes distributed on     1 nodes
     Reading input from h2co-bi-ensemble.in
Warning: card &CELL ignored
Warning: card / ignored

     Current dimensions of program PWSCF are:
     Max number of different atomic species (ntypx) = 10
     Max number of k-points (npk) =  40000
     Max angular momentum in pseudopotentials (lmaxx) =  3
     file Pt.pbe-n-kjpaw_psl.1.0.0.UPF: wavefunction(s)  6S 5D renormalized
     file C.pbe-n-kjpaw_psl.1.0.0.UPF: wavefunction(s)  2S 2P renormalized
     file H.pbe-kjpaw_psl.1.0.0.UPF: wavefunction(s)  1S renormalized
     file O.pbe-nl-kjpaw_psl.1.0.0.UPF: wavefunction(s)  2S 2P renormalized

     **************************************************************************
     Initializing libbeef V0.1.2 with the BEEF-vdW functional.
     Citation: Wellendorff et al., PRB 85, 235149 (2012).
     **************************************************************************


     IMPORTANT: XC functional enforced from input :
     Exchange-correlation= BEEF-VDW
                           (   1   4  43  14   2   0   0)
     Any further DFT definition will be discarded
     Please, verify this is what you really want


     Subspace diagonalization in iterative solution of the eigenvalue problem:
     a serial algorithm will be used

 
     G-vector sticks info
     --------------------
     sticks:   dense  smooth     PW     G-vecs:    dense   smooth      PW
     Sum        4267    4267   1159               702073   702073   99063
 


     bravais-lattice index     =            0
     lattice parameter (alat)  =      16.0349  a.u.
     unit-cell volume          =   11175.8346 (a.u.)^3
     number of atoms/cell      =           40
     number of atomic types    =            4
     number of electrons       =       372.00
     number of Kohn-Sham states=          223
     kinetic-energy cutoff     =      60.0000  Ry
     charge density cutoff     =     240.0000  Ry
     scf convergence threshold =      1.0E-06
     mixing beta               =       0.7000
     number of iterations used =            8  local-TF  mixing
     Exchange-correlation= BEEF-VDW
                           (   1   4  43  14   2   0   0)

     celldm(1)=  16.034858  celldm(2)=   0.000000  celldm(3)=   0.000000
     celldm(4)=   0.000000  celldm(5)=   0.000000  celldm(6)=   0.000000

     crystal axes: (cart. coord. in units of alat)
               a(1) = (   1.000000   0.000000   0.000000 )  
               a(2) = (   0.500000   0.866025   0.000000 )  
               a(3) = (   0.000000   0.000000   3.130070 )  

     reciprocal axes: (cart. coord. in units 2 pi/alat)
               b(1) = (  1.000000 -0.577350  0.000000 )  
               b(2) = (  0.000000  1.154701  0.000000 )  
               b(3) = (  0.000000  0.000000  0.319482 )  


     PseudoPot. # 1 for Pt read from file:
     /users/bkreitz1/quantum-espresso/potentials/Pt.pbe-n-kjpaw_psl.1.0.0.UPF
     MD5 check sum: 04dc8a03c51ece93fc7b5889c2958091
     Pseudo is Projector augmented-wave + core cor, Zval = 10.0
     Generated using 'atomic' code by A. Dal Corso  v.6.7MaX
     Shape of augmentation charge: PSQ
     Using radial grid of 1277 points,  6 beta functions with: 
                l(1) =   0
                l(2) =   0
                l(3) =   1
                l(4) =   1
                l(5) =   2
                l(6) =   2
     Q(r) pseudized with 0 coefficients 


     PseudoPot. # 2 for C  read from file:
     /users/bkreitz1/quantum-espresso/potentials/C.pbe-n-kjpaw_psl.1.0.0.UPF
     MD5 check sum: a169b0ebad56f5ec0d79c4633f80bf22
     Pseudo is Projector augmented-wave + core cor, Zval =  4.0
     Generated using 'atomic' code by A. Dal Corso  v.6.7MaX
     Shape of augmentation charge: PSQ
     Using radial grid of 1073 points,  4 beta functions with: 
                l(1) =   0
                l(2) =   0
                l(3) =   1
                l(4) =   1
     Q(r) pseudized with 0 coefficients 


     PseudoPot. # 3 for H  read from file:
     /users/bkreitz1/quantum-espresso/potentials/H.pbe-kjpaw_psl.1.0.0.UPF
     MD5 check sum: ae98473e6dc62675f0d0baffdab24f65
     Pseudo is Projector augmented-wave, Zval =  1.0
     Generated using 'atomic' code by A. Dal Corso  v.6.7MaX
     Shape of augmentation charge: PSQ
     Using radial grid of  929 points,  2 beta functions with: 
                l(1) =   0
                l(2) =   0
     Q(r) pseudized with 0 coefficients 


     PseudoPot. # 4 for O  read from file:
     /users/bkreitz1/quantum-espresso/potentials/O.pbe-nl-kjpaw_psl.1.0.0.UPF
     MD5 check sum: eef08af8b58d9ec80f8fdb78829eb7cf
     Pseudo is Projector augmented-wave + core cor, Zval =  6.0
     Generated using 'atomic' code by A. Dal Corso  v.6.7MaX
     Shape of augmentation charge: PSQ
     Using radial grid of 1095 points,  4 beta functions with: 
                l(1) =   0
                l(2) =   0
                l(3) =   1
                l(4) =   1
     Q(r) pseudized with 0 coefficients 


     atomic species   valence    mass     pseudopotential
        Pt            10.00   195.08400     Pt( 1.00)
        C              4.00    12.01100     C ( 1.00)
        H              1.00     1.00800     H ( 1.00)
        O              6.00    15.99900     O ( 1.00)

     No symmetry found



   Cartesian axes

     site n.     atom                  positions (alat units)
         1           Pt  tau(   1) = (   0.0000000   0.0000000   1.0017346  )
         2           Pt  tau(   2) = (   0.3333333   0.0000000   1.0017346  )
         3           Pt  tau(   3) = (   0.6666667   0.0000000   1.0017346  )
         4           Pt  tau(   4) = (   0.1666667   0.2886751   1.0017346  )
         5           Pt  tau(   5) = (   0.5000000   0.2886751   1.0017346  )
         6           Pt  tau(   6) = (   0.8333333   0.2886751   1.0017346  )
         7           Pt  tau(   7) = (   0.3333333   0.5773503   1.0017346  )
         8           Pt  tau(   8) = (   0.6666667   0.5773503   1.0017346  )
         9           Pt  tau(   9) = (   1.0000000   0.5773503   1.0017346  )
        10           Pt  tau(  10) = (   0.1666667   0.0962250   1.2739001  )
        11           Pt  tau(  11) = (   0.5000000   0.0962250   1.2739001  )
        12           Pt  tau(  12) = (   0.8333333   0.0962250   1.2739001  )
        13           Pt  tau(  13) = (   0.3333333   0.3849002   1.2739001  )
        14           Pt  tau(  14) = (   0.6666667   0.3849002   1.2739001  )
        15           Pt  tau(  15) = (   1.0000000   0.3849002   1.2739001  )
        16           Pt  tau(  16) = (   0.5000000   0.6735753   1.2739001  )
        17           Pt  tau(  17) = (   0.8333333   0.6735753   1.2739001  )
        18           Pt  tau(  18) = (   1.1666667   0.6735753   1.2739001  )
        19           Pt  tau(  19) = (   0.0019486   0.1922758   1.5410326  )
        20           Pt  tau(  20) = (   0.3341713   0.1947589   1.5401469  )
        21           Pt  tau(  21) = (   0.6669080   0.1925706   1.5407363  )
        22           Pt  tau(  22) = (   0.1643972   0.4843349   1.5497922  )
        23           Pt  tau(  23) = (   0.5025035   0.4831287   1.5457755  )
        24           Pt  tau(  24) = (   0.8333492   0.4816199   1.5434975  )
        25           Pt  tau(  25) = (   0.3348203   0.7700747   1.5425844  )
        26           Pt  tau(  26) = (   0.6683090   0.7685265   1.5449085  )
        27           Pt  tau(  27) = (   1.0009515   0.7691159   1.5445933  )
        28           Pt  tau(  28) = (   0.0043021   0.0007840   1.8168070  )
        29           Pt  tau(  29) = (   0.3366739   0.0073479   1.8121560  )
        30           Pt  tau(  30) = (   0.6713382   0.0017142   1.8148610  )
        31           Pt  tau(  31) = (   0.1711539   0.2892016   1.8165847  )
        32           Pt  tau(  32) = (   0.5042277   0.2908822   1.8165256  )
        33           Pt  tau(  33) = (   0.8370113   0.2850901   1.8110562  )
        34           Pt  tau(  34) = (   0.3405335   0.5789270   1.8184354  )
        35           Pt  tau(  35) = (   0.6732146   0.5784612   1.8345670  )
        36           Pt  tau(  36) = (   1.0035657   0.5773944   1.8274212  )
        37           C   tau(  37) = (   0.7693845   0.5749005   2.0697038  )
        38           H   tau(  38) = (   0.7381379   0.4551284   2.1076962  )
        39           H   tau(  39) = (   0.7029079   0.6685395   2.1293503  )
        40           O   tau(  40) = (   0.9248221   0.6042317   2.0611192  )

     number of k points=    13  Marzari-Vanderbilt smearing, width (Ry)=  0.0200
                       cart. coord. in units 2pi/alat
        k(    1) = (   0.0000000   0.0000000   0.0000000), wk =   0.0800000
        k(    2) = (   0.0000000   0.2309401   0.0000000), wk =   0.1600000
        k(    3) = (   0.0000000   0.4618802   0.0000000), wk =   0.1600000
        k(    4) = (   0.2000000  -0.1154701   0.0000000), wk =   0.1600000
        k(    5) = (   0.2000000   0.1154701   0.0000000), wk =   0.1600000
        k(    6) = (   0.2000000   0.3464102   0.0000000), wk =   0.1600000
        k(    7) = (   0.2000000  -0.5773503   0.0000000), wk =   0.1600000
        k(    8) = (   0.2000000  -0.3464102   0.0000000), wk =   0.1600000
        k(    9) = (   0.4000000  -0.2309401   0.0000000), wk =   0.1600000
        k(   10) = (   0.4000000  -0.0000000   0.0000000), wk =   0.1600000
        k(   11) = (   0.4000000   0.2309401   0.0000000), wk =   0.1600000
        k(   12) = (   0.4000000  -0.6928203   0.0000000), wk =   0.1600000
        k(   13) = (   0.4000000  -0.4618802   0.0000000), wk =   0.1600000

     Dense  grid:   702073 G-vectors     FFT dimensions: (  80,  80, 250)

     Estimated max dynamical RAM per process >       8.47 GB

     Check: negative core charge=   -0.000001

     Initial potential from superposition of free atoms

     starting charge  371.99383, renormalised to  372.00000

     negative rho (up, down):  1.210E-02 0.000E+00


     %%%%%%%%%%%%%%%%%%%%%%%%%%%%%%%%%%%%%%%%%%%%%%%%%%%%%%%%%%%%%%%%%%%%%%%%
     %                                                                      %
     % You are using vdW-DF, which was implemented by the Thonhauser group. %
     % Please cite the following two papers that made this development      %
     % possible and the two reviews that describe the various versions:     %
     %                                                                      %
     %   T. Thonhauser et al., PRL 115, 136402 (2015).                      %
     %   T. Thonhauser et al., PRB 76, 125112 (2007).                       %
     %   K. Berland et al., Rep. Prog. Phys. 78, 066501 (2015).             %
     %   D.C. Langreth et al., J. Phys.: Condens. Matter 21, 084203 (2009). %
     %                                                                      %
     %                                                                      %
     % If you are calculating the stress with vdW-DF, please also cite:     %
     %                                                                      %
     %   R. Sabatini et al., J. Phys.: Condens. Matter 24, 424209 (2012).   %
     %                                                                      %
     %%%%%%%%%%%%%%%%%%%%%%%%%%%%%%%%%%%%%%%%%%%%%%%%%%%%%%%%%%%%%%%%%%%%%%%%


     Starting wfcs are  334 randomized atomic wfcs
     Checking if some PAW data can be deallocated... 

     total cpu time spent up to now is      304.9 secs

     Self-consistent Calculation

     iteration #  1     ecut=    60.00 Ry     beta= 0.70
     Davidson diagonalization with overlap
     ethr =  1.00E-02,  avg # of iterations =  2.0

     Threshold (ethr) on eigenvalues was too large:
     Diagonalizing with lowered threshold

     Davidson diagonalization with overlap
     ethr =  7.56E-04,  avg # of iterations =  2.9

     negative rho (up, down):  1.460E-02 0.000E+00

     total cpu time spent up to now is     1472.1 secs

     total energy              =  -27817.82069513 Ry
     estimated scf accuracy    <       3.01130454 Ry

     iteration #  2     ecut=    60.00 Ry     beta= 0.70
     Davidson diagonalization with overlap
     ethr =  8.09E-04,  avg # of iterations =  2.0

     negative rho (up, down):  1.284E-02 0.000E+00

     total cpu time spent up to now is     2019.2 secs

     total energy              =  -27818.02028192 Ry
     estimated scf accuracy    <       1.15295940 Ry

     iteration #  3     ecut=    60.00 Ry     beta= 0.70
     Davidson diagonalization with overlap
     ethr =  3.10E-04,  avg # of iterations =  2.0

     negative rho (up, down):  1.044E-02 0.000E+00

     total cpu time spent up to now is     2564.7 secs

     total energy              =  -27818.08907618 Ry
     estimated scf accuracy    <       0.34966408 Ry

     iteration #  4     ecut=    60.00 Ry     beta= 0.70
     Davidson diagonalization with overlap
     c_bands:  1 eigenvalues not converged
     ethr =  9.40E-05,  avg # of iterations = 11.7

     negative rho (up, down):  8.982E-03 0.000E+00

     total cpu time spent up to now is     3289.7 secs

     total energy              =  -27818.14017122 Ry
     estimated scf accuracy    <       0.21091054 Ry

     iteration #  5     ecut=    60.00 Ry     beta= 0.70
     Davidson diagonalization with overlap
     ethr =  5.67E-05,  avg # of iterations =  2.0

     negative rho (up, down):  7.583E-03 0.000E+00

     total cpu time spent up to now is     3828.5 secs

     total energy              =  -27818.14825362 Ry
     estimated scf accuracy    <       0.03631981 Ry

     iteration #  6     ecut=    60.00 Ry     beta= 0.70
     Davidson diagonalization with overlap
     c_bands:  3 eigenvalues not converged
     c_bands:  1 eigenvalues not converged
     ethr =  9.76E-06,  avg # of iterations =  9.5

     negative rho (up, down):  7.279E-03 0.000E+00

     total cpu time spent up to now is     4627.7 secs

     total energy              =  -27818.15692618 Ry
     estimated scf accuracy    <       0.01191991 Ry

     iteration #  7     ecut=    60.00 Ry     beta= 0.70
     Davidson diagonalization with overlap
     c_bands:  2 eigenvalues not converged
     ethr =  3.20E-06,  avg # of iterations = 10.9

     negative rho (up, down):  7.655E-03 0.000E+00

     total cpu time spent up to now is     5296.3 secs

     total energy              =  -27818.15783091 Ry
     estimated scf accuracy    <       0.00502198 Ry

     iteration #  8     ecut=    60.00 Ry     beta= 0.70
     Davidson diagonalization with overlap
     ethr =  1.35E-06,  avg # of iterations =  5.4

     negative rho (up, down):  7.977E-03 0.000E+00

     total cpu time spent up to now is     5858.0 secs

     total energy              =  -27818.15817348 Ry
     estimated scf accuracy    <       0.00159970 Ry

     iteration #  9     ecut=    60.00 Ry     beta= 0.70
     Davidson diagonalization with overlap
     ethr =  4.30E-07,  avg # of iterations =  4.0

     negative rho (up, down):  8.588E-03 0.000E+00

     total cpu time spent up to now is     6459.8 secs

     total energy              =  -27818.15839526 Ry
     estimated scf accuracy    <       0.00051548 Ry

     iteration # 10     ecut=    60.00 Ry     beta= 0.70
     Davidson diagonalization with overlap
     ethr =  1.39E-07,  avg # of iterations =  4.1

     negative rho (up, down):  9.138E-03 0.000E+00

     total cpu time spent up to now is     7113.4 secs

     total energy              =  -27818.15849283 Ry
     estimated scf accuracy    <       0.00029767 Ry

     iteration # 11     ecut=    60.00 Ry     beta= 0.70
     Davidson diagonalization with overlap
     ethr =  8.00E-08,  avg # of iterations =  1.9

     negative rho (up, down):  9.702E-03 0.000E+00

     total cpu time spent up to now is     7645.3 secs

     total energy              =  -27818.15850724 Ry
     estimated scf accuracy    <       0.00015859 Ry

     iteration # 12     ecut=    60.00 Ry     beta= 0.70
     Davidson diagonalization with overlap
     ethr =  4.26E-08,  avg # of iterations =  2.0

     negative rho (up, down):  1.053E-02 0.000E+00

     total cpu time spent up to now is     8178.7 secs

     total energy              =  -27818.15851265 Ry
     estimated scf accuracy    <       0.00009282 Ry

     iteration # 13     ecut=    60.00 Ry     beta= 0.70
     Davidson diagonalization with overlap
     ethr =  2.50E-08,  avg # of iterations =  2.0

     negative rho (up, down):  1.140E-02 0.000E+00

     total cpu time spent up to now is     8732.0 secs

     total energy              =  -27818.15851513 Ry
     estimated scf accuracy    <       0.00003494 Ry

     iteration # 14     ecut=    60.00 Ry     beta= 0.70
     Davidson diagonalization with overlap
     ethr =  9.39E-09,  avg # of iterations =  3.2

     negative rho (up, down):  1.150E-02 0.000E+00

     total cpu time spent up to now is     9313.6 secs

     total energy              =  -27818.15851715 Ry
     estimated scf accuracy    <       0.00002601 Ry

     iteration # 15     ecut=    60.00 Ry     beta= 0.70
     Davidson diagonalization with overlap
     ethr =  6.99E-09,  avg # of iterations =  2.0

     negative rho (up, down):  1.239E-02 0.000E+00

     total cpu time spent up to now is     9857.2 secs

     total energy              =  -27818.15851406 Ry
     estimated scf accuracy    <       0.00001333 Ry

     iteration # 16     ecut=    60.00 Ry     beta= 0.70
     Davidson diagonalization with overlap
     ethr =  3.58E-09,  avg # of iterations =  2.0

     negative rho (up, down):  1.267E-02 0.000E+00

     total cpu time spent up to now is    10419.5 secs

     total energy              =  -27818.15851407 Ry
     estimated scf accuracy    <       0.00000931 Ry

     iteration # 17     ecut=    60.00 Ry     beta= 0.70
     Davidson diagonalization with overlap
     ethr =  2.50E-09,  avg # of iterations =  1.5

     negative rho (up, down):  1.278E-02 0.000E+00

     total cpu time spent up to now is    10929.3 secs

     total energy              =  -27818.15851444 Ry
     estimated scf accuracy    <       0.00000227 Ry

     iteration # 18     ecut=    60.00 Ry     beta= 0.70
     Davidson diagonalization with overlap
     ethr =  6.10E-10,  avg # of iterations =  4.0

     negative rho (up, down):  1.298E-02 0.000E+00

     total cpu time spent up to now is    11731.0 secs

     total energy              =  -27818.15851491 Ry
     estimated scf accuracy    <       0.00000132 Ry

     iteration # 19     ecut=    60.00 Ry     beta= 0.70
     Davidson diagonalization with overlap
     ethr =  3.54E-10,  avg # of iterations =  1.9

     negative rho (up, down):  1.321E-02 0.000E+00

     total cpu time spent up to now is    12234.8 secs

     End of self-consistent calculation

          k = 0.0000 0.0000 0.0000 ( 87819 PWs)   bands (ev):

   -18.6141  -9.2806  -6.9579  -5.7074  -4.9303  -4.7065  -4.5691  -4.5535
    -4.5416  -4.5392  -4.5234  -4.5173  -4.4993  -4.3163  -4.1085  -3.9904
    -3.9788  -3.9747  -3.9678  -3.9414  -3.8796  -3.5287  -3.5171  -3.5082
    -3.5025  -3.4919  -3.4422  -3.3025  -3.2930  -3.2907  -3.2851  -3.2711
    -3.1812  -3.0841  -3.0764  -3.0698  -3.0636  -3.0558  -3.0536  -3.0395
    -3.0267  -3.0160  -3.0137  -2.9974  -2.9486  -2.4583  -2.4489  -2.4432
    -2.4275  -2.4208  -2.3789  -2.3684  -2.3613  -2.3483  -2.3112  -2.2107
    -2.2084  -2.1330  -2.1277  -1.6874  -1.6680  -1.6529  -1.6232  -1.6034
    -1.5963  -1.5574  -1.4713  -1.4555  -1.4513  -1.4469  -1.4338  -1.4300
    -1.4173  -1.4042  -1.3923  -1.3885  -1.3743  -1.3659  -1.3519  -1.3354
    -1.3273  -1.2922  -1.2334  -1.2191  -1.2089  -1.1989  -1.1768  -1.0618
    -1.0482  -1.0396  -1.0261  -1.0050  -0.9945  -0.9736  -0.9615  -0.9387
    -0.8895  -0.8734  -0.8656  -0.8061  -0.7827  -0.7779  -0.7419  -0.7403
    -0.7136  -0.6883  -0.6082  -0.5965  -0.5705  -0.5647  -0.5562  -0.3573
    -0.2408  -0.2247  -0.1363  -0.1257  -0.1042  -0.1005  -0.0811  -0.0667
    -0.0472  -0.0205   0.0374   0.0497   0.0731   0.0775   0.1371   0.1819
     0.1969   0.2151   0.2350   0.2967   0.3285   0.3735   0.3925   0.4030
     0.4066   0.4373   0.4624   0.5754   0.6384   0.6428   0.6528   0.6595
     0.6667   0.7020   0.7316   0.8570   0.8978   0.9026   0.9111   0.9275
     0.9527   0.9937   1.0469   1.0562   1.0777   1.0869   1.0952   1.1007
     1.1142   1.1228   1.1348   1.1422   1.1526   1.2049   1.2291   1.2397
     1.2454   1.2545   1.2710   1.3195   1.3309   1.3326   1.3459   1.3499
     1.3654   1.3731   1.3795   1.4023   1.4567   1.4630   1.4714   1.4788
     1.4926   1.5033   1.5102   1.5349   1.5746   1.5898   1.6021   1.6170
     1.6258   1.7671   1.7988   1.8830   1.8918   1.9104   1.9304   1.9328
     1.9374   2.0509   2.4593   2.7513   2.8061   2.8160   2.8329   2.8777
     3.5813   4.2263   5.0808   5.1329   5.1504   5.1672   5.5507   5.9784
     6.6015   6.6852   6.7206   6.7352   6.7490   6.7649   6.7849

          k = 0.0000 0.2309 0.0000 ( 87726 PWs)   bands (ev):

   -18.6141  -9.2805  -6.8115  -5.5706  -5.0746  -4.9077  -4.6627  -4.6444
    -4.5765  -4.4035  -4.3957  -4.3160  -4.2933  -4.2659  -4.1533  -4.0615
    -3.9387  -3.9230  -3.9029  -3.8758  -3.8623  -3.6045  -3.4836  -3.4779
    -3.4643  -3.4055  -3.3844  -3.3739  -3.3305  -3.3195  -3.3070  -3.2835
    -3.2055  -3.1983  -3.1875  -3.0945  -3.0777  -3.0490  -3.0460  -3.0022
    -2.8779  -2.8560  -2.8528  -2.8281  -2.8034  -2.5794  -2.5720  -2.5447
    -2.4966  -2.4878  -2.4677  -2.4102  -2.2903  -2.2536  -2.2136  -2.1844
    -2.1619  -2.1278  -2.1128  -1.9097  -1.8260  -1.8055  -1.7715  -1.7337
    -1.7096  -1.6622  -1.6445  -1.6127  -1.5947  -1.5853  -1.5756  -1.5231
    -1.4702  -1.4489  -1.4397  -1.4323  -1.3578  -1.3411  -1.3195  -1.2839
    -1.2728  -1.2531  -1.2017  -1.1808  -1.1629  -1.1496  -1.1379  -1.0975
    -1.0851  -1.0541  -1.0364  -1.0270  -0.9920  -0.9702  -0.9306  -0.9078
    -0.8876  -0.8743  -0.8640  -0.8406  -0.8198  -0.8016  -0.7757  -0.7612
    -0.7118  -0.6593  -0.6286  -0.6087  -0.6004  -0.5686  -0.5506  -0.5421
    -0.5128  -0.5007  -0.4859  -0.4761  -0.2977  -0.2498  -0.1859  -0.1581
    -0.1469  -0.0849  -0.0623  -0.0468  -0.0420  -0.0254   0.0532   0.0965
     0.1846   0.2147   0.2485   0.2745   0.3003   0.3151   0.3409   0.3810
     0.3963   0.4471   0.4804   0.4977   0.5108   0.5348   0.5435   0.5695
     0.6515   0.7268   0.7315   0.7444   0.7777   0.8035   0.8424   0.8654
     0.9034   0.9279   0.9405   0.9919   1.0072   1.0135   1.0405   1.0591
     1.0814   1.1457   1.1589   1.2032   1.2184   1.2732   1.2971   1.3116
     1.3189   1.3476   1.3724   1.4314   1.4502   1.4591   1.4898   1.5183
     1.5348   1.5494   1.5711   1.5793   1.5827   1.6054   1.6341   1.6555
     1.7334   1.7770   1.7927   1.8054   1.8323   1.8464   1.8631   1.8765
     1.9115   1.9227   1.9289   2.0277   2.0403   2.0560   2.2113   2.2265
     2.2361   2.2737   2.4448   2.5915   2.8924   3.2111   3.4164   3.5307
     3.8149   4.1563   4.6635   5.0163   5.2134   5.5531   5.5648   5.7610
     5.9517   6.2194   6.5386   6.5500   6.7188   6.9223   6.9297

          k = 0.0000 0.4619 0.0000 ( 87690 PWs)   bands (ev):

   -18.6141  -9.2803  -6.3907  -5.7604  -5.2045  -4.9116  -4.6887  -4.6766
    -4.6417  -4.3835  -4.2590  -4.2038  -4.1423  -4.0200  -3.9590  -3.9499
    -3.8826  -3.7824  -3.7808  -3.7322  -3.7183  -3.7013  -3.5935  -3.5696
    -3.5525  -3.5184  -3.5034  -3.4647  -3.4033  -3.3760  -3.3739  -3.2505
    -3.1272  -3.1204  -3.1126  -3.0999  -3.0826  -3.0772  -2.8674  -2.8598
    -2.8390  -2.8245  -2.8162  -2.7964  -2.6307  -2.5368  -2.5353  -2.5185
    -2.5040  -2.4646  -2.4400  -2.3902  -2.3748  -2.3625  -2.3142  -2.2962
    -2.1830  -2.1553  -2.1398  -2.1112  -2.0091  -1.9870  -1.9640  -1.9390
    -1.9252  -1.7876  -1.7417  -1.7180  -1.7107  -1.6934  -1.6295  -1.6048
    -1.5896  -1.5530  -1.4820  -1.4724  -1.4517  -1.3777  -1.3650  -1.3440
    -1.3399  -1.3292  -1.2809  -1.2522  -1.2417  -1.2254  -1.2167  -1.2113
    -1.2013  -1.1714  -1.1467  -1.1179  -1.0744  -1.0617  -1.0495  -1.0310
    -0.9946  -0.9532  -0.8955  -0.8693  -0.8580  -0.8024  -0.7869  -0.7649
    -0.7451  -0.7331  -0.6760  -0.6263  -0.6008  -0.5751  -0.5323  -0.5160
    -0.4854  -0.4134  -0.3310  -0.3083  -0.2913  -0.2446  -0.2196  -0.1954
    -0.1561  -0.1430  -0.1321  -0.1103  -0.0611  -0.0373  -0.0263  -0.0210
     0.0052   0.0372   0.0447   0.0829   0.1063   0.1587   0.1800   0.2162
     0.2505   0.2875   0.3204   0.3832   0.4152   0.4569   0.4995   0.5380
     0.6210   0.6463   0.7032   0.7253   0.7591   0.7702   0.7778   0.8044
     0.8563   0.8804   0.8845   0.9374   0.9595   0.9858   1.0490   1.0603
     1.0765   1.0886   1.1263   1.1562   1.2420   1.2673   1.3300   1.3497
     1.3713   1.3767   1.4482   1.4747   1.4788   1.5137   1.5810   1.6071
     1.6329   1.6592   1.6707   1.6823   1.7471   1.7660   1.8047   1.8158
     1.8260   1.8366   1.8577   1.8680   2.0276   2.0429   2.0541   2.0655
     2.0772   2.2177   2.2434   2.3011   2.5593   2.7484   2.7844   3.1009
     3.1212   3.1922   3.5134   3.5296   3.6879   3.8637   4.0212   4.3348
     4.3404   4.3953   4.5563   4.6729   4.7012   4.9296   4.9989   5.0642
     5.3013   5.6477   5.8927   6.2359   6.3375   6.7579   6.8292

          k = 0.2000-0.1155 0.0000 ( 87726 PWs)   bands (ev):

   -18.6141  -9.2807  -6.8109  -5.5677  -5.0566  -4.9143  -4.6972  -4.6479
    -4.5497  -4.4021  -4.3801  -4.3361  -4.2992  -4.2512  -4.1097  -4.0727
    -4.0304  -3.9146  -3.9003  -3.8905  -3.7965  -3.6064  -3.4874  -3.4751
    -3.4634  -3.4463  -3.3921  -3.3738  -3.3309  -3.3046  -3.2892  -3.2732
    -3.2425  -3.2050  -3.1790  -3.0947  -3.0814  -3.0602  -3.0475  -2.9842
    -2.8706  -2.8580  -2.8426  -2.8261  -2.8013  -2.5842  -2.5627  -2.5343
    -2.5009  -2.4782  -2.4568  -2.4234  -2.2855  -2.2590  -2.2172  -2.1903
    -2.1586  -2.1352  -2.1084  -1.9085  -1.8280  -1.8096  -1.7604  -1.7479
    -1.7145  -1.6551  -1.6384  -1.6147  -1.6039  -1.5799  -1.5680  -1.5225
    -1.4897  -1.4654  -1.4349  -1.4238  -1.3495  -1.3367  -1.3243  -1.2807
    -1.2614  -1.2455  -1.2098  -1.1866  -1.1707  -1.1563  -1.1321  -1.0978
    -1.0619  -1.0514  -1.0412  -1.0196  -1.0098  -0.9628  -0.9362  -0.9042
    -0.8896  -0.8760  -0.8548  -0.8416  -0.8263  -0.7946  -0.7786  -0.7686
    -0.6985  -0.6639  -0.6287  -0.5940  -0.5783  -0.5609  -0.5587  -0.5427
    -0.5080  -0.4869  -0.4731  -0.4693  -0.3822  -0.2646  -0.1950  -0.1715
    -0.1322  -0.0896  -0.0628  -0.0541  -0.0444  -0.0144   0.0966   0.1234
     0.1665   0.1925   0.2475   0.2746   0.2916   0.3164   0.3395   0.3775
     0.4016   0.4349   0.4635   0.4909   0.5208   0.5382   0.5548   0.5893
     0.6486   0.7198   0.7419   0.7574   0.7787   0.7861   0.8488   0.8653
     0.9015   0.9173   0.9371   0.9805   0.9946   1.0185   1.0464   1.0687
     1.0780   1.1404   1.1600   1.1982   1.2645   1.2832   1.2975   1.3117
     1.3215   1.3368   1.3836   1.4254   1.4500   1.4632   1.4828   1.5262
     1.5329   1.5603   1.5643   1.5725   1.5819   1.6013   1.6372   1.6507
     1.7260   1.7762   1.8064   1.8199   1.8273   1.8429   1.8485   1.8805
     1.9097   1.9182   1.9384   2.0297   2.0411   2.0603   2.1963   2.2169
     2.2342   2.2389   2.4937   2.6076   2.8586   3.2560   3.4216   3.5044
     3.7055   4.2990   4.6119   4.9551   5.2735   5.5539   5.5638   5.7645
     5.9172   6.2432   6.5311   6.5714   6.7212   6.8892   6.9261

          k = 0.2000 0.1155 0.0000 ( 87726 PWs)   bands (ev):

   -18.6141  -9.2808  -6.8109  -5.5674  -5.0599  -4.9194  -4.6893  -4.6390
    -4.5556  -4.4021  -4.3869  -4.3335  -4.2942  -4.2569  -4.1112  -4.0726
    -4.0281  -3.9129  -3.9071  -3.8880  -3.7982  -3.5999  -3.4871  -3.4746
    -3.4645  -3.4550  -3.3854  -3.3720  -3.3321  -3.3094  -3.2977  -3.2739
    -3.2474  -3.1964  -3.1754  -3.1025  -3.0806  -3.0576  -3.0432  -2.9832
    -2.8692  -2.8533  -2.8468  -2.8244  -2.7935  -2.5756  -2.5649  -2.5371
    -2.5074  -2.4762  -2.4496  -2.4259  -2.2772  -2.2670  -2.2072  -2.1949
    -2.1530  -2.1403  -2.1171  -1.9028  -1.8197  -1.8084  -1.7496  -1.7340
    -1.7158  -1.6643  -1.6439  -1.6167  -1.6040  -1.5884  -1.5686  -1.5241
    -1.4791  -1.4472  -1.4274  -1.4174  -1.3682  -1.3546  -1.3391  -1.2712
    -1.2632  -1.2450  -1.2056  -1.1749  -1.1613  -1.1446  -1.1365  -1.0953
    -1.0772  -1.0610  -1.0463  -1.0277  -0.9890  -0.9691  -0.9383  -0.9102
    -0.8868  -0.8750  -0.8611  -0.8467  -0.8251  -0.8071  -0.7775  -0.7601
    -0.7183  -0.6578  -0.6367  -0.6010  -0.5962  -0.5638  -0.5567  -0.5320
    -0.5115  -0.4850  -0.4765  -0.4570  -0.3728  -0.2490  -0.2049  -0.1525
    -0.1272  -0.0840  -0.0688  -0.0492  -0.0421  -0.0163   0.0531   0.1177
     0.1676   0.1944   0.2441   0.2765   0.3052   0.3135   0.3341   0.3502
     0.4063   0.4354   0.4571   0.4930   0.5185   0.5388   0.5478   0.5970
     0.6843   0.7121   0.7296   0.7525   0.7734   0.7910   0.8390   0.8632
     0.9079   0.9116   0.9365   0.9684   0.9994   1.0225   1.0426   1.0547
     1.0983   1.1590   1.1815   1.2013   1.2523   1.2790   1.3039   1.3191
     1.3316   1.3515   1.3820   1.4379   1.4481   1.4699   1.4792   1.5174
     1.5274   1.5520   1.5630   1.5786   1.5855   1.5884   1.6310   1.6402
     1.7082   1.7583   1.7947   1.8212   1.8338   1.8483   1.8576   1.8886
     1.9080   1.9392   1.9423   2.0334   2.0361   2.0596   2.1907   2.2181
     2.2310   2.2464   2.4747   2.6418   2.8700   3.2595   3.4135   3.5070
     3.6937   4.2945   4.5923   4.9649   5.2974   5.5524   5.5646   5.7757
     5.9027   6.2361   6.5196   6.5842   6.7146   6.8713   6.9171

          k = 0.2000 0.3464 0.0000 ( 87676 PWs)   bands (ev):

   -18.6141  -9.2807  -6.5267  -5.3502  -5.2909  -5.2790  -4.9022  -4.5307
    -4.2777  -4.2196  -4.2151  -4.2004  -4.1564  -4.1410  -4.1363  -4.1121
    -4.0280  -4.0143  -3.8541  -3.6563  -3.6427  -3.6243  -3.6150  -3.5532
    -3.5252  -3.4100  -3.3904  -3.3819  -3.3632  -3.3149  -3.2751  -3.2386
    -3.2238  -3.2109  -3.1717  -3.1412  -3.1206  -3.0773  -3.0664  -3.0174
    -2.9764  -2.7254  -2.6420  -2.6315  -2.6034  -2.5899  -2.5719  -2.5630
    -2.5424  -2.5083  -2.4839  -2.3516  -2.3340  -2.3119  -2.2461  -2.2180
    -2.1655  -2.1519  -2.1293  -2.0721  -2.0612  -1.9068  -1.8828  -1.8587
    -1.8017  -1.7848  -1.7639  -1.7483  -1.7259  -1.6840  -1.6699  -1.5524
    -1.5289  -1.5140  -1.4980  -1.4598  -1.4481  -1.4155  -1.3912  -1.3559
    -1.3349  -1.2724  -1.2359  -1.2117  -1.2002  -1.1924  -1.1744  -1.1681
    -1.1345  -1.1186  -1.0967  -1.0857  -1.0244  -1.0195  -0.9620  -0.9447
    -0.9181  -0.8971  -0.8730  -0.8546  -0.8265  -0.8099  -0.7906  -0.7793
    -0.7671  -0.7372  -0.7287  -0.7171  -0.6743  -0.6665  -0.6355  -0.5646
    -0.5486  -0.5233  -0.4721  -0.4488  -0.4172  -0.3457  -0.2562  -0.2280
    -0.1781  -0.1320  -0.0906  -0.0755  -0.0511  -0.0322  -0.0123   0.0069
     0.0261   0.0663   0.0924   0.1312   0.1684   0.2184   0.2732   0.3116
     0.3471   0.3756   0.3991   0.4377   0.4574   0.4935   0.5418   0.5853
     0.6011   0.6458   0.6587   0.6945   0.7330   0.7806   0.8136   0.8298
     0.8572   0.8802   0.9040   0.9073   0.9227   0.9330   0.9529   0.9725
     1.0440   1.1317   1.1426   1.1904   1.2468   1.3025   1.3453   1.3837
     1.4566   1.4675   1.5032   1.5462   1.5815   1.6011   1.6123   1.6305
     1.6453   1.6659   1.6687   1.6903   1.7075   1.7274   1.7402   1.7987
     1.8385   1.8556   1.8710   1.8935   1.9162   1.9447   2.0687   2.1067
     2.1391   2.1822   2.2024   2.2111   2.3287   2.3606   2.4437   2.8630
     2.8890   2.9674   3.2731   3.4260   3.4365   3.5817   3.8390   4.1344
     4.2927   4.3528   4.3970   4.5509   4.9656   5.1382   5.5362   5.6710
     5.7806   5.8456   6.2912   6.3198   6.3604   6.3907   6.5260

          k = 0.2000-0.5774 0.0000 ( 87714 PWs)   bands (ev):

   -18.6141  -9.2806  -6.0048  -5.9846  -5.3820  -5.0153  -4.8429  -4.7021
    -4.3889  -4.2448  -4.1894  -4.0844  -4.0611  -4.0379  -3.9350  -3.9128
    -3.8263  -3.8060  -3.7280  -3.7021  -3.6789  -3.6654  -3.6494  -3.6303
    -3.5384  -3.5152  -3.4799  -3.4692  -3.4500  -3.4364  -3.3429  -3.2505
    -3.2230  -3.1583  -3.1022  -3.0891  -3.0768  -3.0690  -3.0337  -2.9552
    -2.9429  -2.8619  -2.8241  -2.6629  -2.6517  -2.6134  -2.5246  -2.4860
    -2.4640  -2.4413  -2.3352  -2.2987  -2.2705  -2.2463  -2.2213  -2.1812
    -2.1670  -2.1414  -2.0643  -2.0490  -2.0324  -2.0178  -2.0054  -1.9846
    -1.9662  -1.9542  -1.8943  -1.7952  -1.7876  -1.7526  -1.7007  -1.6405
    -1.5995  -1.5836  -1.5752  -1.5245  -1.5113  -1.4863  -1.4692  -1.4208
    -1.3841  -1.3640  -1.3497  -1.3185  -1.3008  -1.2442  -1.2066  -1.1758
    -1.1506  -1.1399  -1.1023  -1.0637  -1.0105  -0.9812  -0.9668  -0.9520
    -0.9204  -0.8953  -0.8883  -0.8652  -0.8503  -0.8204  -0.8090  -0.7905
    -0.7726  -0.7559  -0.7377  -0.7267  -0.7064  -0.6990  -0.6755  -0.6418
    -0.6233  -0.5514  -0.4437  -0.3573  -0.3503  -0.3175  -0.3023  -0.2217
    -0.2192  -0.1759  -0.1441  -0.1169  -0.0991  -0.0839  -0.0564  -0.0405
     0.0184   0.0370   0.0487   0.0944   0.1646   0.1713   0.2111   0.2500
     0.3058   0.3840   0.3994   0.4211   0.4605   0.4934   0.5230   0.5528
     0.5827   0.6032   0.6125   0.6433   0.6664   0.6795   0.7509   0.7803
     0.8200   0.8251   0.8336   0.8567   0.8883   0.9324   0.9967   1.0218
     1.1210   1.1259   1.1984   1.2169   1.2884   1.3103   1.3627   1.3979
     1.4241   1.4458   1.5032   1.5653   1.5932   1.6214   1.6348   1.6587
     1.6731   1.6782   1.7248   1.7797   1.8020   1.8132   1.8398   1.8487
     1.8606   1.8686   1.9336   2.0368   2.0513   2.0612   2.0652   2.0816
     2.1241   2.1595   2.2665   2.3503   2.5117   3.2038   3.2303   3.2841
     3.4212   3.5579   3.6249   3.6542   3.6896   4.0874   4.2256   4.2714
     4.4236   4.7106   4.7520   4.8329   4.8686   5.0082   5.0494   5.1540
     5.2424   5.5468   5.6547   5.7175   5.9738   6.2750   6.3583

          k = 0.2000-0.3464 0.0000 ( 87676 PWs)   bands (ev):

   -18.6141  -9.2806  -6.5265  -5.3469  -5.2946  -5.2790  -4.8977  -4.5354
    -4.2831  -4.2188  -4.2091  -4.1852  -4.1726  -4.1392  -4.1340  -4.1127
    -4.0279  -4.0135  -3.8528  -3.6532  -3.6378  -3.6276  -3.6140  -3.5434
    -3.5309  -3.4051  -3.3870  -3.3776  -3.3690  -3.3134  -3.2927  -3.2426
    -3.2286  -3.2124  -3.1733  -3.1435  -3.1120  -3.0852  -3.0542  -3.0172
    -2.9718  -2.7287  -2.6542  -2.6339  -2.6060  -2.5881  -2.5747  -2.5682
    -2.5447  -2.5054  -2.4866  -2.3498  -2.3424  -2.3090  -2.2464  -2.2166
    -2.1632  -2.1538  -2.1251  -2.0724  -2.0610  -1.9079  -1.8853  -1.8700
    -1.8168  -1.7963  -1.7644  -1.7548  -1.7254  -1.6842  -1.6688  -1.5633
    -1.5219  -1.5078  -1.4981  -1.4557  -1.4428  -1.4123  -1.3950  -1.3523
    -1.3467  -1.2637  -1.2474  -1.2225  -1.1984  -1.1833  -1.1721  -1.1617
    -1.1274  -1.1152  -1.1066  -1.0548  -1.0323  -0.9974  -0.9620  -0.9386
    -0.9165  -0.9017  -0.8682  -0.8373  -0.8303  -0.8052  -0.7952  -0.7804
    -0.7563  -0.7378  -0.7275  -0.7134  -0.6841  -0.6598  -0.6343  -0.5694
    -0.5540  -0.5221  -0.4672  -0.4313  -0.4146  -0.3445  -0.2522  -0.2272
    -0.1935  -0.1421  -0.0835  -0.0707  -0.0541  -0.0378  -0.0162   0.0122
     0.0247   0.0556   0.0949   0.1314   0.1478   0.2196   0.2894   0.3068
     0.3503   0.3758   0.3977   0.4465   0.4645   0.5074   0.5400   0.5810
     0.6087   0.6399   0.6637   0.6903   0.7336   0.7813   0.8034   0.8338
     0.8391   0.8834   0.8957   0.9005   0.9287   0.9389   0.9503   1.0019
     1.0354   1.1112   1.1619   1.1857   1.2503   1.2908   1.3353   1.3897
     1.4533   1.4690   1.4789   1.5579   1.5821   1.5980   1.6127   1.6380
     1.6590   1.6673   1.6728   1.7034   1.7101   1.7309   1.7429   1.8052
     1.8424   1.8539   1.8737   1.8931   1.9295   1.9555   2.0461   2.0957
     2.1183   2.1700   2.1984   2.2093   2.3188   2.3604   2.4355   2.8512
     2.8933   2.9967   3.2549   3.4226   3.4376   3.5580   3.8715   4.1364
     4.3016   4.3530   4.3860   4.5479   4.9611   5.1529   5.5380   5.6649
     5.7739   5.8332   6.2743   6.3188   6.3632   6.4120   6.5052

          k = 0.4000-0.2309 0.0000 ( 87690 PWs)   bands (ev):

   -18.6141  -9.2809  -6.3880  -5.7527  -5.1935  -4.9116  -4.7209  -4.6798
    -4.6026  -4.3554  -4.3194  -4.1846  -4.1368  -4.0221  -3.9701  -3.9550
    -3.9117  -3.7899  -3.7472  -3.7283  -3.7194  -3.6821  -3.5928  -3.5654
    -3.5472  -3.5160  -3.4973  -3.4757  -3.4239  -3.3844  -3.3726  -3.3431
    -3.1274  -3.1176  -3.1066  -3.0969  -3.0884  -3.0529  -2.8712  -2.8570
    -2.8380  -2.8236  -2.8092  -2.7753  -2.6124  -2.5495  -2.5324  -2.5109
    -2.4999  -2.4635  -2.4382  -2.3950  -2.3729  -2.3623  -2.3167  -2.2919
    -2.1721  -2.1603  -2.1398  -2.1170  -2.0123  -1.9886  -1.9606  -1.9331
    -1.9157  -1.7912  -1.7602  -1.7219  -1.7107  -1.6875  -1.6358  -1.6078
    -1.5762  -1.5231  -1.4776  -1.4588  -1.4543  -1.4059  -1.3626  -1.3389
    -1.3295  -1.3149  -1.2766  -1.2652  -1.2450  -1.2239  -1.2123  -1.2028
    -1.1913  -1.1754  -1.1514  -1.0869  -1.0722  -1.0627  -1.0542  -1.0356
    -1.0017  -0.9513  -0.9010  -0.8819  -0.8534  -0.8145  -0.7875  -0.7722
    -0.7412  -0.7278  -0.6949  -0.6115  -0.6023  -0.5792  -0.5393  -0.5229
    -0.4783  -0.3903  -0.3512  -0.3392  -0.2920  -0.2495  -0.2142  -0.1872
    -0.1656  -0.1374  -0.1232  -0.1080  -0.0962  -0.0526  -0.0337  -0.0213
     0.0041   0.0227   0.0500   0.0613   0.0783   0.1602   0.1969   0.2109
     0.2618   0.2905   0.3198   0.3989   0.4335   0.4752   0.5262   0.5639
     0.6162   0.6516   0.6787   0.7320   0.7511   0.7753   0.7942   0.8102
     0.8562   0.8706   0.8907   0.9303   0.9599   1.0082   1.0436   1.0654
     1.0742   1.0939   1.1042   1.1920   1.2693   1.2808   1.2999   1.3392
     1.3706   1.3769   1.4508   1.4645   1.4879   1.5064   1.5791   1.5926
     1.6355   1.6539   1.6816   1.7076   1.7283   1.7873   1.7948   1.8222
     1.8289   1.8445   1.8506   1.8586   2.0181   2.0379   2.0479   2.0605
     2.0938   2.1763   2.2417   2.3009   2.5833   2.7458   2.8187   3.1011
     3.1306   3.1372   3.4771   3.5277   3.6659   3.8556   4.0916   4.3337
     4.3438   4.3985   4.5552   4.6412   4.6935   4.8945   4.9951   5.0593
     5.3527   5.6718   5.8584   6.2020   6.3251   6.7044   6.8314

          k = 0.4000-0.0000 0.0000 ( 87676 PWs)   bands (ev):

   -18.6141  -9.2811  -6.5247  -5.3328  -5.3120  -5.2635  -4.9026  -4.5390
    -4.2727  -4.2179  -4.2040  -4.1983  -4.1694  -4.1432  -4.1342  -4.0958
    -4.0329  -4.0171  -3.8946  -3.6427  -3.6346  -3.6298  -3.5946  -3.5607
    -3.5277  -3.4009  -3.3945  -3.3807  -3.3655  -3.3558  -3.2684  -3.2508
    -3.2174  -3.2077  -3.1887  -3.1451  -3.1177  -3.0970  -3.0700  -3.0013
    -2.9603  -2.7281  -2.6388  -2.6289  -2.6178  -2.5837  -2.5737  -2.5606
    -2.5174  -2.4922  -2.4752  -2.3551  -2.3306  -2.3258  -2.2420  -2.2076
    -2.1651  -2.1506  -2.1393  -2.0778  -2.0562  -1.9173  -1.8884  -1.8622
    -1.8127  -1.7795  -1.7617  -1.7454  -1.7180  -1.6840  -1.6687  -1.5577
    -1.5231  -1.5117  -1.5003  -1.4782  -1.4351  -1.4077  -1.3848  -1.3626
    -1.3284  -1.2653  -1.2415  -1.2154  -1.2059  -1.1853  -1.1666  -1.1538
    -1.1365  -1.1184  -1.0948  -1.0659  -1.0342  -1.0046  -0.9834  -0.9494
    -0.9199  -0.8854  -0.8707  -0.8453  -0.8288  -0.8106  -0.7932  -0.7764
    -0.7584  -0.7490  -0.7368  -0.6948  -0.6851  -0.6500  -0.6170  -0.5681
    -0.5482  -0.5226  -0.4955  -0.4473  -0.4316  -0.3788  -0.2518  -0.2312
    -0.1929  -0.1508  -0.1028  -0.0792  -0.0490  -0.0215  -0.0043   0.0042
     0.0362   0.0527   0.0915   0.1210   0.1434   0.2187   0.2743   0.3187
     0.3543   0.3667   0.4231   0.4381   0.4737   0.4873   0.5560   0.5765
     0.6153   0.6425   0.6609   0.6911   0.7245   0.7884   0.7981   0.8462
     0.8652   0.8812   0.9010   0.9072   0.9257   0.9351   0.9631   0.9888
     1.0194   1.0945   1.1381   1.2334   1.2495   1.2907   1.3513   1.4085
     1.4569   1.4836   1.5039   1.5244   1.5858   1.5970   1.6153   1.6207
     1.6514   1.6678   1.6736   1.6902   1.7151   1.7390   1.7472   1.8062
     1.8309   1.8397   1.8811   1.8943   1.9160   1.9696   2.0499   2.1037
     2.1409   2.1895   2.2104   2.2153   2.3013   2.3529   2.3958   2.8520
     2.8852   2.9980   3.3462   3.4143   3.4456   3.4952   3.8230   4.1404
     4.2554   4.3465   4.4194   4.6182   4.9094   5.1460   5.5383   5.6037
     5.7901   5.9325   6.2530   6.3169   6.3898   6.4067   6.5976

          k = 0.4000 0.2309 0.0000 ( 87690 PWs)   bands (ev):

   -18.6141  -9.2812  -6.3884  -5.7549  -5.1891  -4.9171  -4.7146  -4.6682
    -4.6168  -4.3645  -4.2953  -4.2132  -4.1431  -4.0226  -3.9728  -3.9471
    -3.9080  -3.7924  -3.7427  -3.7285  -3.7182  -3.6911  -3.5963  -3.5642
    -3.5490  -3.5154  -3.4924  -3.4770  -3.4277  -3.3786  -3.3731  -3.3583
    -3.1264  -3.1163  -3.1038  -3.0943  -3.0791  -3.0529  -2.8646  -2.8531
    -2.8333  -2.8204  -2.8036  -2.7674  -2.6186  -2.5443  -2.5220  -2.5112
    -2.4914  -2.4664  -2.4374  -2.3832  -2.3676  -2.3615  -2.3219  -2.2914
    -2.1708  -2.1631  -2.1322  -2.1155  -2.0099  -1.9761  -1.9489  -1.9257
    -1.9123  -1.7908  -1.7540  -1.7226  -1.7147  -1.6980  -1.6473  -1.5999
    -1.5921  -1.5356  -1.5008  -1.4869  -1.4714  -1.3837  -1.3583  -1.3358
    -1.3254  -1.3135  -1.2840  -1.2596  -1.2326  -1.2283  -1.2193  -1.2112
    -1.1884  -1.1681  -1.1476  -1.0966  -1.0696  -1.0603  -1.0334  -1.0127
    -0.9871  -0.9617  -0.8975  -0.8790  -0.8605  -0.8408  -0.8003  -0.7745
    -0.7611  -0.7405  -0.7072  -0.6138  -0.6010  -0.5765  -0.5402  -0.5135
    -0.4734  -0.4164  -0.3471  -0.3261  -0.2948  -0.2513  -0.2083  -0.1908
    -0.1580  -0.1443  -0.1180  -0.1051  -0.0938  -0.0469  -0.0315  -0.0156
     0.0047   0.0159   0.0413   0.0644   0.0867   0.1672   0.1928   0.2121
     0.2245   0.2866   0.3213   0.4004   0.4281   0.4541   0.5203   0.5674
     0.6212   0.6370   0.6883   0.7086   0.7390   0.7768   0.7885   0.8075
     0.8456   0.8645   0.9090   0.9369   0.9610   0.9866   1.0525   1.0708
     1.0819   1.0954   1.1302   1.1832   1.2538   1.2997   1.3350   1.3450
     1.3680   1.3861   1.4424   1.4752   1.4900   1.5323   1.5746   1.5857
     1.6315   1.6407   1.6650   1.6877   1.7276   1.7858   1.7945   1.8238
     1.8294   1.8404   1.8640   1.8709   2.0055   2.0381   2.0597   2.0785
     2.1007   2.1971   2.2351   2.3001   2.6163   2.7448   2.7854   3.0857
     3.1262   3.1651   3.4617   3.5184   3.6762   3.8612   4.0812   4.3376
     4.3450   4.4148   4.5357   4.6394   4.7012   4.8936   5.0038   5.0627
     5.3658   5.6936   5.8315   6.2016   6.3228   6.7181   6.8212

          k = 0.4000-0.6928 0.0000 ( 87714 PWs)   bands (ev):

   -18.6141  -9.2811  -5.9999  -5.9832  -5.3914  -4.9924  -4.8124  -4.7365
    -4.4162  -4.2217  -4.2004  -4.1089  -4.0565  -4.0321  -3.9277  -3.8948
    -3.8272  -3.8101  -3.7196  -3.7022  -3.6870  -3.6584  -3.6516  -3.6321
    -3.5822  -3.4995  -3.4922  -3.4783  -3.4444  -3.4170  -3.3680  -3.2811
    -3.2285  -3.1624  -3.1041  -3.0922  -3.0699  -3.0514  -3.0239  -2.9541
    -2.9151  -2.8403  -2.8336  -2.6608  -2.6494  -2.6002  -2.5171  -2.5043
    -2.4600  -2.4368  -2.3340  -2.3011  -2.2644  -2.2502  -2.2275  -2.1706
    -2.1623  -2.1426  -2.0611  -2.0443  -2.0189  -2.0085  -2.0014  -1.9912
    -1.9635  -1.9308  -1.9148  -1.8100  -1.7883  -1.7335  -1.7244  -1.6366
    -1.6004  -1.5804  -1.5605  -1.5263  -1.5165  -1.4917  -1.4674  -1.4135
    -1.3845  -1.3714  -1.3557  -1.3174  -1.2760  -1.2621  -1.2022  -1.1644
    -1.1493  -1.1367  -1.1119  -1.0672  -1.0141  -0.9721  -0.9558  -0.9344
    -0.9240  -0.8937  -0.8888  -0.8607  -0.8526  -0.8427  -0.8265  -0.8081
    -0.7613  -0.7429  -0.7266  -0.7230  -0.7136  -0.6883  -0.6758  -0.6650
    -0.6378  -0.6015  -0.4564  -0.3995  -0.3367  -0.3107  -0.2694  -0.2251
    -0.2163  -0.1832  -0.1606  -0.1350  -0.0996  -0.0896  -0.0465  -0.0255
    -0.0042   0.0410   0.0782   0.0937   0.1563   0.1792   0.1980   0.2635
     0.3181   0.3477   0.3742   0.4373   0.4758   0.5023   0.5457   0.5505
     0.5722   0.6002   0.6115   0.6338   0.6687   0.6912   0.7572   0.7795
     0.8008   0.8215   0.8379   0.8705   0.8826   0.9462   0.9854   1.0476
     1.0772   1.1446   1.1924   1.2713   1.2913   1.3098   1.3415   1.3975
     1.4341   1.4774   1.4998   1.5726   1.5925   1.6103   1.6238   1.6517
     1.6695   1.6940   1.7113   1.7763   1.7993   1.8079   1.8220   1.8422
     1.8640   1.8735   1.9356   2.0108   2.0398   2.0713   2.0890   2.0992
     2.1358   2.1540   2.2673   2.3855   2.5175   3.1429   3.2309   3.2344
     3.4980   3.5756   3.6066   3.6343   3.7254   4.0096   4.2446   4.2651
     4.4214   4.6984   4.7839   4.8427   4.8669   4.9754   5.0931   5.1778
     5.2990   5.4241   5.6536   5.7385   5.9420   6.3192   6.3261

          k = 0.4000-0.4619 0.0000 ( 87714 PWs)   bands (ev):

   -18.6141  -9.2809  -6.0050  -5.9760  -5.3931  -5.0007  -4.8092  -4.7237
    -4.4265  -4.2442  -4.1771  -4.0997  -4.0512  -4.0276  -3.9343  -3.8963
    -3.8214  -3.8107  -3.7172  -3.7005  -3.6892  -3.6625  -3.6494  -3.6373
    -3.5831  -3.4945  -3.4911  -3.4756  -3.4438  -3.4175  -3.3675  -3.2740
    -3.2323  -3.1709  -3.1075  -3.0894  -3.0697  -3.0545  -3.0285  -2.9605
    -2.9168  -2.8466  -2.8349  -2.6648  -2.6519  -2.5964  -2.5266  -2.4962
    -2.4619  -2.4380  -2.3326  -2.2951  -2.2610  -2.2552  -2.2337  -2.1799
    -2.1764  -2.1477  -2.0595  -2.0379  -2.0213  -2.0114  -2.0012  -1.9947
    -1.9663  -1.9321  -1.9153  -1.8205  -1.7837  -1.7341  -1.7199  -1.6321
    -1.6064  -1.5746  -1.5588  -1.5213  -1.4995  -1.4730  -1.4504  -1.4186
    -1.3893  -1.3611  -1.3431  -1.3195  -1.2976  -1.2678  -1.2037  -1.1741
    -1.1601  -1.1463  -1.1208  -1.0631  -1.0068  -0.9765  -0.9572  -0.9331
    -0.9154  -0.9035  -0.8814  -0.8593  -0.8516  -0.8202  -0.8040  -0.7998
    -0.7623  -0.7593  -0.7306  -0.7241  -0.7134  -0.6908  -0.6785  -0.6504
    -0.6311  -0.5914  -0.4680  -0.3930  -0.3232  -0.3104  -0.2754  -0.2409
    -0.2035  -0.1742  -0.1649  -0.1443  -0.1090  -0.0875  -0.0570  -0.0329
    -0.0000   0.0267   0.0589   0.1056   0.1458   0.1786   0.2103   0.2607
     0.3282   0.3613   0.4241   0.4469   0.4693   0.5067   0.5468   0.5580
     0.5816   0.5890   0.6162   0.6380   0.6710   0.7016   0.7231   0.7747
     0.7884   0.8164   0.8445   0.8754   0.8923   0.9428   0.9974   1.0260
     1.0753   1.1435   1.1943   1.2448   1.2756   1.2964   1.3384   1.4168
     1.4372   1.4616   1.5002   1.5699   1.6034   1.6215   1.6373   1.6563
     1.6734   1.6916   1.7274   1.7639   1.8008   1.8105   1.8293   1.8513
     1.8631   1.8736   1.9373   2.0250   2.0382   2.0626   2.0785   2.0960
     2.1253   2.1514   2.2641   2.3829   2.4837   3.1251   3.2312   3.2385
     3.5009   3.5805   3.6187   3.6326   3.7619   4.0196   4.2304   4.2519
     4.4262   4.7113   4.8117   4.8363   4.8706   4.9077   5.0637   5.1482
     5.3166   5.4675   5.6635   5.7270   5.9360   6.3104   6.3468

     the Fermi energy is     1.8537 ev

!    total energy              =  -27818.15851419 Ry

     total all-electron energy =  -1326871.534919 Ry
     estimated scf accuracy    <       0.00000045 Ry
     smearing contrib. (-TS)   =       0.00139810 Ry
     internal energy E=F+TS    =  -27818.15991229 Ry

     The total energy is F=E-TS. E is the sum of the following terms:
     one-electron contribution =  -26275.98922674 Ry
     hartree contribution      =   13441.40108069 Ry
     xc contribution           =    -904.02403370 Ry
     ewald contribution        =   11411.10567386 Ry
     one-center paw contrib.   =  -25490.65340640 Ry

     convergence has been achieved in  19 iterations

     negative rho (up, down):  1.321E-02 0.000E+00

     Forces acting on atoms (cartesian axes, Ry/au):

     atom    1 type  1   force =    -0.00007237    0.00042157   -0.00296490
     atom    2 type  1   force =    -0.00014085    0.00032689   -0.00285280
     atom    3 type  1   force =    -0.00027295    0.00109364   -0.00364655
     atom    4 type  1   force =    -0.00014620    0.00036274   -0.00496123
     atom    5 type  1   force =     0.00117573   -0.00083355   -0.00724082
     atom    6 type  1   force =    -0.00082566   -0.00035532   -0.00383933
     atom    7 type  1   force =    -0.00010022   -0.00152353   -0.00237057
     atom    8 type  1   force =    -0.00071561   -0.00064097   -0.00330019
     atom    9 type  1   force =     0.00016346   -0.00049988   -0.00362935
     atom   10 type  1   force =    -0.00009765    0.00053106   -0.00115967
     atom   11 type  1   force =    -0.00046018   -0.00026398    0.00147791
     atom   12 type  1   force =     0.00050883   -0.00038255    0.00018046
     atom   13 type  1   force =    -0.00342521    0.00237639    0.00475376
     atom   14 type  1   force =    -0.00267858    0.00090312    0.00333963
     atom   15 type  1   force =     0.00375798    0.00173034    0.00359769
     atom   16 type  1   force =     0.00065902   -0.00084683    0.00837362
     atom   17 type  1   force =     0.00055062   -0.00031425    0.00849239
     atom   18 type  1   force =    -0.00067345   -0.00287681    0.00877506
     atom   19 type  1   force =     0.00029564   -0.00012301   -0.00038928
     atom   20 type  1   force =     0.00039090    0.00015850   -0.00015435
     atom   21 type  1   force =    -0.00002037    0.00021376   -0.00014696
     atom   22 type  1   force =     0.00050547    0.00003134   -0.00055960
     atom   23 type  1   force =     0.00043963    0.00027201   -0.00049436
     atom   24 type  1   force =    -0.00010322   -0.00004232   -0.00045073
     atom   25 type  1   force =     0.00051391   -0.00040929   -0.00018816
     atom   26 type  1   force =     0.00018493   -0.00021255   -0.00052969
     atom   27 type  1   force =    -0.00020494    0.00025557   -0.00070182
     atom   28 type  1   force =     0.00001610   -0.00001956    0.00023900
     atom   29 type  1   force =     0.00019676   -0.00006274    0.00000177
     atom   30 type  1   force =     0.00023257   -0.00002428   -0.00003578
     atom   31 type  1   force =     0.00000908    0.00022068    0.00012401
     atom   32 type  1   force =     0.00021805    0.00020048    0.00013007
     atom   33 type  1   force =    -0.00002699    0.00006092   -0.00014543
     atom   34 type  1   force =    -0.00005709    0.00006256    0.00016663
     atom   35 type  1   force =     0.00119115    0.00020210   -0.00005507
     atom   36 type  1   force =    -0.00026003    0.00050338    0.00252332
     atom   37 type  2   force =    -0.00073652    0.00001894    0.00463090
     atom   38 type  3   force =    -0.00006767    0.00012792   -0.00086919
     atom   39 type  3   force =    -0.00032846   -0.00034289   -0.00092616
     atom   40 type  4   force =     0.00040440   -0.00029961   -0.00519425

     Total force =     0.007929     Total SCF correction =     0.002120
     SCF correction compared to forces is large: reduce conv_thr to get better values

     negative rho (up, down):  1.321E-02 0.000E+00

     negative rho (up, down):  1.321E-02 0.000E+00

     negative rho (up, down):  1.321E-02 0.000E+00

     negative rho (up, down):  1.321E-02 0.000E+00

     negative rho (up, down):  1.321E-02 0.000E+00

     negative rho (up, down):  1.321E-02 0.000E+00

     negative rho (up, down):  1.321E-02 0.000E+00

     negative rho (up, down):  1.321E-02 0.000E+00

     negative rho (up, down):  1.321E-02 0.000E+00

     negative rho (up, down):  1.321E-02 0.000E+00

     negative rho (up, down):  1.321E-02 0.000E+00

     negative rho (up, down):  1.321E-02 0.000E+00

     negative rho (up, down):  1.321E-02 0.000E+00

     negative rho (up, down):  1.321E-02 0.000E+00

     negative rho (up, down):  1.321E-02 0.000E+00

     negative rho (up, down):  1.321E-02 0.000E+00

     negative rho (up, down):  1.321E-02 0.000E+00

     negative rho (up, down):  1.321E-02 0.000E+00

     negative rho (up, down):  1.321E-02 0.000E+00

     negative rho (up, down):  1.321E-02 0.000E+00

     negative rho (up, down):  1.321E-02 0.000E+00

     negative rho (up, down):  1.321E-02 0.000E+00

     negative rho (up, down):  1.321E-02 0.000E+00

     negative rho (up, down):  1.321E-02 0.000E+00

     negative rho (up, down):  1.321E-02 0.000E+00

     negative rho (up, down):  1.321E-02 0.000E+00

     negative rho (up, down):  1.321E-02 0.000E+00

     negative rho (up, down):  1.321E-02 0.000E+00

     negative rho (up, down):  1.321E-02 0.000E+00

     negative rho (up, down):  1.321E-02 0.000E+00

     negative rho (up, down):  1.321E-02 0.000E+00

     negative rho (up, down):  1.321E-02 0.000E+00

     negative rho (up, down):  1.321E-02 0.000E+00

     negative rho (up, down):  1.321E-02 0.000E+00
 BEEFens 2000 ensemble energies
             -0.604856114658263E+02
             -0.360445130482859E+01
             -0.157987205496863E+02
              0.428094455127775E+02
             -0.220600780332466E+02
             -0.204940958187784E+02
             -0.350808303628863E+02
             -0.862061345650733E+02
             -0.464411746921975E+02
             -0.471871069522022E+02
             -0.368203203655540E+02
              0.225440690292944E+01
              0.405711786063560E+01
              0.765680346731637E+01
              0.264152728383581E+01
              0.473576213854913E+02
             -0.208333461249108E+02
             -0.230188228707891E+02
              0.192143725172746E+02
             -0.112080870134600E+03
              0.534686613051626E+02
             -0.289374745544242E+02
             -0.331899277959007E+01
             -0.113902445559351E+02
             -0.886247467611736E+01
             -0.463262446787297E+01
              0.880344169619061E+02
             -0.186196031991658E+02
             -0.898748289779508E+01
             -0.516725511086444E+02
              0.813855520708680E+02
             -0.187441765092659E+02
             -0.373713870762533E+02
              0.248897068556186E+02
             -0.283357324782173E+01
              0.162980579297409E+02
             -0.487349857094557E+01
              0.108312556965597E+02
              0.286992112748687E+02
             -0.103002829515334E+03
              0.556850295827850E+02
              0.142049329132042E+02
             -0.166371185042544E+01
             -0.360777184685967E+02
              0.122820365597504E+02
             -0.146139144874368E+02
              0.396772050238188E+02
              0.363906378523841E+02
             -0.307775370196255E+02
             -0.274100193034899E+02
             -0.327427712675766E+02
             -0.351052911043624E+02
              0.135508913455702E+02
             -0.489357661582607E+02
              0.115035195075378E+02
              0.621422801438131E+02
              0.632975468224179E+02
              0.355039876761294E+02
              0.153708789474468E+02
              0.269489740598775E+02
              0.888857733408345E+02
              0.212321724922683E+02
             -0.547008862738221E+02
             -0.156979188111430E+02
             -0.234999804196200E+02
              0.628057982374642E+02
             -0.771601685057957E+02
             -0.670190025947873E+02
             -0.258319196300919E+02
             -0.639812754844661E+01
             -0.469918644299730E+02
              0.269921790586511E+02
              0.796823405092607E+01
              0.862073779910799E+01
             -0.396168373480946E+02
             -0.345788852291628E+02
             -0.540098466940355E+02
              0.389568086469925E+02
             -0.294879082362041E+02
              0.264234172263394E+02
             -0.712912960583026E+01
             -0.317306090661950E+02
             -0.574991231030366E+02
             -0.176231257030990E+02
             -0.899267875587316E+01
             -0.124321529293270E+02
              0.411194913309221E+02
              0.680373933021331E+02
             -0.384213508486848E+02
             -0.792407646446596E+02
             -0.219187221977356E+02
              0.111206228834165E+03
             -0.590871332903195E+02
              0.355292861629953E+02
             -0.953324886910809E+01
             -0.661709723078334E+02
              0.253666236657359E+02
              0.397398150797959E+02
             -0.198369683818752E+02
              0.399612026383980E+02
             -0.295394075823840E+02
             -0.476176125910447E+02
              0.862701975884786E+02
              0.452595772170660E+02
              0.336105709125646E+02
              0.146063582639917E+02
              0.204839079501772E+02
              0.854283733272582E+02
             -0.256009667495046E+02
              0.787748254747174E+01
             -0.142020424186026E+03
              0.180726343411733E+02
             -0.714428978833815E+02
              0.150638436919493E+02
              0.203969594138021E+02
             -0.331758932480546E+02
             -0.555863771176342E+02
              0.653635395553124E+01
             -0.303276140535124E+02
              0.306411244284122E+02
             -0.528650284729560E+02
              0.175419892099342E+01
             -0.355840564438252E+02
             -0.422455741814821E+01
             -0.106456219464087E+01
              0.180344094890715E+02
              0.142583731546517E+01
             -0.650407978091562E+01
              0.588335192235685E+02
              0.905616906825295E+02
              0.482678857165561E+02
              0.828826240688796E+02
             -0.114772966612037E+02
              0.142842071758715E+02
              0.539685693776310E+02
             -0.111273163120439E+02
             -0.733601284630361E+02
             -0.382713942169393E+02
             -0.520402579771566E+02
             -0.275881764208821E+02
              0.326594821257177E+02
             -0.116426293862180E+03
             -0.186892862260015E+02
              0.412600361696818E+02
             -0.385116148238914E+02
             -0.364649095082233E+02
              0.542375140104880E+02
              0.399254992829269E+02
             -0.353263322004458E+02
              0.136424044795316E+02
             -0.272520559001464E+02
              0.342041279181500E+02
              0.443771059409812E+01
              0.211038817984566E+02
             -0.882566461389997E+02
             -0.478883896536615E+02
             -0.993653230842529E+01
              0.323677968418642E+01
             -0.365456870300079E+02
              0.105697107438379E+03
             -0.230789832702700E+02
             -0.398106003027702E+02
              0.387730206674887E+02
             -0.493027915275572E+02
             -0.362148771396891E+02
              0.323888916083349E+02
              0.124108928064272E+02
              0.164388944554976E+02
              0.115946765545914E+02
             -0.132552029166891E+02
              0.225116094125957E+02
              0.588554183954557E+02
             -0.310966903431267E+02
              0.161743944267812E+02
              0.932000488749596E+02
              0.339815558749967E+02
             -0.728396660274257E+01
             -0.187896679434644E+02
              0.152894657881872E+03
             -0.163197057689485E+02
              0.362085626920551E+02
              0.193375741583705E+02
              0.361000976527711E+02
              0.889329452806821E+02
              0.541678918882295E+02
             -0.238026984480908E+01
              0.226905465848977E+02
              0.483242755080780E+02
              0.362315033122607E+02
             -0.523672896316291E+02
              0.933300087726889E+02
             -0.823199849731688E+02
             -0.197911090122742E+02
              0.581262474073148E+02
              0.668657258017146E+01
              0.787426075143162E+01
              0.340221983313014E+02
              0.298899749887834E+02
              0.352746532305928E+02
             -0.635811664827316E+02
              0.286335545762449E+01
             -0.296981531370088E+02
             -0.868841516017147E+01
             -0.144203578702979E+01
             -0.717761076370871E+01
             -0.412687321976978E+01
              0.857030556515470E+02
             -0.101030540931898E+02
             -0.275528978890046E+02
             -0.496806895624017E+01
              0.139499488453235E+02
             -0.561975895491952E+02
             -0.405379121501603E+02
             -0.381158982320494E+02
             -0.628355009038063E+02
             -0.169043177120610E+02
             -0.446356612355012E+02
              0.162822934851825E+02
             -0.240806761973785E+01
             -0.104018919302702E+02
             -0.931946894771980E+01
              0.806843062304659E+01
             -0.242644779013597E+02
              0.687514181313564E+02
             -0.804541202442533E+02
             -0.140681454128737E+02
             -0.173762480383802E+02
              0.181609528733822E+02
              0.213716092338070E+02
             -0.462209218072992E+02
             -0.201603457139911E+02
              0.439611011631033E+02
             -0.275752772639290E+02
              0.186616431017767E+02
              0.382010253553870E+02
             -0.321827270090353E+01
              0.113799684465925E+03
             -0.229916480069315E+02
             -0.339996045234251E+02
              0.579142542159303E+01
             -0.227335957176200E+02
              0.525943043341015E+02
             -0.335659105248340E+02
              0.106074377443980E+02
              0.639314615053905E+02
             -0.125991509528825E+02
              0.119893750360203E+03
              0.125498155475597E+03
             -0.647754529387785E+02
              0.588898516021110E+02
              0.165691811741131E+02
             -0.516069980646066E+02
              0.215743456589202E+02
              0.352513157242840E+02
              0.361193234948519E+02
              0.133184187414085E+01
              0.159145598376614E+02
              0.693555957565330E+02
             -0.246298434503660E+02
              0.181191974661099E+02
              0.737204788693471E+02
             -0.371555232205435E+02
             -0.128813728920065E+02
              0.506724908601819E+02
              0.296492959003498E+02
              0.778070336244148E+02
              0.221614075260589E+02
              0.620125234823735E+01
              0.279748963575119E+02
              0.382016743786629E+02
             -0.470139406415004E+02
              0.328641997036266E+01
              0.128737314809795E+02
              0.113308800499736E+02
              0.219800412235179E+02
             -0.573027366969733E+02
              0.365179879638681E+02
             -0.442639410845945E+02
             -0.346537646562712E+02
              0.177395346346112E+02
             -0.181366599914584E+02
              0.553169005196551E+02
             -0.255870531518426E+02
              0.265865408609841E+02
              0.367411350786758E+02
              0.827030431554199E+02
              0.573248278893677E+02
              0.460270268533029E+02
             -0.105696699467157E+02
             -0.386232680859200E+01
             -0.331330669521881E+02
              0.748176641516449E+02
              0.794730695484855E+02
              0.360661840735565E+02
             -0.191033428618671E+02
              0.510415599061852E+02
             -0.163054408637460E+02
              0.214441243414908E+02
              0.612379066239109E+02
              0.214482531524644E+01
             -0.104137434857233E+02
             -0.282504008883436E+02
             -0.509705116192143E+02
              0.942521840002449E+02
              0.438142799655877E+02
             -0.557039406972255E+02
             -0.955023580580604E+01
              0.249207603042488E+02
             -0.994202472763598E+01
              0.590130381010142E+02
              0.151685159319123E+02
              0.796812642802693E+02
              0.278560949653894E+02
             -0.263316137713446E+02
              0.248473729456830E+02
             -0.499584721572518E+01
             -0.322991117572577E+02
              0.132673872257876E+02
              0.205295479726170E+02
              0.930230913535225E+02
              0.795227477204140E+02
              0.549340149236628E+02
              0.728901582812232E+02
              0.799227368211913E+01
             -0.272995555831868E+02
              0.162768874247904E+02
             -0.367113624213046E+02
             -0.474547712372814E+02
             -0.562001477054632E+02
             -0.265590541286044E+02
             -0.109397512649517E+03
             -0.290214690070327E+02
             -0.834759854316855E+02
              0.209432275997063E+02
             -0.475817861628119E+02
              0.395225005805769E+02
             -0.938469731627529E+02
             -0.329222557878224E+02
              0.547645230517653E+02
              0.207000627934147E+02
             -0.827889812098833E+02
              0.629616915739166E+02
             -0.255944125661728E+02
              0.510843676761882E+02
             -0.241841424673775E+02
             -0.749016873357141E+02
              0.111431948524958E+02
             -0.609395969856179E+02
             -0.168321695587124E+02
             -0.148360870064597E+01
              0.417108332554603E+02
              0.126649591557263E+03
             -0.460542077423714E+02
             -0.361477005334279E+02
             -0.956932588002644E+00
             -0.130211551599718E+02
             -0.820255709122640E+02
             -0.595260998376104E+02
              0.515826685796973E+02
             -0.288621770607106E+02
              0.168471608441131E+02
             -0.488012573797203E+02
             -0.131408089889546E+02
             -0.436096592683031E+02
              0.564252583682008E+02
              0.150716108849431E+02
             -0.230918791470618E+02
             -0.126343158371477E+02
              0.662679805788518E+01
             -0.617690313129560E+01
              0.440467656741319E+02
             -0.251288265797864E+02
              0.272992321343509E+01
              0.338322391768615E+02
              0.171004772713758E+02
             -0.159027524849958E+02
              0.155828358736989E+03
              0.536240462843595E+02
              0.112400541442017E+01
              0.161523761379594E+02
             -0.613119121985739E+02
              0.314031487697567E+02
             -0.719396488887561E+02
             -0.250976920600611E+02
             -0.520868336811864E+02
             -0.219564748376688E+02
              0.567435514824911E+02
             -0.535333249951617E+02
              0.159962440498020E+02
             -0.407067276733619E+01
              0.387560070565084E+01
             -0.433136064756062E+02
             -0.477189488925314E+02
             -0.398844928960841E+01
             -0.424195036207613E+02
             -0.216511743259532E+02
             -0.437356809471632E+02
             -0.119200011842443E+02
             -0.358140380710888E+02
             -0.515174577292736E+02
              0.212242308414995E+02
             -0.209077259319103E+02
              0.187075657217786E+02
              0.973043453892729E+01
             -0.735813432067113E+02
             -0.546730035998672E+02
             -0.396605436633837E+02
              0.353423432165341E+02
              0.273984527259879E+01
             -0.625001867675695E+02
              0.584109937775427E+02
             -0.399915596724778E+02
              0.543018318913225E+02
             -0.288694988397533E+02
             -0.444583824061262E+02
              0.297826973757251E+02
             -0.655517854232954E+02
             -0.379145227800771E+02
              0.671268638231970E+02
              0.203448424208659E+02
             -0.358793158316771E+02
              0.487881335461675E+02
             -0.173585274458949E+02
             -0.321729841145417E+02
             -0.300996573207979E+02
             -0.499162675040301E+02
              0.248673627606528E+02
             -0.930677043409892E+02
             -0.838238973786594E+02
             -0.731677190808739E+01
             -0.305979514856360E+02
             -0.573914953667551E+02
              0.719609709753314E+02
              0.131130814929378E+03
             -0.360550244675188E+02
             -0.253792674352945E+01
             -0.635519569631474E+02
              0.648620142710253E+02
              0.170096481900698E+02
             -0.181081944878315E+02
             -0.409071990117972E+02
              0.148220532349487E+02
             -0.584478131539657E+02
             -0.197562551114214E+02
             -0.902364999154124E+02
              0.336023496340201E+02
              0.168788277846201E+02
              0.186788949144079E+01
             -0.701648463332140E+01
             -0.328361921417247E+02
             -0.754117184349195E+01
              0.125126681074070E+03
             -0.198574391308501E+02
             -0.436006752475990E+02
             -0.681944550036892E+02
              0.108818544510112E+02
             -0.341000047490893E+02
              0.587287456618333E+01
              0.260470093152146E+02
              0.102061855579895E+02
              0.276803531193354E+02
              0.119303268278303E+02
              0.627983112570915E+02
              0.316173601172553E+02
             -0.325463777911201E+02
              0.353769104992804E+02
              0.378627784549471E+02
              0.120537225202372E+02
              0.486195588552343E+02
             -0.223724482739289E+02
              0.763829077970049E+02
              0.171504002413398E+02
             -0.271099916306183E+02
             -0.722606403207070E+01
             -0.185932395701442E+02
              0.261547790629795E+02
             -0.233728185628211E+02
             -0.767142388343984E-01
             -0.845443934421894E+01
              0.807370452381085E+02
              0.498360365156497E+02
             -0.685418331691187E+02
             -0.473757654470833E+01
             -0.554175290800538E+02
             -0.159160645144574E+02
             -0.267821504328355E+02
              0.371901962867810E+01
              0.602771674594628E+00
             -0.256775098019266E+02
              0.807958298339631E+01
             -0.599851111372281E+01
             -0.128483568602004E+02
              0.856490356317196E+02
              0.181453345918223E+02
             -0.804518240296804E+02
             -0.457441678507331E+02
              0.942167450269475E+02
              0.277183290282040E+02
             -0.106616998968507E+02
              0.104245027659543E+03
             -0.194421168464519E+02
             -0.122867325389826E+02
             -0.535233915804884E+01
              0.106965702980374E+02
              0.271369565819171E+02
              0.780797172682449E+01
              0.304609765591059E+02
             -0.187707822270602E+02
             -0.302519352838777E+02
             -0.416742823664589E+02
             -0.475554530135124E+02
              0.462976690171489E+02
              0.126437592316092E+02
              0.386589971287365E+02
              0.133039522465451E+02
              0.853036251469041E+02
              0.155816720823157E+02
             -0.843931173186281E+02
             -0.333578283894686E+02
              0.133830800989694E+02
             -0.302105118082058E+02
              0.624767524891311E+02
             -0.881127896940484E+01
              0.148239476729708E+02
              0.495609214936574E+02
             -0.704908011405593E+02
              0.149331437502297E+03
              0.208185084140616E+02
              0.270701387417595E+02
              0.346522764040440E+02
              0.103782893740813E+02
             -0.156012941320046E+01
              0.357619783755044E+02
             -0.356208009137760E+02
              0.770696378762571E+02
              0.682640399924303E+02
             -0.404959028366021E+02
              0.149122006008961E+02
              0.668115636108329E+02
             -0.223347850419259E+02
              0.153701612766095E+02
              0.434366955946390E+02
              0.421120213240021E+02
             -0.782807217486793E+02
             -0.152664626047107E+02
             -0.355542794388866E+02
             -0.146790104454499E+01
             -0.764679314942478E+01
             -0.548025927334675E+01
             -0.180429894662616E+02
             -0.292961567479479E+02
              0.628079808774260E+01
              0.111639157970681E+02
              0.534207130106266E+02
             -0.388903626411691E+02
              0.372997422332019E+02
              0.437080278548569E+02
             -0.186519568991274E+02
              0.870307242704047E+02
             -0.696010534372121E+02
             -0.102893871883243E+03
             -0.656192318208911E+01
             -0.266587538731528E+01
              0.386713915765336E+01
              0.787296321088824E+02
             -0.107164445316689E+02
              0.415461579288450E+02
              0.441837584458657E+02
              0.384197881682817E+02
             -0.993341577847070E+01
              0.626013369878540E+02
             -0.133131808640389E+02
             -0.306234031442713E+02
             -0.478702412851914E+02
              0.584364574674674E+01
              0.368731237173207E+02
             -0.602416644682756E+01
              0.392185402453879E+02
             -0.175035977434845E+01
              0.653800977852057E+02
              0.186934136768656E+02
              0.996125429348683E+01
             -0.121984660299256E+02
              0.331410763701347E+02
              0.361391889978134E+02
              0.232385333592587E+02
             -0.498013638320714E+00
             -0.549060867819877E+02
              0.259816142618921E+02
              0.174557951044962E+02
              0.401838639694745E+02
              0.271384566135252E+02
              0.371445315214106E+02
             -0.601145680780709E+01
              0.250022777991437E+02
             -0.297757187188831E+02
             -0.197479985758844E+01
             -0.567838150506341E+02
             -0.306891012432919E+02
              0.377557146754110E+02
             -0.933274706162399E+02
              0.293837616782936E+02
              0.183726534022834E+02
              0.837782395888769E+02
             -0.300399557007676E+02
              0.328537983761474E+02
             -0.137428148698237E+02
             -0.462556089911593E+02
             -0.759939996921048E+02
             -0.520590091680413E+01
             -0.857454086910856E+02
              0.199668459467359E+02
             -0.246963993624440E+02
              0.304863183920399E+02
              0.236220736179683E+02
             -0.240281514848468E+02
             -0.264551872495418E+02
              0.389738486108764E+02
             -0.586709667190486E+02
             -0.116278973316151E+02
             -0.195674486670100E+02
              0.211918825759030E+02
             -0.894356460675840E+01
              0.360798414601300E+01
             -0.200312454406180E+02
              0.557293883670384E+02
             -0.437712804980781E+02
              0.786408172948381E+01
              0.583706479031363E+02
             -0.322277217317965E+02
              0.359184006285318E+01
             -0.883491540148850E+01
             -0.667715076853633E+02
             -0.481678349701680E+02
             -0.861444219938073E+01
              0.239831768332989E+02
              0.301296963682562E+02
              0.859256208977365E+01
             -0.409960981154370E+01
              0.151439545389828E+02
             -0.438893589118034E+02
              0.334583224291538E+01
             -0.529732630176121E+02
             -0.324085756088801E+02
              0.473273886135020E+02
             -0.294299939628247E+02
              0.620422561111994E+02
             -0.214063109539199E+02
              0.352822685037576E+02
              0.241051672517945E+02
             -0.642484613321814E+02
             -0.279801557450161E+02
              0.929495341442646E+01
             -0.370504892922341E+02
             -0.338465020426710E+02
             -0.827408089926466E+02
             -0.537832466702092E+02
             -0.509095534795434E+02
             -0.414268055722443E+02
             -0.987649778073944E+00
              0.987020062444401E+01
              0.996060090825495E+00
              0.152311155821438E+02
             -0.547718212352872E+02
              0.141490666014116E+02
              0.255922369472438E+02
             -0.664929450182657E+02
             -0.700581117518490E+02
             -0.430268397657406E+02
             -0.170899109547951E+02
              0.178161886012757E+02
              0.456895005290312E+01
             -0.424829777759161E+02
              0.365587015645209E+02
             -0.215505270301062E+02
              0.516058552458311E+02
             -0.884758549849337E+02
              0.595839217336747E+02
             -0.207855326756322E+01
             -0.367266080547810E+02
             -0.215533748131248E+02
              0.471792053806652E+01
              0.373149564152318E+02
             -0.754480187501503E+02
             -0.120385997355617E+02
             -0.216270399799538E+02
              0.510098690645871E+02
              0.862673148347258E+02
             -0.962459612857956E+02
              0.941556877117247E+02
              0.466758250561876E+02
             -0.723363104664154E+02
             -0.365794391219212E+02
              0.749769815952116E+02
              0.630535908665526E+02
             -0.180602774804451E+02
             -0.461794709458826E+01
              0.726652915183121E+01
              0.646859505162596E+02
             -0.506730313111222E+02
              0.158104763564121E+02
             -0.469596422109716E+01
              0.347146459549117E+02
             -0.745103891259092E+02
             -0.647813650610453E+01
             -0.350478265310412E+02
              0.459351564265471E+02
              0.467795261030261E+02
             -0.859374329188274E+02
             -0.485764483976498E+02
             -0.255727210228639E+02
             -0.338111147480922E+02
             -0.108961800040701E+02
             -0.242436338557472E+02
              0.426146899274581E+02
              0.399890166286185E+02
             -0.565070227565047E+01
             -0.415031930539467E+02
             -0.848131447170940E+02
              0.441699954745176E+02
             -0.522088437474414E+02
             -0.311983980200802E+02
              0.544583758727933E+01
             -0.321484315461568E+02
             -0.396804420205429E+02
             -0.239311665734674E+02
             -0.383980047706995E+02
             -0.270139553377437E+02
             -0.481217759413375E+02
              0.562417971922494E+02
              0.636669671297325E+02
             -0.167666315023632E+01
             -0.260745312453059E+02
             -0.628246586338093E+01
              0.440184054656467E+02
             -0.865675508400591E+02
             -0.145568726992729E+02
              0.522347306461672E+02
              0.661705555878092E+02
             -0.244437179426865E+02
              0.912183041049798E+01
              0.522163046723122E+02
              0.197843526630840E+02
             -0.828603989545007E+01
             -0.452220099225995E+02
[...]
              0.283016203909115E+02
              0.141417582006528E+03
              0.241435819223140E+02
              0.122021365789473E+02
             -0.463020062717371E+02
             -0.636091137436550E+02
             -0.188711627850561E+02
              0.328906837585097E+02
             -0.425741580468696E+01
              0.189150662219801E+02
              0.335091261803606E+02
             -0.584672833505442E+02
              0.221624428026665E+02
              0.581315756466608E+02
              0.551275227107977E+02
             -0.415933482334736E+01
             -0.139340725869738E+01
             -0.992268474002924E+01
             -0.481121062268798E+02
             -0.672770959813386E+02
              0.783307419685340E+02
             -0.519345328479798E+01
             -0.586373922701296E+02
              0.167493994387104E+01
             -0.204333231557165E+02
              0.936082652764886E+02
             -0.215817482845304E+02
             -0.352423801346296E+02
              0.334124287794109E+02
             -0.145252054452563E+02
              0.388167795570818E+02
             -0.238721715750648E+01
              0.100822840055481E+03
              0.487995821391650E+02
             -0.516654182803644E+01
             -0.320700111119685E+02
              0.231427428148266E+02
             -0.526904106152235E+02
             -0.127819178741183E+02
              0.583779980628562E+02
             -0.286962907826810E+02
             -0.437058936854975E+02
             -0.222479737227355E+02
              0.517158998695415E+02
              0.124462084690919E+02
             -0.846546159399331E+02
              0.302923295338679E+02
              0.152025398083268E+02
              0.573472452387921E+01
             -0.512054202557841E+02
             -0.381295766767886E+01
              0.322067209291846E+02
              0.511582867605827E+02
              0.630609572764140E+02
              0.227845350087590E+02
              0.728384837538300E+00
             -0.496329889772773E+02
             -0.508866323446439E+02
             -0.746109914121366E+02
             -0.609551900636586E+01
              0.307983296852309E+02
             -0.380416656057801E+01
              0.545342767289686E+02
             -0.317037295947680E+02
              0.165893830214137E+02
             -0.101874145870039E+02
             -0.288792382411050E+02
              0.583914658893422E+02
              0.791113906656091E+01
              0.602348548370366E+02
              0.507929939531550E+01
              0.264506177511764E+02
             -0.192215693078711E+02
              0.584348271832685E+02
             -0.110932080677612E+02
             -0.124439929078513E+00
             -0.787828812245137E+02
             -0.128203839409911E+02
              0.717082157831256E+02
              0.671348460537000E+02
              0.251021634997337E+02
             -0.129820114215424E+02
              0.341736513485063E+01
             -0.172718799804821E+02
             -0.197847440200221E+01
              0.905082046927204E+02
              0.121590898781074E+01
             -0.189414845942569E+02
             -0.110438726744855E+03
             -0.551525024623597E+02
             -0.373885101094823E+02
             -0.656817645022340E+02
             -0.553729776399512E+02
             -0.680532372084896E+02
             -0.445769538728170E+02
             -0.410183260454871E+02
             -0.450391544034785E+02
              0.482252020162317E+02
             -0.293786056881410E+02
             -0.993182092305669E+02
              0.417758250586641E+02
             -0.258921856437986E+02
             -0.788429477635978E+02
              0.940834717139371E+02
             -0.218886353786408E+02
              0.227710348477488E+02
              0.454142410392258E+02
             -0.139950482565428E+01
              0.253541879807863E+02
              0.470555036974383E+01
              0.409137895376070E+00
             -0.150271272762835E+02
             -0.713504840853273E+02
              0.132956811094140E+02
             -0.129042529138118E+03
              0.621853168548853E+02
             -0.439440822445211E+02
             -0.162264523609508E+02
             -0.157399754793988E+02
              0.706199879354927E+01
             -0.227318723394322E+02
              0.296303983406910E+02
             -0.518673227737791E+02
              0.366196203853015E+02
              0.369558477782397E+02
              0.168234943868863E+02
              0.100305804306970E+02
              0.197159285510038E+02
              0.618067599742074E+01
              0.309488352338609E+02
             -0.798840810264372E+01
             -0.589812088190424E+02
              0.754701456264087E+01
             -0.151427957661264E+02
             -0.192330988670506E+01
              0.504474407120442E+02
             -0.824531246726934E+02
             -0.150240550948121E+01
              0.558099562392385E+00
              0.992833315756275E+01
              0.317515606003899E+02
             -0.123206802945800E+02
              0.833146060061612E+02
              0.486750481081868E+02
             -0.182869677529645E+02
             -0.953804063461905E+01
              0.104120465837215E+01
              0.767190626627741E+02
             -0.584802537823866E+02
             -0.105470456222300E+03
              0.308395714675049E+02
             -0.162916086638474E+02
             -0.139041172462099E+02
              0.129850188414667E+02
              0.766266350464763E+02
              0.462980162647775E+02
             -0.152920096375715E+02
             -0.501285505315992E+02
             -0.544643336859714E+01
              0.305603135340212E+02
             -0.110976047880605E+02
             -0.753417049577201E+02
             -0.267585570991778E+01
             -0.886817437958169E+02
             -0.473929418498923E+02
              0.765697731568788E+02
             -0.481910289858322E+02
             -0.634257455139043E+02
             -0.512778374502430E+02
             -0.348457213048242E+02
              0.339970418778326E+02
              0.818987217358654E+02
             -0.353287587598339E+01
              0.275744861518867E+02
             -0.183121977319133E+02
             -0.691824452923335E+02
              0.463483911163392E+02
             -0.443493501412621E+02
              0.321115095654984E+02
              0.375461348611048E+02
             -0.650163964574000E+01
              0.389424565111017E+02
              0.437259635855868E+02
              0.100271538124407E+03
             -0.155799088101339E+02
             -0.454138154169350E+02
             -0.610672069289741E+02
             -0.123184259127141E+02
             -0.231496334981630E+02
              0.102747937942637E+03
             -0.447696826729795E+02
              0.104830016260454E+02
              0.971704390503464E+01
             -0.264100122331676E+02
             -0.796108127778333E+02
             -0.697530964786120E+01
              0.976758643822259E+02
              0.929987170523124E+01
              0.806954711730509E+01
             -0.525027534123344E+02
             -0.603730530487223E+02
             -0.556122744802538E+01
              0.498990959059444E+02
             -0.221057420233326E+02
              0.107668872656819E+03
             -0.434096060417564E+02
              0.145669650943219E+02
             -0.223841146223086E+02
             -0.716667789298838E+02
              0.165214911334544E+01
             -0.499847786911391E+02
             -0.758342737388042E+02
              0.611646718408980E+01
              0.235255657364496E+01
              0.512633437758234E+02
              0.186323725173636E+02
             -0.322492371280984E+02
              0.229390164268900E+02
             -0.808120435530451E+02
             -0.520326655204442E+02
              0.898889330961281E+02
              0.142305353743971E+02
             -0.188012382019415E+02
             -0.351740875522882E+02
             -0.269732803520435E+01
             -0.582419760975472E+01
              0.827328345888304E+02
              0.416484157887346E+02
             -0.165858241854705E+02
             -0.122035663159569E+02
             -0.426549059748903E+02
             -0.200383344208992E+02
             -0.668125558180227E+02
              0.458059685286008E+02
              0.544504304918212E+01
              0.144721055504227E+02
              0.155448963378532E+02
             -0.509676968434849E+00
             -0.167663927464960E+02
             -0.312787108054432E+01
             -0.100070038017048E+03
             -0.229675371936956E+02
             -0.761671598022428E+01
             -0.946576214219928E+01
              0.544930366823554E+02
              0.621781118026726E+02
              0.164224800884664E+02
             -0.967733962047838E+02
              0.645511515916337E+02
             -0.214203794143501E+02
             -0.375829223649658E+02
             -0.861450989553451E+02
             -0.386260226835547E+02
              0.562451456536143E+02
              0.243183335422247E+02
              0.508578658327929E+01
              0.291105553146033E+02
             -0.563183478358891E+02
             -0.420683684808946E+02
              0.513249976784020E+02
              0.385858802477818E+02
              0.517454001348839E+02
             -0.126043138461995E+01
              0.681606837413949E+01
              0.567849468804678E+02
              0.959647968668124E+02
             -0.299797521021089E+02
              0.321510461403634E+02
             -0.117446604626408E+02
             -0.410782316013525E+02
             -0.313190855892470E+02
             -0.299086550730941E+02
             -0.130885311591551E+02
             -0.521914853659051E+02
             -0.216661334915087E+02
             -0.140774070301202E+03
              0.368052555914922E+02
              0.205793015943403E+02
             -0.392739667264394E+01
             -0.378840766856350E+02
             -0.203653655737957E+02
             -0.524956398062009E+02
              0.151186155747128E+02
              0.817585005633126E+02
             -0.251662314038849E+02
             -0.162370885601858E+02
              0.237429105326635E+02
             -0.487816888158022E+02
              0.877886085994824E+02
              0.153950760573154E+02
              0.226277562136636E+02
              0.488536156708699E+02
              0.323245675683825E+01
              0.540161716062022E+02
              0.142286993135097E+02
             -0.106586376465600E+02
              0.726328997378661E+01
              0.824880973489257E+00
              0.725191266276137E+02
              0.100981810043843E+02
              0.119777247848326E+02
             -0.129842662983559E+02
              0.132069087294591E+02
             -0.908233618626078E+02
             -0.324728631156712E+02
             -0.455748291186333E+02
              0.483690271178178E+02
             -0.289924772862497E+02
             -0.656873949960495E+02
              0.536478697316527E+02
             -0.121612362032697E+02
              0.438792400839513E+02
             -0.895938662430739E+02
              0.231570707273541E+02
              0.856378145665030E+01
              0.579986763233615E+01
             -0.827361977911130E+01
             -0.901687035115185E+01
              0.477922121875644E+02
              0.199228377640702E+01
             -0.473279023639478E+02
             -0.175437335358741E+02
              0.276172105727777E+02
             -0.117578085529061E+03
             -0.927101108315560E+02
              0.396515309461859E+01
              0.117052202857387E+02
             -0.411514323495831E+02
             -0.390152485812928E+01
              0.111798160237140E+03
              0.305613040023808E+02
             -0.569919067830267E+02
              0.922725567630934E+01
             -0.960701886404799E+01
              0.105276197070808E+02
             -0.336475755134106E+02
              0.194636330966346E+02
              0.283870647645890E+02
             -0.295477042319305E+01
              0.107811810127063E+03
             -0.140314553226717E+02
             -0.315038645239568E+02
              0.141799067092253E+02
              0.465331450572127E+02
             -0.354945394459643E+02
             -0.317197512445959E+01
              0.961730737240139E+02
             -0.465117391726005E+01
              0.620051630937987E+02
              0.134914126800780E+02
             -0.899916729681726E+01
             -0.304952549186187E+02
              0.565133311490266E+02
             -0.512286186293770E+02
             -0.220892904389888E+01
             -0.169372562995071E+02
             -0.403996555957771E+02
              0.184623371811265E+02
              0.238426331329660E+02
              0.116274903187521E+02
              0.728937347670694E+00
             -0.383070436990875E+02
              0.214922376084990E+02
             -0.674866898432472E+01
             -0.245833450860934E+02
             -0.210001883995349E+02
              0.202874416015993E+02
             -0.598064713668100E+01
             -0.347926341642849E+02
             -0.106293149073840E+03
              0.102680882067417E+02
              0.248463019301435E+02
             -0.385614459398863E+02
             -0.210100616302445E+02
              0.804437678948001E+02
              0.646489554787587E+01
              0.309210206704015E+02
              0.385987263654874E+01
              0.320479995967929E+02
              0.646484880472156E+01
             -0.371672864080334E+02
             -0.227468590148430E+01
              0.874908506579544E+01
              0.272805292405216E+02
              0.779629070379073E+02
              0.505890618745429E+02
              0.170327392121806E+00
              0.168858839806026E+02
              0.611291318677221E+02
              0.234924821948882E+02
             -0.750767185464078E+02
             -0.272908668501619E+02
              0.150827130826406E+02
              0.558109754057602E+01
              0.254182125953041E+02
             -0.546245822728180E+02
              0.897740976768819E+01
              0.384597331109967E+02
              0.496486560656459E+02
             -0.433570616925300E+02
             -0.692514171989518E+01
             -0.207053132416536E+01
             -0.133064956636114E+02
             -0.364832435952785E+02
             -0.214992208404043E+02
             -0.197070480714899E+01
              0.789237826195847E+01
              0.420055031004806E+02
             -0.307168664401366E+02
              0.823621740867137E+02
              0.326383596777344E+02
              0.218880619778751E+02
              0.331869382608959E+02
              0.322511842401044E+02
              0.345021887575980E+02
              0.535417487263771E+02
             -0.432378889972013E+02
              0.617626258181777E+02
             -0.111907947995384E+03
              0.306409024341622E+02
             -0.106200130719110E+03
              0.852167849667929E+02
              0.688111810918917E+02
             -0.109623263142390E+02
             -0.491855904240405E+02
             -0.428199409725079E+02
             -0.621953887485772E+02
             -0.626620244336913E+02
              0.550096511495698E+02
              0.404099645298556E+02
              0.236019445557766E+02
              0.373169943059762E+02
              0.401607982059766E+02
             -0.380812120881318E+02
             -0.197459899584082E+02
              0.584916149766537E+02
             -0.115669675980579E+02
              0.550266714238902E+02
              0.696853597053706E+02
             -0.553292687726580E+01
             -0.703857286267878E+02
             -0.918576557020970E+00
             -0.247748726754342E+01
             -0.878993564892585E+01
             -0.181513894658798E+01
             -0.650983289794926E+02
             -0.210640933186771E+02
              0.534387453390984E+01
              0.893909386380318E+01
              0.467265118365733E+02
             -0.396350269123469E+02
              0.656063263225511E+02
             -0.424137054889998E+02
              0.209446473567404E+02
              0.348893563802413E+02
 
 BEEF-vdW xc energy contributions
           1 :   -780.778335987990     
           2 :    717.519198169706     
           3 :   -607.893102418846     
           4 :    478.690680934089     
           5 :   -357.227499608951     
           6 :    263.262136356938     
           7 :   -204.488206314635     
           8 :    176.478350247122     
           9 :   -166.656660115804     
          10 :    160.417135191122     
          11 :   -146.897136491871     
          12 :    122.232648111572     
          13 :   -89.4434278243663     
          14 :    55.5552488243120     
          15 :   -27.6174103899236     
          16 :    9.42380604075129     
          17 :  -0.210673780596153     
          18 :   -4.40347282123651     
          19 :    9.93464099274297     
          20 :   -20.3149127006988     
          21 :    36.1912529694083     
          22 :   -54.9155310876516     
          23 :    72.0598111660466     
          24 :   -83.6300138878561     
          25 :    87.8903365855853     
          26 :   -85.9942323293790     
          27 :    81.2231546123046     
          28 :   -77.2965556578982     
          29 :    76.6065916557374     
          30 :   -79.2106804171665     
          31 :   -85.4993194255969     
          32 :   -65.5639537771881     

     Writing output data file ./pwscf.save/
 
     init_run     :    300.36s CPU    304.70s WALL (       1 calls)
     electrons    :  11806.49s CPU  11929.91s WALL (       1 calls)
     forces       :     93.87s CPU     95.07s WALL (       1 calls)

     Called by init_run:
     wfcinit      :    252.22s CPU    255.53s WALL (       1 calls)
     potinit      :     44.81s CPU     45.12s WALL (       1 calls)
     hinit0       :      1.44s CPU      1.50s WALL (       1 calls)

     Called by electrons:
     c_bands      :   9826.60s CPU   9921.01s WALL (      20 calls)
     sum_band     :   1318.13s CPU   1331.13s WALL (      20 calls)
     v_of_rho     :    102.80s CPU    106.79s WALL (      20 calls)
     newd         :     30.63s CPU     42.82s WALL (      20 calls)
     PAW_pot      :    138.71s CPU    138.71s WALL (      20 calls)
     mix_rho      :    435.14s CPU    435.86s WALL (      20 calls)
     vdW_kernel   :     33.92s CPU     33.93s WALL (       1 calls)

     Called by c_bands:
     init_us_2    :     76.13s CPU     76.36s WALL (     546 calls)
     cegterg      :   9042.10s CPU   9136.29s WALL (     260 calls)

     Called by *egterg:
     cdiaghg      :     80.28s CPU     80.32s WALL (    1249 calls)
     h_psi        :   5637.07s CPU   5669.80s WALL (    1275 calls)
     s_psi        :    986.32s CPU    986.35s WALL (    1275 calls)
     g_psi        :     16.20s CPU     16.21s WALL (    1002 calls)

     Called by h_psi:
     h_psi:calbec :    923.69s CPU    923.81s WALL (    1275 calls)
     vloc_psi     :   3701.22s CPU   3702.29s WALL (    1275 calls)
     add_vuspsi   :    986.17s CPU    986.22s WALL (    1275 calls)

     General routines
     calbec       :   1361.26s CPU   1361.41s WALL (    1587 calls)
     fft          :     44.95s CPU     44.99s WALL (    3220 calls)
     ffts         :    136.44s CPU    136.47s WALL (   10856 calls)
     fftw         :   3798.45s CPU   3799.17s WALL (  333934 calls)
 
     Parallel routines
 
     PWSCF        :      3h25m CPU      3h27m WALL

 
   This run was terminated on:  19:19:50  20Dec2022            

=------------------------------------------------------------------------------=
   JOB DONE.
=------------------------------------------------------------------------------=
