
     Program PWSCF v.6.7MaX starts on 26Sep2022 at 21:10:17 

     This program is part of the open-source Quantum ESPRESSO suite
     for quantum simulation of materials; please cite
         "P. Giannozzi et al., J. Phys.:Condens. Matter 21 395502 (2009);
         "P. Giannozzi et al., J. Phys.:Condens. Matter 29 465901 (2017);
          URL http://www.quantum-espresso.org", 
     in publications or presentations arising from this work. More details at
     http://www.quantum-espresso.org/quote

     Parallel version (MPI), running on     1 processors

     MPI processes distributed on     1 nodes
     Reading input from h2o-ensemble.in
Warning: card &CELL ignored
Warning: card / ignored

     Current dimensions of program PWSCF are:
     Max number of different atomic species (ntypx) = 10
     Max number of k-points (npk) =  40000
     Max angular momentum in pseudopotentials (lmaxx) =  3
     file Pt.pbe-n-kjpaw_psl.1.0.0.UPF: wavefunction(s)  6S 5D renormalized
     file O.pbe-nl-kjpaw_psl.1.0.0.UPF: wavefunction(s)  2S 2P renormalized
     file H.pbe-kjpaw_psl.1.0.0.UPF: wavefunction(s)  1S renormalized

     **************************************************************************
     Initializing libbeef V0.1.2 with the BEEF-vdW functional.
     Citation: Wellendorff et al., PRB 85, 235149 (2012).
     **************************************************************************


     IMPORTANT: XC functional enforced from input :
     Exchange-correlation= BEEF-VDW
                           (   1   4  43  14   2   0   0)
     Any further DFT definition will be discarded
     Please, verify this is what you really want


     Subspace diagonalization in iterative solution of the eigenvalue problem:
     a serial algorithm will be used

 
     G-vector sticks info
     --------------------
     sticks:   dense  smooth     PW     G-vecs:    dense   smooth      PW
     Sum        4267    4267   1159               704859   704859   99447
 


     bravais-lattice index     =            0
     lattice parameter (alat)  =      16.0349  a.u.
     unit-cell volume          =   11221.5923 (a.u.)^3
     number of atoms/cell      =           39
     number of atomic types    =            3
     number of electrons       =       368.00
     number of Kohn-Sham states=          221
     kinetic-energy cutoff     =      60.0000  Ry
     charge density cutoff     =     240.0000  Ry
     scf convergence threshold =      1.0E-06
     mixing beta               =       0.7000
     number of iterations used =            8  local-TF  mixing
     Exchange-correlation= BEEF-VDW
                           (   1   4  43  14   2   0   0)

     celldm(1)=  16.034858  celldm(2)=   0.000000  celldm(3)=   0.000000
     celldm(4)=   0.000000  celldm(5)=   0.000000  celldm(6)=   0.000000

     crystal axes: (cart. coord. in units of alat)
               a(1) = (   1.000000   0.000000   0.000000 )  
               a(2) = (   0.500000   0.866025   0.000000 )  
               a(3) = (   0.000000   0.000000   3.142885 )  

     reciprocal axes: (cart. coord. in units 2 pi/alat)
               b(1) = (  1.000000 -0.577350  0.000000 )  
               b(2) = (  0.000000  1.154701  0.000000 )  
               b(3) = (  0.000000  0.000000  0.318179 )  


     PseudoPot. # 1 for Pt read from file:
     /users/bkreitz1/quantum-espresso/potentials/Pt.pbe-n-kjpaw_psl.1.0.0.UPF
     MD5 check sum: 04dc8a03c51ece93fc7b5889c2958091
     Pseudo is Projector augmented-wave + core cor, Zval = 10.0
     Generated using 'atomic' code by A. Dal Corso  v.6.7MaX
     Shape of augmentation charge: PSQ
     Using radial grid of 1277 points,  6 beta functions with: 
                l(1) =   0
                l(2) =   0
                l(3) =   1
                l(4) =   1
                l(5) =   2
                l(6) =   2
     Q(r) pseudized with 0 coefficients 


     PseudoPot. # 2 for O  read from file:
     /users/bkreitz1/quantum-espresso/potentials/O.pbe-nl-kjpaw_psl.1.0.0.UPF
     MD5 check sum: eef08af8b58d9ec80f8fdb78829eb7cf
     Pseudo is Projector augmented-wave + core cor, Zval =  6.0
     Generated using 'atomic' code by A. Dal Corso  v.6.7MaX
     Shape of augmentation charge: PSQ
     Using radial grid of 1095 points,  4 beta functions with: 
                l(1) =   0
                l(2) =   0
                l(3) =   1
                l(4) =   1
     Q(r) pseudized with 0 coefficients 


     PseudoPot. # 3 for H  read from file:
     /users/bkreitz1/quantum-espresso/potentials/H.pbe-kjpaw_psl.1.0.0.UPF
     MD5 check sum: ae98473e6dc62675f0d0baffdab24f65
     Pseudo is Projector augmented-wave, Zval =  1.0
     Generated using 'atomic' code by A. Dal Corso  v.6.7MaX
     Shape of augmentation charge: PSQ
     Using radial grid of  929 points,  2 beta functions with: 
                l(1) =   0
                l(2) =   0
     Q(r) pseudized with 0 coefficients 


     atomic species   valence    mass     pseudopotential
        Pt            10.00   195.08400     Pt( 1.00)
        O              6.00    15.99900     O ( 1.00)
        H              1.00     1.00800     H ( 1.00)

     No symmetry found



   Cartesian axes

     site n.     atom                  positions (alat units)
         1           Pt  tau(   1) = (   0.0000000   0.0000000   1.0017346  )
         2           Pt  tau(   2) = (   0.3333333   0.0000000   1.0017346  )
         3           Pt  tau(   3) = (   0.6666667   0.0000000   1.0017346  )
         4           Pt  tau(   4) = (   0.1666667   0.2886751   1.0017346  )
         5           Pt  tau(   5) = (   0.5000000   0.2886751   1.0017346  )
         6           Pt  tau(   6) = (   0.8333333   0.2886751   1.0017346  )
         7           Pt  tau(   7) = (   0.3333333   0.5773503   1.0017346  )
         8           Pt  tau(   8) = (   0.6666667   0.5773503   1.0017346  )
         9           Pt  tau(   9) = (   1.0000000   0.5773503   1.0017346  )
        10           Pt  tau(  10) = (   0.1666667   0.0962250   1.2739001  )
        11           Pt  tau(  11) = (   0.5000000   0.0962250   1.2739001  )
        12           Pt  tau(  12) = (   0.8333333   0.0962250   1.2739001  )
        13           Pt  tau(  13) = (   0.3333333   0.3849002   1.2739001  )
        14           Pt  tau(  14) = (   0.6666667   0.3849002   1.2739001  )
        15           Pt  tau(  15) = (   1.0000000   0.3849002   1.2739001  )
        16           Pt  tau(  16) = (   0.5000000   0.6735753   1.2739001  )
        17           Pt  tau(  17) = (   0.8333333   0.6735753   1.2739001  )
        18           Pt  tau(  18) = (   1.1666667   0.6735753   1.2739001  )
        19           Pt  tau(  19) = (  -0.0000721   0.1925087   1.5426738  )
        20           Pt  tau(  20) = (   0.3333322   0.1920572   1.5436667  )
        21           Pt  tau(  21) = (   0.6667442   0.1925045   1.5426790  )
        22           Pt  tau(  22) = (   0.1668714   0.4812960   1.5419089  )
        23           Pt  tau(  23) = (   0.4997830   0.4812823   1.5419142  )
        24           Pt  tau(  24) = (   0.8333390   0.4809722   1.5426747  )
        25           Pt  tau(  25) = (   0.3333131   0.7695248   1.5419503  )
        26           Pt  tau(  26) = (   0.6671394   0.7700883   1.5436130  )
        27           Pt  tau(  27) = (   0.9994983   0.7700984   1.5436479  )
        28           Pt  tau(  28) = (  -0.0013102   0.0001436   1.8162236  )
        29           Pt  tau(  29) = (   0.3333244  -0.0006857   1.8189831  )
        30           Pt  tau(  30) = (   0.6679313   0.0001435   1.8162766  )
        31           Pt  tau(  31) = (   0.1659189   0.2896412   1.8162136  )
        32           Pt  tau(  32) = (   0.5007335   0.2896137   1.8162552  )
        33           Pt  tau(  33) = (   0.8333202   0.2885920   1.8175802  )
        34           Pt  tau(  34) = (   0.3333325   0.5773017   1.8170901  )
        35           Pt  tau(  35) = (   0.6660055   0.5762014   1.8160053  )
        36           Pt  tau(  36) = (   1.0006477   0.5762126   1.8160265  )
        37           O   tau(  37) = (   0.3318280   0.0094375   2.1264528  )
        38           H   tau(  38) = (   0.2402535   0.0761692   2.1410033  )
        39           H   tau(  39) = (   0.4214684   0.0785745   2.1430242  )

     number of k points=    13  Marzari-Vanderbilt smearing, width (Ry)=  0.0200
                       cart. coord. in units 2pi/alat
        k(    1) = (   0.0000000   0.0000000   0.0000000), wk =   0.0800000
        k(    2) = (   0.0000000   0.2309401   0.0000000), wk =   0.1600000
        k(    3) = (   0.0000000   0.4618802   0.0000000), wk =   0.1600000
        k(    4) = (   0.2000000  -0.1154701   0.0000000), wk =   0.1600000
        k(    5) = (   0.2000000   0.1154701   0.0000000), wk =   0.1600000
        k(    6) = (   0.2000000   0.3464102   0.0000000), wk =   0.1600000
        k(    7) = (   0.2000000  -0.5773503   0.0000000), wk =   0.1600000
        k(    8) = (   0.2000000  -0.3464102   0.0000000), wk =   0.1600000
        k(    9) = (   0.4000000  -0.2309401   0.0000000), wk =   0.1600000
        k(   10) = (   0.4000000  -0.0000000   0.0000000), wk =   0.1600000
        k(   11) = (   0.4000000   0.2309401   0.0000000), wk =   0.1600000
        k(   12) = (   0.4000000  -0.6928203   0.0000000), wk =   0.1600000
        k(   13) = (   0.4000000  -0.4618802   0.0000000), wk =   0.1600000

     Dense  grid:   704859 G-vectors     FFT dimensions: (  80,  80, 250)

     Estimated max dynamical RAM per process >       8.44 GB

     Initial potential from superposition of free atoms

     starting charge  367.99387, renormalised to  368.00000

     negative rho (up, down):  1.212E-02 0.000E+00


     %%%%%%%%%%%%%%%%%%%%%%%%%%%%%%%%%%%%%%%%%%%%%%%%%%%%%%%%%%%%%%%%%%%%%%%%
     %                                                                      %
     % You are using vdW-DF, which was implemented by the Thonhauser group. %
     % Please cite the following two papers that made this development      %
     % possible and the two reviews that describe the various versions:     %
     %                                                                      %
     %   T. Thonhauser et al., PRL 115, 136402 (2015).                      %
     %   T. Thonhauser et al., PRB 76, 125112 (2007).                       %
     %   K. Berland et al., Rep. Prog. Phys. 78, 066501 (2015).             %
     %   D.C. Langreth et al., J. Phys.: Condens. Matter 21, 084203 (2009). %
     %                                                                      %
     %                                                                      %
     % If you are calculating the stress with vdW-DF, please also cite:     %
     %                                                                      %
     %   R. Sabatini et al., J. Phys.: Condens. Matter 24, 424209 (2012).   %
     %                                                                      %
     %%%%%%%%%%%%%%%%%%%%%%%%%%%%%%%%%%%%%%%%%%%%%%%%%%%%%%%%%%%%%%%%%%%%%%%%


     Starting wfcs are  330 randomized atomic wfcs
     Checking if some PAW data can be deallocated... 

     total cpu time spent up to now is      320.5 secs

     Self-consistent Calculation

     iteration #  1     ecut=    60.00 Ry     beta= 0.70
     Davidson diagonalization with overlap
     ethr =  1.00E-02,  avg # of iterations =  2.9

     Threshold (ethr) on eigenvalues was too large:
     Diagonalizing with lowered threshold

     Davidson diagonalization with overlap
     ethr =  4.89E-04,  avg # of iterations =  4.2

     negative rho (up, down):  1.279E-02 0.000E+00

     total cpu time spent up to now is     1670.0 secs

     total energy              =  -27798.97724292 Ry
     estimated scf accuracy    <       1.98324713 Ry

     iteration #  2     ecut=    60.00 Ry     beta= 0.70
     Davidson diagonalization with overlap
     ethr =  5.39E-04,  avg # of iterations =  4.1

     negative rho (up, down):  1.146E-02 0.000E+00

     total cpu time spent up to now is     2258.4 secs

     total energy              =  -27799.13517499 Ry
     estimated scf accuracy    <       0.92311814 Ry

     iteration #  3     ecut=    60.00 Ry     beta= 0.70
     Davidson diagonalization with overlap
     ethr =  2.51E-04,  avg # of iterations =  3.6

     negative rho (up, down):  8.591E-03 0.000E+00

     total cpu time spent up to now is     2844.7 secs

     total energy              =  -27799.18793555 Ry
     estimated scf accuracy    <       0.13179212 Ry

     iteration #  4     ecut=    60.00 Ry     beta= 0.70
     Davidson diagonalization with overlap
     c_bands:  1 eigenvalues not converged
     ethr =  3.58E-05,  avg # of iterations = 11.9

     negative rho (up, down):  6.392E-03 0.000E+00

     total cpu time spent up to now is     3839.9 secs

     total energy              =  -27799.23348069 Ry
     estimated scf accuracy    <       0.06687227 Ry

     iteration #  5     ecut=    60.00 Ry     beta= 0.70
     Davidson diagonalization with overlap
     ethr =  1.82E-05,  avg # of iterations =  4.4

     negative rho (up, down):  5.335E-03 0.000E+00

     total cpu time spent up to now is     4445.4 secs

     total energy              =  -27799.23741773 Ry
     estimated scf accuracy    <       0.03088009 Ry

     iteration #  6     ecut=    60.00 Ry     beta= 0.70
     Davidson diagonalization with overlap
     ethr =  8.39E-06,  avg # of iterations =  2.3

     negative rho (up, down):  4.713E-03 0.000E+00

     total cpu time spent up to now is     5019.1 secs

     total energy              =  -27799.23896569 Ry
     estimated scf accuracy    <       0.00290050 Ry

     iteration #  7     ecut=    60.00 Ry     beta= 0.70
     Davidson diagonalization with overlap
     c_bands:  2 eigenvalues not converged
     c_bands:  3 eigenvalues not converged
     c_bands:  3 eigenvalues not converged
     ethr =  7.88E-07,  avg # of iterations = 12.2

     negative rho (up, down):  4.688E-03 0.000E+00

     total cpu time spent up to now is     6076.6 secs

     total energy              =  -27799.24063223 Ry
     estimated scf accuracy    <       0.00284542 Ry

     iteration #  8     ecut=    60.00 Ry     beta= 0.70
     Davidson diagonalization with overlap
     ethr =  7.73E-07,  avg # of iterations =  3.1

     negative rho (up, down):  5.155E-03 0.000E+00

     total cpu time spent up to now is     6640.3 secs

     total energy              =  -27799.24083793 Ry
     estimated scf accuracy    <       0.00049951 Ry

     iteration #  9     ecut=    60.00 Ry     beta= 0.70
     Davidson diagonalization with overlap
     ethr =  1.36E-07,  avg # of iterations =  5.5

     negative rho (up, down):  5.850E-03 0.000E+00

     total cpu time spent up to now is     7291.6 secs

     total energy              =  -27799.24092419 Ry
     estimated scf accuracy    <       0.00042801 Ry

     iteration # 10     ecut=    60.00 Ry     beta= 0.70
     Davidson diagonalization with overlap
     ethr =  1.16E-07,  avg # of iterations =  4.1

     negative rho (up, down):  6.752E-03 0.000E+00

     total cpu time spent up to now is     7876.2 secs

     total energy              =  -27799.24094615 Ry
     estimated scf accuracy    <       0.00032120 Ry

     iteration # 11     ecut=    60.00 Ry     beta= 0.70
     Davidson diagonalization with overlap
     ethr =  8.73E-08,  avg # of iterations =  1.5

     negative rho (up, down):  8.656E-03 0.000E+00

     total cpu time spent up to now is     8416.6 secs

     total energy              =  -27799.24094134 Ry
     estimated scf accuracy    <       0.00022021 Ry

     iteration # 12     ecut=    60.00 Ry     beta= 0.70
     Davidson diagonalization with overlap
     ethr =  5.98E-08,  avg # of iterations =  1.5

     negative rho (up, down):  1.132E-02 0.000E+00

     total cpu time spent up to now is     8945.9 secs

     total energy              =  -27799.24093196 Ry
     estimated scf accuracy    <       0.00010468 Ry

     iteration # 13     ecut=    60.00 Ry     beta= 0.70
     Davidson diagonalization with overlap
     ethr =  2.84E-08,  avg # of iterations =  2.0

     negative rho (up, down):  1.200E-02 0.000E+00

     total cpu time spent up to now is     9510.9 secs

     total energy              =  -27799.24093296 Ry
     estimated scf accuracy    <       0.00004326 Ry

     iteration # 14     ecut=    60.00 Ry     beta= 0.70
     Davidson diagonalization with overlap
     ethr =  1.18E-08,  avg # of iterations =  2.0

     negative rho (up, down):  1.254E-02 0.000E+00

     total cpu time spent up to now is    10081.4 secs

     total energy              =  -27799.24092989 Ry
     estimated scf accuracy    <       0.00002207 Ry

     iteration # 15     ecut=    60.00 Ry     beta= 0.70
     Davidson diagonalization with overlap
     ethr =  6.00E-09,  avg # of iterations =  2.8

     negative rho (up, down):  1.291E-02 0.000E+00

     total cpu time spent up to now is    10717.5 secs

     total energy              =  -27799.24093193 Ry
     estimated scf accuracy    <       0.00000972 Ry

     iteration # 16     ecut=    60.00 Ry     beta= 0.70
     Davidson diagonalization with overlap
     ethr =  2.64E-09,  avg # of iterations =  2.0

     negative rho (up, down):  1.291E-02 0.000E+00

     total cpu time spent up to now is    11292.3 secs

     total energy              =  -27799.24093302 Ry
     estimated scf accuracy    <       0.00000305 Ry

     iteration # 17     ecut=    60.00 Ry     beta= 0.70
     Davidson diagonalization with overlap
     ethr =  8.29E-10,  avg # of iterations =  4.5

     negative rho (up, down):  1.294E-02 0.000E+00

     total cpu time spent up to now is    12030.6 secs

     total energy              =  -27799.24093389 Ry
     estimated scf accuracy    <       0.00000219 Ry

     iteration # 18     ecut=    60.00 Ry     beta= 0.70
     Davidson diagonalization with overlap
     ethr =  5.95E-10,  avg # of iterations =  1.2

     negative rho (up, down):  1.276E-02 0.000E+00

     total cpu time spent up to now is    12532.4 secs

     End of self-consistent calculation

          k = 0.0000 0.0000 0.0000 ( 88205 PWs)   bands (ev):

   -19.4409  -7.0671  -6.9131  -5.6099  -4.5349  -4.4948  -4.4934  -4.4932
    -4.4928  -4.4833  -4.4827  -4.4822  -3.9498  -3.9330  -3.9329  -3.9312
    -3.9302  -3.9301  -3.5198  -3.4646  -3.4645  -3.4608  -3.4556  -3.4553
    -3.4201  -3.2499  -3.2438  -3.2434  -3.2430  -3.2425  -3.2127  -3.0143
    -3.0138  -3.0086  -3.0071  -3.0060  -3.0033  -3.0006  -2.9967  -2.9955
    -2.9938  -2.9774  -2.9695  -2.3984  -2.3977  -2.3729  -2.3690  -2.3382
    -2.3159  -2.3140  -2.3113  -2.3104  -2.3068  -2.1790  -2.1709  -2.1056
    -2.0725  -1.8213  -1.5698  -1.5656  -1.5648  -1.5631  -1.5630  -1.5472
    -1.4968  -1.4058  -1.4056  -1.3762  -1.3760  -1.3700  -1.3664  -1.3476
    -1.3448  -1.3419  -1.3402  -1.3386  -1.3370  -1.3038  -1.3034  -1.2842
    -1.1531  -1.1511  -1.1476  -1.1462  -1.1445  -1.0981  -0.9997  -0.9905
    -0.9900  -0.9887  -0.9869  -0.9824  -0.8994  -0.8993  -0.8047  -0.8043
    -0.7476  -0.7437  -0.7316  -0.7296  -0.6929  -0.6894  -0.6849  -0.6743
    -0.5328  -0.5276  -0.5248  -0.5243  -0.5211  -0.5164  -0.4163  -0.0377
    -0.0357  -0.0319  -0.0258  -0.0253  -0.0234   0.0249   0.0405   0.0423
     0.0454   0.0473   0.0558   0.1167   0.1237   0.2722   0.2845   0.2883
     0.2886   0.2987   0.3150   0.4245   0.4250   0.4422   0.4424   0.4500
     0.4503   0.6952   0.6961   0.7037   0.7038   0.7085   0.7103   0.7814
     0.7829   0.9595   0.9598   0.9618   0.9693   0.9716   0.9904   1.1303
     1.1306   1.1393   1.1399   1.1404   1.1477   1.1700   1.1746   1.1772
     1.1819   1.1835   1.2472   1.3101   1.3221   1.3255   1.3269   1.3278
     1.3360   1.3364   1.3420   1.4167   1.4174   1.4393   1.4395   1.4402
     1.4437   1.4526   1.4534   1.5333   1.5338   1.5447   1.5491   1.5506
     1.5521   1.6274   1.6473   1.6510   1.6519   1.6610   1.6613   1.7906
     1.8691   1.8692   1.9696   1.9711   1.9814   1.9815   1.9832   1.9893
     2.7615   2.8421   2.8521   2.8623   2.8685   2.8735   3.0651   5.1405
     5.1598   5.1741   5.1880   5.2023   5.3342   5.9382   6.7033   6.7369
     6.7375   6.7865   6.7898   6.7974   6.7989

          k = 0.0000 0.2309 0.0000 ( 88048 PWs)   bands (ev):

   -19.4409  -7.0671  -6.7660  -5.4651  -5.0063  -4.6081  -4.6043  -4.3868
    -4.3474  -4.2999  -4.2570  -4.2542  -4.0563  -4.0275  -3.8761  -3.8691
    -3.8579  -3.8523  -3.5815  -3.4851  -3.4387  -3.4355  -3.4115  -3.3852
    -3.3424  -3.3381  -3.2750  -3.2730  -3.2664  -3.2659  -3.1896  -3.1627
    -3.1580  -3.0481  -3.0416  -3.0392  -2.9853  -2.9834  -2.8236  -2.8172
    -2.7946  -2.7910  -2.7609  -2.5235  -2.5232  -2.4802  -2.4388  -2.4382
    -2.4032  -2.3949  -2.2294  -2.2151  -2.1598  -2.1444  -2.1056  -2.0900
    -2.0704  -1.8987  -1.8314  -1.7650  -1.7352  -1.6845  -1.6757  -1.6303
    -1.5858  -1.5665  -1.5612  -1.5405  -1.5269  -1.5095  -1.4756  -1.4035
    -1.3812  -1.3735  -1.3645  -1.3005  -1.2794  -1.2782  -1.2242  -1.2126
    -1.1895  -1.1352  -1.1074  -1.0910  -1.0902  -1.0772  -0.9985  -0.9948
    -0.9862  -0.9800  -0.9762  -0.9088  -0.9003  -0.8729  -0.8665  -0.8055
    -0.8043  -0.7982  -0.7594  -0.7529  -0.7144  -0.7103  -0.7011  -0.5932
    -0.5322  -0.5294  -0.5242  -0.5221  -0.5024  -0.4891  -0.4879  -0.4618
    -0.4345  -0.4161  -0.4034  -0.4009  -0.1821  -0.1153  -0.0607  -0.0136
    -0.0103   0.0014   0.0071   0.0291   0.0326   0.1897   0.1953   0.2012
     0.3087   0.3460   0.3596   0.3645   0.3718   0.4640   0.4693   0.4809
     0.4819   0.5653   0.5769   0.5785   0.6053   0.6086   0.7944   0.8069
     0.8302   0.8306   0.8354   0.8590   0.8721   0.9453   0.9747   0.9795
     1.0074   1.0180   1.0718   1.0773   1.0820   1.0894   1.1922   1.2000
     1.2236   1.2389   1.3222   1.3658   1.3691   1.3759   1.3810   1.3973
     1.4381   1.4557   1.5070   1.5123   1.5667   1.5752   1.5783   1.6228
     1.6263   1.6293   1.6342   1.6355   1.6520   1.7068   1.7138   1.8626
     1.8652   1.8764   1.8947   1.9060   1.9097   1.9414   1.9825   1.9858
     1.9978   2.0976   2.0997   2.1219   2.2802   2.2843   2.2853   2.2996
     2.3868   2.7269   2.7900   3.4326   3.4441   3.5058   3.6386   4.4638
     4.8898   4.9669   5.6052   5.6052   5.7250   5.7859   5.9539   6.0798
     6.5699   6.5881   6.7373   6.9688   6.9758

          k = 0.0000 0.4619 0.0000 ( 88062 PWs)   bands (ev):

   -19.4409  -7.0672  -6.3429  -5.7076  -5.0590  -4.6423  -4.6381  -4.5040
    -4.2737  -4.1189  -3.9951  -3.9597  -3.9170  -3.9134  -3.7486  -3.7343
    -3.7027  -3.6930  -3.6874  -3.5789  -3.5383  -3.5300  -3.4891  -3.4779
    -3.4482  -3.4125  -3.3741  -3.3415  -3.3368  -3.3126  -3.0698  -3.0688
    -3.0559  -3.0547  -3.0522  -3.0484  -2.8285  -2.8241  -2.7698  -2.7684
    -2.7579  -2.7542  -2.5721  -2.4745  -2.4735  -2.4629  -2.4588  -2.4041
    -2.3981  -2.3454  -2.3369  -2.3267  -2.2578  -2.2542  -2.1280  -2.1184
    -2.0760  -2.0688  -1.9937  -1.9463  -1.9089  -1.8915  -1.8888  -1.8182
    -1.7326  -1.6694  -1.6545  -1.6499  -1.6220  -1.5629  -1.5429  -1.5118
    -1.4240  -1.4123  -1.4026  -1.3999  -1.2848  -1.2800  -1.2769  -1.2752
    -1.2660  -1.1999  -1.1838  -1.1741  -1.1737  -1.1533  -1.1526  -1.1460
    -1.1294  -1.0885  -1.0226  -1.0096  -1.0026  -0.9953  -0.9634  -0.9561
    -0.9072  -0.8483  -0.7888  -0.7555  -0.7501  -0.7159  -0.7039  -0.6799
    -0.6716  -0.6571  -0.5394  -0.5353  -0.5145  -0.4652  -0.4504  -0.4129
    -0.2772  -0.2742  -0.2402  -0.1895  -0.1115  -0.1066  -0.0904  -0.0690
    -0.0670  -0.0669  -0.0561   0.0245   0.0397   0.0551   0.0625   0.0792
     0.0859   0.1012   0.1208   0.1524   0.1920   0.2699   0.3006   0.3030
     0.3727   0.4440   0.4671   0.4684   0.6027   0.6028   0.6708   0.7175
     0.7685   0.7754   0.7992   0.8197   0.8580   0.8623   0.9141   0.9228
     0.9693   0.9738   1.0274   1.0767   1.0878   1.1310   1.1316   1.1461
     1.1486   1.2272   1.3227   1.3484   1.4033   1.4179   1.4275   1.4314
     1.5131   1.5330   1.5370   1.6258   1.6330   1.6345   1.6683   1.7166
     1.7327   1.7341   1.7423   1.8622   1.8688   1.8840   1.8901   1.8965
     1.9031   1.9196   1.9448   2.0920   2.1327   2.1367   2.1400   2.1536
     2.3292   2.3627   2.7371   2.7798   2.8121   3.0509   3.1813   3.1823
     3.5773   3.5830   3.7639   3.9171   4.3923   4.3950   4.4160   4.4976
     4.6513   4.6844   4.7874   4.8711   5.0571   5.0690   5.5672   5.6992
     6.2064   6.2364   6.3349   6.6683   6.7536

          k = 0.2000-0.1155 0.0000 ( 88048 PWs)   bands (ev):

   -19.4409  -7.0673  -6.7660  -5.4649  -5.0061  -4.6087  -4.6039  -4.3865
    -4.3473  -4.2999  -4.2572  -4.2539  -4.0549  -4.0272  -3.8773  -3.8695
    -3.8580  -3.8526  -3.5757  -3.4923  -3.4388  -3.4327  -3.4096  -3.3979
    -3.3427  -3.3361  -3.2752  -3.2728  -3.2670  -3.2555  -3.1878  -3.1626
    -3.1598  -3.0483  -3.0434  -3.0335  -2.9875  -2.9843  -2.8252  -2.8165
    -2.7959  -2.7899  -2.7625  -2.5277  -2.5227  -2.4883  -2.4396  -2.4366
    -2.3980  -2.3917  -2.2267  -2.2140  -2.1553  -2.1445  -2.1134  -2.0841
    -2.0696  -1.9055  -1.8265  -1.7646  -1.7397  -1.6837  -1.6660  -1.6428
    -1.5895  -1.5660  -1.5537  -1.5411  -1.5258  -1.5064  -1.4752  -1.4061
    -1.3885  -1.3725  -1.3682  -1.3006  -1.2790  -1.2762  -1.2237  -1.2110
    -1.1967  -1.1362  -1.1070  -1.0919  -1.0898  -1.0780  -0.9966  -0.9940
    -0.9855  -0.9772  -0.9754  -0.9065  -0.9017  -0.8754  -0.8662  -0.8058
    -0.8042  -0.7967  -0.7577  -0.7534  -0.7147  -0.7087  -0.7011  -0.5936
    -0.5384  -0.5248  -0.5220  -0.5200  -0.5026  -0.4928  -0.4831  -0.4609
    -0.4311  -0.4164  -0.4070  -0.3921  -0.1916  -0.1150  -0.0599  -0.0129
    -0.0108   0.0010   0.0077   0.0293   0.0306   0.1896   0.1919   0.2058
     0.3080   0.3471   0.3586   0.3632   0.3721   0.4645   0.4684   0.4781
     0.4845   0.5652   0.5773   0.5791   0.6044   0.6088   0.7956   0.8029
     0.8292   0.8303   0.8368   0.8607   0.8722   0.9492   0.9733   0.9795
     1.0075   1.0239   1.0711   1.0775   1.0827   1.0887   1.1926   1.1977
     1.2241   1.2384   1.3189   1.3645   1.3713   1.3743   1.3812   1.3972
     1.4378   1.4531   1.5059   1.5126   1.5681   1.5757   1.5785   1.6230
     1.6266   1.6292   1.6340   1.6358   1.6523   1.7070   1.7159   1.8636
     1.8665   1.8762   1.8946   1.9060   1.9089   1.9415   1.9822   1.9845
     1.9978   2.0973   2.0995   2.1220   2.2785   2.2840   2.2870   2.2977
     2.3895   2.7303   2.7838   3.4276   3.4546   3.5018   3.6377   4.4649
     4.8946   4.9594   5.6044   5.6060   5.7240   5.7808   6.0017   6.0553
     6.5729   6.5833   6.6863   6.9685   6.9761

          k = 0.2000 0.1155 0.0000 ( 88048 PWs)   bands (ev):

   -19.4409  -7.0673  -6.7659  -5.4649  -5.0061  -4.6087  -4.6039  -4.3865
    -4.3473  -4.2999  -4.2572  -4.2539  -4.0549  -4.0272  -3.8774  -3.8695
    -3.8580  -3.8526  -3.5757  -3.4920  -3.4388  -3.4325  -3.4096  -3.3986
    -3.3427  -3.3360  -3.2752  -3.2728  -3.2671  -3.2553  -3.1880  -3.1626
    -3.1598  -3.0484  -3.0434  -3.0334  -2.9874  -2.9842  -2.8251  -2.8165
    -2.7959  -2.7899  -2.7624  -2.5277  -2.5226  -2.4880  -2.4396  -2.4366
    -2.3982  -2.3917  -2.2269  -2.2141  -2.1554  -2.1445  -2.1131  -2.0843
    -2.0696  -1.9053  -1.8267  -1.7645  -1.7395  -1.6837  -1.6661  -1.6429
    -1.5896  -1.5660  -1.5536  -1.5409  -1.5258  -1.5067  -1.4752  -1.4061
    -1.3885  -1.3725  -1.3682  -1.3006  -1.2789  -1.2761  -1.2237  -1.2109
    -1.1966  -1.1362  -1.1070  -1.0919  -1.0899  -1.0781  -0.9966  -0.9938
    -0.9855  -0.9773  -0.9754  -0.9065  -0.9018  -0.8753  -0.8661  -0.8059
    -0.8042  -0.7969  -0.7577  -0.7535  -0.7148  -0.7087  -0.7011  -0.5937
    -0.5385  -0.5248  -0.5218  -0.5199  -0.5026  -0.4928  -0.4829  -0.4612
    -0.4310  -0.4165  -0.4070  -0.3917  -0.1914  -0.1151  -0.0599  -0.0129
    -0.0110   0.0010   0.0078   0.0293   0.0308   0.1897   0.1919   0.2059
     0.3080   0.3472   0.3586   0.3632   0.3721   0.4646   0.4684   0.4781
     0.4847   0.5652   0.5772   0.5791   0.6044   0.6089   0.7957   0.8030
     0.8291   0.8304   0.8367   0.8607   0.8721   0.9492   0.9731   0.9795
     1.0075   1.0235   1.0710   1.0776   1.0826   1.0888   1.1926   1.1978
     1.2240   1.2384   1.3189   1.3645   1.3713   1.3744   1.3812   1.3973
     1.4378   1.4534   1.5059   1.5126   1.5681   1.5755   1.5785   1.6230
     1.6266   1.6292   1.6340   1.6358   1.6522   1.7070   1.7157   1.8636
     1.8665   1.8762   1.8947   1.9059   1.9089   1.9415   1.9822   1.9845
     1.9978   2.0973   2.0995   2.1221   2.2784   2.2840   2.2870   2.2978
     2.3894   2.7302   2.7839   3.4275   3.4546   3.5018   3.6378   4.4652
     4.8940   4.9596   5.6044   5.6060   5.7235   5.7810   6.0037   6.0541
     6.5725   6.5834   6.6865   6.9688   6.9762

          k = 0.2000 0.3464 0.0000 ( 88062 PWs)   bands (ev):

   -19.4409  -7.0673  -6.4802  -5.2557  -5.2522  -5.1878  -4.1806  -4.1748
    -4.1584  -4.1481  -4.1073  -4.1032  -4.0993  -4.0911  -3.9888  -3.9842
    -3.6178  -3.5993  -3.5941  -3.5917  -3.5289  -3.5144  -3.4443  -3.3629
    -3.3414  -3.3340  -3.3150  -3.3066  -3.2414  -3.1912  -3.1855  -3.1535
    -3.1508  -3.1054  -3.0654  -3.0595  -3.0186  -3.0147  -2.9388  -2.6717
    -2.5732  -2.5693  -2.5559  -2.5356  -2.5290  -2.5185  -2.5119  -2.4588
    -2.4443  -2.2938  -2.2816  -2.2757  -2.1940  -2.1684  -2.1348  -2.1139
    -2.0995  -2.0244  -2.0125  -1.8965  -1.8409  -1.8302  -1.7891  -1.7378
    -1.7220  -1.7034  -1.6985  -1.6484  -1.6256  -1.6116  -1.4696  -1.4514
    -1.4478  -1.4363  -1.3841  -1.3716  -1.3201  -1.3143  -1.3093  -1.2999
    -1.1767  -1.1523  -1.1453  -1.1298  -1.1289  -1.1255  -1.1118  -1.0792
    -1.0612  -0.9956  -0.9896  -0.9675  -0.9417  -0.8954  -0.8919  -0.8363
    -0.8117  -0.7747  -0.7712  -0.7599  -0.7174  -0.7145  -0.7098  -0.6942
    -0.6853  -0.6708  -0.6614  -0.6400  -0.5987  -0.5912  -0.4948  -0.4555
    -0.4497  -0.3792  -0.3744  -0.3696  -0.3427  -0.1844  -0.1794  -0.0453
    -0.0245   0.0083   0.0119   0.0270   0.0434   0.0511   0.0891   0.0989
     0.1206   0.1416   0.1807   0.2159   0.3279   0.4023   0.4104   0.4500
     0.4585   0.4751   0.5070   0.5278   0.6461   0.6541   0.6622   0.7089
     0.7144   0.7858   0.8401   0.8623   0.8683   0.8774   0.9477   0.9495
     0.9543   0.9666   0.9738   0.9913   0.9966   1.0090   1.0246   1.1407
     1.2055   1.2175   1.3453   1.3476   1.3819   1.5149   1.5166   1.5204
     1.5401   1.6288   1.6460   1.6651   1.6697   1.6811   1.7080   1.7157
     1.7336   1.7373   1.7544   1.7975   1.7997   1.8255   1.8923   1.9139
     1.9220   1.9498   1.9535   1.9974   2.1322   2.1823   2.1841   2.2566
     2.2637   2.2704   2.3165   2.4114   2.4244   2.8564   2.9432   2.9530
     3.4807   3.4860   3.5091   3.5487   4.1760   4.1876   4.2691   4.4050
     4.4511   4.4852   5.1124   5.5937   5.6377   5.6737   5.8360   6.0093
     6.2822   6.3272   6.4191   6.4271   6.4565

          k = 0.2000-0.5774 0.0000 ( 88078 PWs)   bands (ev):

   -19.4409  -7.0673  -5.9473  -5.9425  -5.3368  -4.6963  -4.6903  -4.1784
    -4.1729  -4.0382  -4.0038  -3.8992  -3.8922  -3.7878  -3.7839  -3.6790
    -3.6638  -3.6589  -3.6238  -3.6192  -3.6076  -3.6012  -3.4921  -3.4541
    -3.4514  -3.4260  -3.4072  -3.3833  -3.3081  -3.2232  -3.1969  -3.1381
    -3.0393  -3.0372  -3.0250  -3.0242  -3.0038  -2.8986  -2.8926  -2.7974
    -2.7964  -2.6250  -2.6126  -2.5541  -2.4662  -2.4595  -2.4079  -2.4048
    -2.3019  -2.2495  -2.2102  -2.1975  -2.1780  -2.1349  -2.1275  -2.1021
    -2.0234  -1.9940  -1.9809  -1.9646  -1.9588  -1.9571  -1.9496  -1.8813
    -1.8796  -1.8061  -1.7336  -1.7033  -1.6782  -1.6333  -1.5626  -1.5204
    -1.5186  -1.5051  -1.4681  -1.4303  -1.4257  -1.3475  -1.3271  -1.3169
    -1.3036  -1.2775  -1.2553  -1.2006  -1.1972  -1.1515  -1.0996  -1.0952
    -1.0811  -1.0541  -0.9675  -0.9182  -0.9152  -0.8761  -0.8720  -0.8282
    -0.8238  -0.8190  -0.8137  -0.7830  -0.7777  -0.7355  -0.7287  -0.6967
    -0.6853  -0.6793  -0.6753  -0.6719  -0.6568  -0.6324  -0.5705  -0.5642
    -0.5567  -0.3539  -0.3325  -0.2544  -0.2477  -0.1421  -0.1351  -0.1297
    -0.1010  -0.0510  -0.0385  -0.0368  -0.0215  -0.0026   0.0713   0.0992
     0.1027   0.1708   0.1850   0.2127   0.2532   0.2677   0.3256   0.4474
     0.5078   0.5103   0.5313   0.5370   0.6219   0.6309   0.6338   0.6556
     0.6690   0.6870   0.7119   0.7198   0.8296   0.8325   0.8521   0.8968
     0.9014   0.9205   0.9281   0.9463   0.9672   1.1044   1.1561   1.1940
     1.2616   1.2736   1.3501   1.3535   1.4356   1.4776   1.4853   1.4997
     1.5886   1.6082   1.6626   1.6929   1.7043   1.7127   1.7237   1.7550
     1.7693   1.8075   1.8716   1.8733   1.8972   1.9162   1.9239   1.9270
     1.9708   1.9993   2.1287   2.1360   2.1377   2.1408   2.1518   2.2142
     2.3002   2.3305   2.4658   3.2878   3.2896   3.4845   3.5246   3.5918
     3.6859   3.6898   3.7057   4.1346   4.2980   4.3032   4.7564   4.7737
     4.8035   4.9003   4.9049   5.1187   5.1377   5.2024   5.2894   5.6365
     5.7349   5.7430   6.0974   6.3786   6.3841

          k = 0.2000-0.3464 0.0000 ( 88062 PWs)   bands (ev):

   -19.4409  -7.0673  -6.4802  -5.2556  -5.2522  -5.1878  -4.1806  -4.1749
    -4.1585  -4.1480  -4.1073  -4.1032  -4.0993  -4.0911  -3.9888  -3.9842
    -3.6177  -3.5994  -3.5941  -3.5917  -3.5289  -3.5143  -3.4447  -3.3628
    -3.3414  -3.3339  -3.3150  -3.3063  -3.2414  -3.1911  -3.1856  -3.1536
    -3.1505  -3.1054  -3.0653  -3.0595  -3.0186  -3.0148  -2.9388  -2.6716
    -2.5734  -2.5693  -2.5561  -2.5356  -2.5290  -2.5187  -2.5119  -2.4588
    -2.4441  -2.2933  -2.2816  -2.2756  -2.1940  -2.1685  -2.1347  -2.1139
    -2.0996  -2.0247  -2.0125  -1.8960  -1.8410  -1.8304  -1.7894  -1.7377
    -1.7220  -1.7034  -1.6984  -1.6482  -1.6257  -1.6117  -1.4694  -1.4514
    -1.4479  -1.4363  -1.3841  -1.3719  -1.3200  -1.3142  -1.3093  -1.2999
    -1.1769  -1.1522  -1.1453  -1.1297  -1.1289  -1.1255  -1.1118  -1.0792
    -1.0612  -0.9955  -0.9896  -0.9674  -0.9417  -0.8955  -0.8918  -0.8364
    -0.8116  -0.7746  -0.7713  -0.7599  -0.7174  -0.7145  -0.7096  -0.6942
    -0.6852  -0.6708  -0.6618  -0.6400  -0.5986  -0.5912  -0.4948  -0.4557
    -0.4497  -0.3792  -0.3745  -0.3696  -0.3430  -0.1843  -0.1794  -0.0454
    -0.0245   0.0082   0.0118   0.0270   0.0435   0.0510   0.0891   0.0989
     0.1205   0.1417   0.1805   0.2159   0.3278   0.4025   0.4103   0.4500
     0.4584   0.4751   0.5069   0.5278   0.6462   0.6540   0.6621   0.7091
     0.7144   0.7859   0.8402   0.8624   0.8683   0.8774   0.9478   0.9496
     0.9542   0.9666   0.9739   0.9914   0.9965   1.0090   1.0248   1.1403
     1.2055   1.2177   1.3452   1.3475   1.3818   1.5148   1.5166   1.5204
     1.5399   1.6288   1.6461   1.6650   1.6698   1.6811   1.7080   1.7157
     1.7337   1.7373   1.7545   1.7975   1.7999   1.8255   1.8923   1.9138
     1.9221   1.9499   1.9535   1.9975   2.1322   2.1823   2.1842   2.2566
     2.2638   2.2704   2.3162   2.4114   2.4243   2.8563   2.9432   2.9530
     3.4807   3.4861   3.5090   3.5488   4.1762   4.1870   4.2693   4.4050
     4.4512   4.4852   5.1125   5.5937   5.6380   5.6745   5.8359   6.0087
     6.2820   6.3263   6.4190   6.4277   6.4588

          k = 0.4000-0.2309 0.0000 ( 88062 PWs)   bands (ev):

   -19.4409  -7.0676  -6.3427  -5.7075  -5.0585  -4.6429  -4.6377  -4.5030
    -4.2739  -4.1183  -3.9939  -3.9592  -3.9165  -3.9131  -3.7512  -3.7350
    -3.7007  -3.6931  -3.6884  -3.5747  -3.5380  -3.5299  -3.4955  -3.4789
    -3.4399  -3.4182  -3.3819  -3.3415  -3.3354  -3.3080  -3.0698  -3.0679
    -3.0559  -3.0541  -3.0518  -3.0464  -2.8294  -2.8219  -2.7724  -2.7694
    -2.7598  -2.7526  -2.5809  -2.4788  -2.4735  -2.4631  -2.4575  -2.3996
    -2.3944  -2.3497  -2.3358  -2.3258  -2.2546  -2.2509  -2.1264  -2.1189
    -2.0783  -2.0680  -1.9926  -1.9522  -1.9135  -1.8924  -1.8889  -1.7935
    -1.7283  -1.6649  -1.6639  -1.6488  -1.6305  -1.5620  -1.5433  -1.5356
    -1.4237  -1.4188  -1.4073  -1.3963  -1.2870  -1.2781  -1.2769  -1.2747
    -1.2632  -1.2015  -1.1824  -1.1782  -1.1734  -1.1530  -1.1502  -1.1427
    -1.1273  -1.0882  -1.0223  -1.0085  -0.9978  -0.9954  -0.9618  -0.9558
    -0.9088  -0.8479  -0.7881  -0.7534  -0.7479  -0.7125  -0.7039  -0.6819
    -0.6695  -0.6533  -0.5401  -0.5348  -0.5101  -0.4622  -0.4531  -0.4129
    -0.2774  -0.2737  -0.2434  -0.1893  -0.1134  -0.1032  -0.0900  -0.0692
    -0.0670  -0.0648  -0.0556   0.0247   0.0337   0.0545   0.0650   0.0750
     0.0914   0.1049   0.1186   0.1501   0.1856   0.2701   0.2972   0.3063
     0.3728   0.4374   0.4685   0.4691   0.6023   0.6034   0.6689   0.7206
     0.7697   0.7756   0.7999   0.8202   0.8576   0.8628   0.9174   0.9263
     0.9695   0.9735   1.0277   1.0768   1.0854   1.1296   1.1314   1.1459
     1.1476   1.2296   1.3254   1.3441   1.4036   1.4176   1.4278   1.4315
     1.5133   1.5314   1.5373   1.6269   1.6326   1.6360   1.6695   1.7119
     1.7332   1.7349   1.7425   1.8620   1.8691   1.8840   1.8905   1.8966
     1.9032   1.9194   1.9468   2.0919   2.1325   2.1359   2.1402   2.1526
     2.3293   2.3629   2.7390   2.7736   2.8152   3.0503   3.1807   3.1827
     3.5790   3.5815   3.7648   3.9167   4.3917   4.3953   4.4133   4.4956
     4.6606   4.6813   4.7917   4.8622   5.0597   5.0675   5.5780   5.6972
     6.2138   6.2377   6.3135   6.6890   6.7495

          k = 0.4000-0.0000 0.0000 ( 88062 PWs)   bands (ev):

   -19.4409  -7.0676  -6.4801  -5.2561  -5.2517  -5.1875  -4.1804  -4.1750
    -4.1572  -4.1492  -4.1076  -4.1024  -4.0987  -4.0908  -3.9878  -3.9846
    -3.6187  -3.5988  -3.5938  -3.5914  -3.5363  -3.5095  -3.4446  -3.3635
    -3.3430  -3.3321  -3.3147  -3.3095  -3.2429  -3.1902  -3.1850  -3.1536
    -3.1503  -3.1053  -3.0653  -3.0570  -3.0177  -3.0103  -2.9392  -2.6700
    -2.5804  -2.5692  -2.5572  -2.5381  -2.5291  -2.5195  -2.5173  -2.4585
    -2.4435  -2.2841  -2.2821  -2.2709  -2.1962  -2.1668  -2.1340  -2.1135
    -2.0994  -2.0315  -2.0126  -1.8836  -1.8385  -1.8336  -1.7836  -1.7394
    -1.7340  -1.7043  -1.6978  -1.6455  -1.6283  -1.6203  -1.4705  -1.4515
    -1.4496  -1.4376  -1.3842  -1.3765  -1.3207  -1.3161  -1.3048  -1.2950
    -1.1803  -1.1532  -1.1441  -1.1308  -1.1286  -1.1258  -1.1111  -1.0789
    -1.0613  -0.9949  -0.9873  -0.9659  -0.9418  -0.8939  -0.8918  -0.8365
    -0.8067  -0.7750  -0.7671  -0.7597  -0.7193  -0.7137  -0.7123  -0.6922
    -0.6862  -0.6712  -0.6561  -0.6379  -0.6015  -0.5913  -0.4948  -0.4502
    -0.4469  -0.3820  -0.3742  -0.3715  -0.3469  -0.1849  -0.1795  -0.0457
    -0.0247   0.0097   0.0143   0.0256   0.0428   0.0489   0.0893   0.0973
     0.1216   0.1411   0.1801   0.2157   0.3275   0.4057   0.4090   0.4491
     0.4582   0.4730   0.5075   0.5278   0.6495   0.6524   0.6608   0.7100
     0.7145   0.7850   0.8431   0.8609   0.8694   0.8774   0.9460   0.9496
     0.9523   0.9657   0.9766   0.9911   0.9973   1.0087   1.0280   1.1360
     1.2079   1.2175   1.3451   1.3458   1.3811   1.5132   1.5169   1.5202
     1.5391   1.6289   1.6485   1.6654   1.6698   1.6806   1.7079   1.7156
     1.7347   1.7378   1.7547   1.7991   1.8011   1.8247   1.8921   1.9140
     1.9226   1.9496   1.9535   1.9978   2.1314   2.1821   2.1830   2.2560
     2.2648   2.2695   2.3141   2.4131   2.4238   2.8571   2.9433   2.9528
     3.4789   3.4876   3.5108   3.5465   4.1741   4.1925   4.2627   4.4048
     4.4509   4.4881   5.1130   5.5939   5.6330   5.6746   5.8353   6.0153
     6.3042   6.3646   6.3907   6.4241   6.4508

          k = 0.4000 0.2309 0.0000 ( 88062 PWs)   bands (ev):

   -19.4409  -7.0676  -6.3427  -5.7074  -5.0585  -4.6430  -4.6377  -4.5030
    -4.2738  -4.1183  -3.9938  -3.9592  -3.9165  -3.9131  -3.7514  -3.7350
    -3.7007  -3.6931  -3.6883  -3.5745  -3.5380  -3.5300  -3.4955  -3.4789
    -3.4391  -3.4184  -3.3823  -3.3415  -3.3354  -3.3086  -3.0698  -3.0679
    -3.0559  -3.0541  -3.0518  -3.0463  -2.8294  -2.8217  -2.7723  -2.7694
    -2.7598  -2.7525  -2.5806  -2.4787  -2.4735  -2.4631  -2.4575  -2.3999
    -2.3944  -2.3496  -2.3359  -2.3257  -2.2548  -2.2510  -2.1265  -2.1189
    -2.0783  -2.0681  -1.9925  -1.9520  -1.9134  -1.8924  -1.8888  -1.7940
    -1.7284  -1.6648  -1.6641  -1.6487  -1.6305  -1.5620  -1.5434  -1.5355
    -1.4236  -1.4187  -1.4073  -1.3960  -1.2870  -1.2781  -1.2768  -1.2748
    -1.2633  -1.2015  -1.1824  -1.1781  -1.1733  -1.1529  -1.1502  -1.1425
    -1.1273  -1.0881  -1.0223  -1.0086  -0.9982  -0.9954  -0.9619  -0.9560
    -0.9088  -0.8479  -0.7881  -0.7533  -0.7477  -0.7125  -0.7040  -0.6819
    -0.6694  -0.6532  -0.5400  -0.5348  -0.5103  -0.4621  -0.4530  -0.4129
    -0.2775  -0.2736  -0.2435  -0.1893  -0.1134  -0.1032  -0.0899  -0.0693
    -0.0671  -0.0648  -0.0558   0.0247   0.0338   0.0546   0.0651   0.0751
     0.0915   0.1050   0.1188   0.1500   0.1858   0.2701   0.2973   0.3065
     0.3728   0.4377   0.4684   0.4690   0.6023   0.6033   0.6687   0.7205
     0.7698   0.7754   0.7999   0.8203   0.8575   0.8628   0.9174   0.9260
     0.9695   0.9735   1.0277   1.0768   1.0855   1.1296   1.1314   1.1460
     1.1477   1.2294   1.3254   1.3444   1.4037   1.4175   1.4277   1.4316
     1.5133   1.5315   1.5373   1.6269   1.6325   1.6360   1.6693   1.7121
     1.7331   1.7349   1.7425   1.8620   1.8690   1.8840   1.8905   1.8966
     1.9032   1.9193   1.9467   2.0919   2.1325   2.1359   2.1401   2.1526
     2.3293   2.3629   2.7389   2.7739   2.8149   3.0504   3.1807   3.1827
     3.5790   3.5815   3.7650   3.9166   4.3917   4.3953   4.4132   4.4957
     4.6605   4.6814   4.7911   4.8623   5.0596   5.0674   5.5786   5.6972
     6.2137   6.2381   6.3121   6.6879   6.7498

          k = 0.4000-0.6928 0.0000 ( 88078 PWs)   bands (ev):

   -19.4409  -7.0676  -5.9466  -5.9429  -5.3370  -4.6962  -4.6891  -4.1796
    -4.1732  -4.0375  -4.0037  -3.8987  -3.8920  -3.7897  -3.7837  -3.6696
    -3.6648  -3.6588  -3.6236  -3.6187  -3.6085  -3.5982  -3.5032  -3.4556
    -3.4517  -3.4279  -3.4074  -3.3793  -3.3132  -3.2207  -3.1964  -3.1353
    -3.0389  -3.0370  -3.0246  -3.0224  -3.0024  -2.8996  -2.8951  -2.7994
    -2.7966  -2.6245  -2.6126  -2.5624  -2.4624  -2.4549  -2.4099  -2.4023
    -2.3019  -2.2488  -2.2068  -2.1968  -2.1793  -2.1411  -2.1266  -2.1021
    -2.0201  -1.9946  -1.9829  -1.9638  -1.9574  -1.9560  -1.9506  -1.8845
    -1.8793  -1.7636  -1.7506  -1.7182  -1.6772  -1.6619  -1.5629  -1.5211
    -1.5184  -1.5017  -1.4652  -1.4309  -1.4291  -1.3457  -1.3276  -1.3172
    -1.3032  -1.2724  -1.2500  -1.1988  -1.1973  -1.1521  -1.0989  -1.0946
    -1.0818  -1.0542  -0.9659  -0.9178  -0.9155  -0.8776  -0.8731  -0.8287
    -0.8260  -0.8190  -0.8123  -0.7832  -0.7789  -0.7356  -0.7304  -0.6969
    -0.6827  -0.6784  -0.6760  -0.6684  -0.6564  -0.6319  -0.5670  -0.5634
    -0.5516  -0.3542  -0.3346  -0.2547  -0.2472  -0.1421  -0.1368  -0.1288
    -0.1006  -0.0489  -0.0410  -0.0353  -0.0240  -0.0035   0.0731   0.1004
     0.1032   0.1684   0.1790   0.2120   0.2523   0.2699   0.3228   0.4477
     0.5088   0.5121   0.5326   0.5362   0.6224   0.6321   0.6352   0.6561
     0.6663   0.6902   0.7122   0.7186   0.8269   0.8330   0.8524   0.8975
     0.9013   0.9209   0.9284   0.9451   0.9681   1.1061   1.1573   1.1933
     1.2619   1.2737   1.3488   1.3529   1.4338   1.4769   1.4849   1.4996
     1.5886   1.6088   1.6626   1.6936   1.7049   1.7137   1.7240   1.7532
     1.7707   1.8065   1.8715   1.8734   1.8980   1.9184   1.9232   1.9256
     1.9721   2.0002   2.1285   2.1353   2.1379   2.1406   2.1512   2.2144
     2.2983   2.3303   2.4661   3.2880   3.2893   3.4876   3.5229   3.5907
     3.6852   3.6928   3.7036   4.1325   4.2983   4.3029   4.7560   4.7736
     4.8047   4.9016   4.9031   5.1170   5.1789   5.2007   5.2494   5.6354
     5.7332   5.7463   6.0833   6.3795   6.3855

          k = 0.4000-0.4619 0.0000 ( 88078 PWs)   bands (ev):

   -19.4409  -7.0676  -5.9467  -5.9428  -5.3370  -4.6962  -4.6892  -4.1796
    -4.1732  -4.0375  -4.0037  -3.8986  -3.8920  -3.7897  -3.7837  -3.6697
    -3.6649  -3.6588  -3.6236  -3.6187  -3.6087  -3.5982  -3.5029  -3.4557
    -3.4516  -3.4279  -3.4074  -3.3793  -3.3132  -3.2203  -3.1964  -3.1354
    -3.0389  -3.0370  -3.0245  -3.0225  -3.0024  -2.8996  -2.8952  -2.7994
    -2.7966  -2.6245  -2.6126  -2.5626  -2.4621  -2.4549  -2.4099  -2.4023
    -2.3020  -2.2487  -2.2066  -2.1968  -2.1793  -2.1412  -2.1266  -2.1021
    -2.0203  -1.9945  -1.9828  -1.9638  -1.9574  -1.9559  -1.9506  -1.8847
    -1.8792  -1.7627  -1.7510  -1.7182  -1.6772  -1.6626  -1.5629  -1.5210
    -1.5183  -1.5013  -1.4651  -1.4310  -1.4292  -1.3457  -1.3276  -1.3172
    -1.3032  -1.2725  -1.2503  -1.1987  -1.1972  -1.1521  -1.0987  -1.0946
    -1.0819  -1.0543  -0.9660  -0.9178  -0.9155  -0.8775  -0.8730  -0.8288
    -0.8261  -0.8190  -0.8121  -0.7833  -0.7789  -0.7357  -0.7305  -0.6968
    -0.6828  -0.6784  -0.6760  -0.6683  -0.6566  -0.6319  -0.5671  -0.5634
    -0.5514  -0.3542  -0.3348  -0.2548  -0.2471  -0.1421  -0.1368  -0.1289
    -0.1005  -0.0490  -0.0411  -0.0353  -0.0240  -0.0034   0.0732   0.1005
     0.1031   0.1684   0.1791   0.2120   0.2524   0.2699   0.3224   0.4477
     0.5088   0.5121   0.5325   0.5362   0.6223   0.6322   0.6353   0.6561
     0.6664   0.6904   0.7122   0.7182   0.8268   0.8330   0.8524   0.8974
     0.9014   0.9210   0.9285   0.9450   0.9681   1.1062   1.1575   1.1932
     1.2619   1.2737   1.3488   1.3528   1.4338   1.4768   1.4849   1.4995
     1.5886   1.6089   1.6626   1.6937   1.7049   1.7136   1.7241   1.7532
     1.7708   1.8065   1.8715   1.8734   1.8980   1.9185   1.9232   1.9256
     1.9722   2.0003   2.1285   2.1353   2.1379   2.1407   2.1512   2.2145
     2.2982   2.3303   2.4660   3.2880   3.2893   3.4871   3.5231   3.5906
     3.6852   3.6928   3.7038   4.1327   4.2983   4.3028   4.7562   4.7737
     4.8046   4.9016   4.9030   5.1170   5.1772   5.2007   5.2508   5.6358
     5.7332   5.7463   6.0840   6.3796   6.3854

     the Fermi energy is     1.9066 ev

!    total energy              =  -27799.24093378 Ry

     total all-electron energy =  -1326794.853241 Ry
     estimated scf accuracy    <       0.00000078 Ry
     smearing contrib. (-TS)   =       0.00167201 Ry
     internal energy E=F+TS    =  -27799.24260579 Ry

     The total energy is F=E-TS. E is the sum of the following terms:
     one-electron contribution =  -26273.12294298 Ry
     hartree contribution      =   13438.93190898 Ry
     xc contribution           =    -899.23270038 Ry
     ewald contribution        =   11418.27453493 Ry
     one-center paw contrib.   =  -25484.09340634 Ry

     convergence has been achieved in  18 iterations

     negative rho (up, down):  1.276E-02 0.000E+00

     Forces acting on atoms (cartesian axes, Ry/au):

     atom    1 type  1   force =    -0.00013297   -0.00024537   -0.00322863
     atom    2 type  1   force =    -0.00000778    0.00002109   -0.00387280
     atom    3 type  1   force =     0.00014903   -0.00026148   -0.00323878
     atom    4 type  1   force =     0.00021582    0.00026025   -0.00334871
     atom    5 type  1   force =    -0.00022263    0.00026243   -0.00334625
     atom    6 type  1   force =     0.00001716    0.00002972   -0.00337806
     atom    7 type  1   force =    -0.00000356   -0.00006270   -0.00568614
     atom    8 type  1   force =    -0.00023358    0.00000660   -0.00328480
     atom    9 type  1   force =     0.00024491   -0.00000357   -0.00327926
     atom   10 type  1   force =     0.00064324   -0.00034354    0.00407008
     atom   11 type  1   force =    -0.00065205   -0.00037601    0.00408726
     atom   12 type  1   force =     0.00001209    0.00044373    0.00255200
     atom   13 type  1   force =    -0.00001789   -0.00055376    0.00381722
     atom   14 type  1   force =     0.00055302   -0.00020505    0.00278064
     atom   15 type  1   force =    -0.00052871   -0.00021181    0.00277021
     atom   16 type  1   force =     0.00068438    0.00054303    0.00320493
     atom   17 type  1   force =     0.00001240    0.00065122    0.00385739
     atom   18 type  1   force =    -0.00073426    0.00055413    0.00323385
     atom   19 type  1   force =    -0.00017567    0.00003522    0.00016827
     atom   20 type  1   force =    -0.00000339   -0.00021477   -0.00050077
     atom   21 type  1   force =     0.00016196    0.00004072    0.00019293
     atom   22 type  1   force =    -0.00019718   -0.00011544    0.00031720
     atom   23 type  1   force =     0.00020398   -0.00011258    0.00031919
     atom   24 type  1   force =    -0.00001993   -0.00009911    0.00013276
     atom   25 type  1   force =     0.00000962    0.00027494    0.00040057
     atom   26 type  1   force =     0.00011227    0.00002736   -0.00032847
     atom   27 type  1   force =    -0.00011233    0.00003422   -0.00034125
     atom   28 type  1   force =     0.00015874   -0.00001078    0.00028525
     atom   29 type  1   force =     0.00005340    0.00008822    0.00073323
     atom   30 type  1   force =    -0.00015420   -0.00001976    0.00027237
     atom   31 type  1   force =    -0.00001362   -0.00027521    0.00026493
     atom   32 type  1   force =    -0.00002175   -0.00025441    0.00023699
     atom   33 type  1   force =     0.00001143   -0.00000858   -0.00000144
     atom   34 type  1   force =    -0.00000909   -0.00000712   -0.00015571
     atom   35 type  1   force =     0.00018454   -0.00001045    0.00034492
     atom   36 type  1   force =    -0.00019418   -0.00001877    0.00034299
     atom   37 type  2   force =     0.00225222    0.00249089   -0.00014326
     atom   38 type  3   force =     0.00007692   -0.00032003    0.00018484
     atom   39 type  3   force =    -0.00232238   -0.00203349   -0.00043570

     Total force =     0.004874     Total SCF correction =     0.003126
     SCF correction compared to forces is large: reduce conv_thr to get better values

     negative rho (up, down):  1.276E-02 0.000E+00

     negative rho (up, down):  1.276E-02 0.000E+00

     negative rho (up, down):  1.276E-02 0.000E+00

     negative rho (up, down):  1.276E-02 0.000E+00

     negative rho (up, down):  1.276E-02 0.000E+00

     negative rho (up, down):  1.276E-02 0.000E+00

     negative rho (up, down):  1.276E-02 0.000E+00

     negative rho (up, down):  1.276E-02 0.000E+00

     negative rho (up, down):  1.276E-02 0.000E+00

     negative rho (up, down):  1.276E-02 0.000E+00

     negative rho (up, down):  1.276E-02 0.000E+00

     negative rho (up, down):  1.276E-02 0.000E+00

     negative rho (up, down):  1.276E-02 0.000E+00

     negative rho (up, down):  1.276E-02 0.000E+00

     negative rho (up, down):  1.276E-02 0.000E+00

     negative rho (up, down):  1.276E-02 0.000E+00

     negative rho (up, down):  1.276E-02 0.000E+00

     negative rho (up, down):  1.276E-02 0.000E+00

     negative rho (up, down):  1.276E-02 0.000E+00

     negative rho (up, down):  1.276E-02 0.000E+00

     negative rho (up, down):  1.276E-02 0.000E+00

     negative rho (up, down):  1.276E-02 0.000E+00

     negative rho (up, down):  1.276E-02 0.000E+00

     negative rho (up, down):  1.276E-02 0.000E+00

     negative rho (up, down):  1.276E-02 0.000E+00

     negative rho (up, down):  1.276E-02 0.000E+00

     negative rho (up, down):  1.276E-02 0.000E+00

     negative rho (up, down):  1.276E-02 0.000E+00

     negative rho (up, down):  1.276E-02 0.000E+00

     negative rho (up, down):  1.276E-02 0.000E+00

     negative rho (up, down):  1.276E-02 0.000E+00

     negative rho (up, down):  1.276E-02 0.000E+00

     negative rho (up, down):  1.276E-02 0.000E+00

     negative rho (up, down):  1.276E-02 0.000E+00
 BEEFens 2000 ensemble energies
             -0.601112691429691E+02
             -0.358239551107908E+01
             -0.157194575887204E+02
              0.425731858845805E+02
             -0.219583403293074E+02
             -0.204113461373693E+02
             -0.348165619079165E+02
             -0.856551385236853E+02
             -0.462593446587202E+02
             -0.470136716702026E+02
             -0.366112444321146E+02
              0.221540184402795E+01
              0.401356199989780E+01
              0.770763017617554E+01
              0.261577669406483E+01
              0.470957346709987E+02
             -0.207349635972779E+02
             -0.229729907079953E+02
              0.190647368253869E+02
             -0.111474111118287E+03
              0.531538508362872E+02
             -0.288469274475250E+02
             -0.328829336622094E+01
             -0.113604769936516E+02
             -0.887985087613106E+01
             -0.459809869736125E+01
              0.875576246317685E+02
             -0.184834458985456E+02
             -0.893743507204886E+01
             -0.513400887327314E+02
              0.810266973963069E+02
             -0.187301668618419E+02
             -0.371354635068283E+02
              0.247915000698730E+02
             -0.282710128355234E+01
              0.161164157144215E+02
             -0.490326579127503E+01
              0.108515802145915E+02
              0.284712099564486E+02
             -0.102460089748722E+03
              0.553953205961686E+02
              0.141325195715069E+02
             -0.158954075303285E+01
             -0.359038053943651E+02
              0.122184590537753E+02
             -0.145244053554246E+02
              0.393857139957133E+02
              0.362030341300485E+02
             -0.306947036037958E+02
             -0.272149296694379E+02
             -0.325664959396179E+02
             -0.348978231014429E+02
              0.134191375822539E+02
             -0.486395620866974E+02
              0.114131555702347E+02
              0.617956987918784E+02
              0.628646500799889E+02
              0.353494602497582E+02
              0.152806173120335E+02
              0.267609257785307E+02
              0.884001768551723E+02
              0.211496847453416E+02
             -0.544081257913622E+02
             -0.156570633554840E+02
             -0.233368193567465E+02
              0.624493211369444E+02
             -0.767781730160203E+02
             -0.667066395201216E+02
             -0.256476534355461E+02
             -0.628349299697061E+01
             -0.467675263098104E+02
              0.268446414297057E+02
              0.790071860611647E+01
              0.852143766818153E+01
             -0.394222646438344E+02
             -0.343784171842630E+02
             -0.536750443368065E+02
              0.387968627450032E+02
             -0.293003157143814E+02
              0.262556876382221E+02
             -0.708770772309359E+01
             -0.315819824059060E+02
             -0.572285872756604E+02
             -0.175326145896770E+02
             -0.888345467895022E+01
             -0.123504153069104E+02
              0.409212955721244E+02
              0.675999571913105E+02
             -0.381538610006347E+02
             -0.787964387016981E+02
             -0.218194041987580E+02
              0.110618266948888E+03
             -0.587974301042793E+02
              0.353642685994713E+02
             -0.944764962884415E+01
             -0.658490237832173E+02
              0.252117776324015E+02
              0.395849346020591E+02
             -0.197538266161998E+02
              0.398148900616004E+02
             -0.294076641667716E+02
             -0.472550245172380E+02
              0.856950033975070E+02
              0.449967480677664E+02
              0.335205124322192E+02
              0.145207532209846E+02
              0.203390510587069E+02
              0.849733846352888E+02
             -0.254660065540188E+02
              0.786993926546698E+01
             -0.141258031498312E+03
              0.179874754485879E+02
             -0.710788415921978E+02
              0.150038628788903E+02
              0.202764747094145E+02
             -0.329579399631870E+02
             -0.553223200726668E+02
              0.652360878069737E+01
             -0.301569695387736E+02
              0.303767757292051E+02
             -0.526193291812273E+02
              0.180936238453751E+01
             -0.353651777018492E+02
             -0.419113620698647E+01
             -0.111959780835431E+01
              0.178887302948759E+02
              0.143389240745478E+01
             -0.647480935739952E+01
              0.584582823316329E+02
              0.900570771996383E+02
              0.479912383262462E+02
              0.825494006730329E+02
             -0.114127088447496E+02
              0.142297732770706E+02
              0.536969410464721E+02
             -0.111879588295327E+02
             -0.729589585400448E+02
             -0.380291067472330E+02
             -0.517817863567470E+02
             -0.274338589427949E+02
              0.325198983975990E+02
             -0.115738077470280E+03
             -0.186425007326365E+02
              0.409817709743432E+02
             -0.382835129848213E+02
             -0.363340754445743E+02
              0.538957260238071E+02
              0.396550983335195E+02
             -0.351949730651329E+02
              0.134380857126764E+02
             -0.271275428263955E+02
              0.339985146842484E+02
              0.438804904854368E+01
              0.210481890553467E+02
             -0.878255691356393E+02
             -0.476277255662880E+02
             -0.990310063069728E+01
              0.322890638476559E+01
             -0.363014188010817E+02
              0.105077609226847E+03
             -0.230358132920677E+02
             -0.396848688048803E+02
              0.385578889946087E+02
             -0.490553006454002E+02
             -0.359873734124978E+02
              0.321906834899959E+02
              0.123315000935301E+02
              0.163743434246564E+02
              0.114914932809736E+02
             -0.131955799033211E+02
              0.224776564595860E+02
              0.585324936777126E+02
             -0.309583426211372E+02
              0.160327678782301E+02
              0.927273878648153E+02
              0.338149003378234E+02
             -0.726681006423587E+01
             -0.186647947212119E+02
              0.152028068630142E+03
             -0.161668464896168E+02
              0.359903577866621E+02
              0.191539789211405E+02
              0.359618744809485E+02
              0.884159637058698E+02
              0.539089340668171E+02
             -0.233195944483581E+01
              0.225412498670075E+02
              0.480291802953834E+02
              0.360163876829593E+02
             -0.520305006090509E+02
              0.928119135192445E+02
             -0.818736337314667E+02
             -0.197491395921854E+02
              0.578169892114089E+02
              0.656714937173567E+01
              0.782121013233370E+01
              0.338814109445816E+02
              0.298200435058088E+02
              0.351023843237546E+02
             -0.632292539781647E+02
              0.284562485523327E+01
             -0.295766549909825E+02
             -0.865344549661737E+01
             -0.141393979423424E+01
             -0.710296952188968E+01
             -0.409276903395624E+01
              0.852569594635661E+02
             -0.100724269089367E+02
             -0.273998624622018E+02
             -0.496557968877875E+01
              0.138565608008907E+02
             -0.558290435199046E+02
             -0.402129534940337E+02
             -0.379201052091357E+02
             -0.624903346378097E+02
             -0.167835510270627E+02
             -0.444100131418070E+02
              0.161840130043541E+02
             -0.243423897544581E+01
             -0.103274171383995E+02
             -0.927759342287072E+01
              0.804886700114344E+01
             -0.242136684220480E+02
              0.683985792453412E+02
             -0.799680349802150E+02
             -0.139937276504136E+02
             -0.173046816523375E+02
              0.180855686543983E+02
              0.212336907660832E+02
             -0.459183754209794E+02
             -0.200973865405757E+02
              0.437173484739801E+02
             -0.274840139652567E+02
              0.185893470097554E+02
              0.380326111007091E+02
             -0.321602847506369E+01
              0.113155598158017E+03
             -0.229391022930164E+02
             -0.338174608660971E+02
              0.579514537863827E+01
             -0.225798893513260E+02
              0.522616293336106E+02
             -0.332861433900784E+02
              0.105188418110162E+02
              0.636648643754551E+02
             -0.125393972032810E+02
              0.119256562363730E+03
              0.124799032074954E+03
             -0.643971226833053E+02
              0.585775576514943E+02
              0.164160729002013E+02
             -0.512928589011609E+02
              0.214802268395843E+02
              0.350082746407912E+02
              0.358419182499018E+02
              0.130090087027759E+01
              0.158113509348517E+02
              0.689478380467355E+02
             -0.244994449758869E+02
              0.180857035166498E+02
              0.733620706895375E+02
             -0.369518360467802E+02
             -0.127329594692022E+02
              0.503413901664469E+02
              0.294713637944192E+02
              0.773667304845196E+02
              0.219674053967476E+02
              0.611839030411005E+01
              0.278248977119402E+02
              0.379701491364270E+02
             -0.467209596732326E+02
              0.322913209842352E+01
              0.127151152288134E+02
              0.112603122239892E+02
              0.218444269094655E+02
             -0.569687208514485E+02
              0.363421182525307E+02
             -0.440236725832505E+02
             -0.344877044118492E+02
              0.176328269511030E+02
             -0.181034165871582E+02
              0.549703851050154E+02
             -0.255378223985310E+02
              0.264214546198643E+02
              0.365628969649475E+02
              0.822838354557651E+02
              0.570529882787889E+02
              0.457554391999342E+02
             -0.105766400643963E+02
             -0.378776715418365E+01
             -0.329885232075953E+02
              0.743584425488400E+02
              0.790052051168900E+02
              0.358394104609329E+02
             -0.189393078302950E+02
              0.507640512823079E+02
             -0.163245211718435E+02
              0.213712886097967E+02
              0.608417642668763E+02
              0.215519148187695E+01
             -0.103583986641902E+02
             -0.281532488223451E+02
             -0.506292181745360E+02
              0.937332155408048E+02
              0.435233089506420E+02
             -0.553342441537674E+02
             -0.941988530405780E+01
              0.247826105569521E+02
             -0.990006668934510E+01
              0.586352768313672E+02
              0.150748551484895E+02
              0.792128066426797E+02
              0.276837136318619E+02
             -0.262020644116768E+02
              0.247497111628959E+02
             -0.494573892450865E+01
             -0.321592509614374E+02
              0.131786483140158E+02
              0.204498322013050E+02
              0.925310447716672E+02
              0.791033739315037E+02
              0.546157063634129E+02
              0.725274155518532E+02
              0.797251485794459E+01
             -0.271764480832778E+02
              0.162001514098172E+02
             -0.365232808353921E+02
             -0.471379738925380E+02
             -0.558896093569278E+02
             -0.263687637772671E+02
             -0.108805899593966E+03
             -0.288069636042459E+02
             -0.829958683383548E+02
              0.208246437279864E+02
             -0.473393310292469E+02
              0.392210393170736E+02
             -0.932914437128475E+02
             -0.327699583472817E+02
              0.545653249969882E+02
              0.205738921013591E+02
             -0.822777946542812E+02
              0.626723032069586E+02
             -0.254340746182471E+02
              0.507700796045109E+02
             -0.240280480326506E+02
             -0.744642898518257E+02
              0.110270637336046E+02
             -0.605549845450209E+02
             -0.168353579660533E+02
             -0.147089897317727E+01
              0.414803303046006E+02
              0.125946856577097E+03
             -0.458235447873295E+02
             -0.359217995838295E+02
             -0.918337707356443E+00
             -0.129985926556998E+02
             -0.815733346354021E+02
             -0.592195448590068E+02
              0.513140178739409E+02
             -0.287737273530511E+02
              0.167011577289946E+02
             -0.485146619118235E+02
             -0.130414271403011E+02
             -0.433718599060286E+02
              0.561576392898695E+02
              0.150037038713774E+02
             -0.229584142614923E+02
             -0.125184808104808E+02
              0.655287136921982E+01
             -0.613473111548802E+01
              0.438131357212303E+02
             -0.249799527639934E+02
              0.266743127992925E+01
              0.336622457404137E+02
              0.170333800564870E+02
             -0.157708209112822E+02
              0.154969548715820E+03
              0.532927676380396E+02
              0.105351632712043E+01
              0.160987814660554E+02
             -0.609898391358400E+02
              0.312051581964815E+02
             -0.714905154197484E+02
             -0.248913792955862E+02
             -0.517645054285566E+02
             -0.218561139164935E+02
              0.564202563211383E+02
             -0.532221353334330E+02
              0.158292543270618E+02
             -0.405621760659358E+01
              0.386135725453227E+01
             -0.431408061692414E+02
             -0.474916522645967E+02
             -0.395090315152140E+01
             -0.422577195643109E+02
             -0.215205215903588E+02
             -0.435017353112221E+02
             -0.118935278528330E+02
             -0.356389420308863E+02
             -0.512512439590282E+02
              0.211186200910255E+02
             -0.208405270527716E+02
              0.185701603012244E+02
              0.970282755469402E+01
             -0.731607226159426E+02
             -0.544023216767046E+02
             -0.393725600617274E+02
              0.351760150709588E+02
              0.278656383923442E+01
             -0.621577754301256E+02
              0.581079035026981E+02
             -0.397625101634935E+02
              0.539605300881570E+02
             -0.287022360191370E+02
             -0.441909585461900E+02
              0.296340790217350E+02
             -0.651343988692241E+02
             -0.377670407039402E+02
              0.668275859471005E+02
              0.202428994284685E+02
             -0.356403799169377E+02
              0.484999350061493E+02
             -0.172740686011473E+02
             -0.319825361002597E+02
             -0.299371326271453E+02
             -0.496251394924591E+02
              0.247236486638666E+02
             -0.926063932646862E+02
             -0.834198861735367E+02
             -0.727788032758053E+01
             -0.304373446915763E+02
             -0.570538362173635E+02
              0.715171752115444E+02
              0.130360870685587E+03
             -0.359613242158304E+02
             -0.250767172539906E+01
             -0.632413850368956E+02
              0.644890081242312E+02
              0.168839066562072E+02
             -0.179919128166717E+02
             -0.407165292073956E+02
              0.147402218899584E+02
             -0.581180763555465E+02
             -0.197158539512290E+02
             -0.897587205692884E+02
              0.334069109463519E+02
              0.168293391963615E+02
              0.192007457524380E+01
             -0.694576959272581E+01
             -0.325943439477560E+02
             -0.747355894682238E+01
              0.124377192309150E+03
             -0.197653617586345E+02
             -0.433481547601056E+02
             -0.678015642743866E+02
              0.108139371791150E+02
             -0.338854123807127E+02
              0.581325518122460E+01
              0.258572802243264E+02
              0.101852861352418E+02
              0.274802611007087E+02
              0.118243003481525E+02
              0.624745330726761E+02
              0.314941675219108E+02
             -0.323445215446984E+02
              0.350570766551696E+02
              0.376720099045164E+02
              0.119749989032618E+02
              0.484459815009387E+02
             -0.221813438904744E+02
              0.759744206076964E+02
              0.169815201746296E+02
             -0.269081526315407E+02
             -0.721413837068580E+01
             -0.185171723105926E+02
              0.260833451263039E+02
             -0.232281247137102E+02
              0.503014273206759E-02
             -0.838400472632293E+01
              0.802801910837262E+02
              0.495149666150675E+02
             -0.681868551923601E+02
             -0.468419104622959E+01
             -0.551444564348038E+02
             -0.158418145949034E+02
             -0.266766628461778E+02
              0.365266480151172E+01
              0.629777028386952E+00
             -0.255227612767050E+02
              0.796992940931096E+01
             -0.593843499167917E+01
             -0.128190256134648E+02
              0.851506470211306E+02
              0.180702383530953E+02
             -0.799995627680411E+02
             -0.455636904351542E+02
              0.936807775729641E+02
              0.275914726168514E+02
             -0.106081897597675E+02
              0.103645357270241E+03
             -0.193395901328588E+02
             -0.122546504962314E+02
             -0.528946544419875E+01
              0.106127723998635E+02
              0.269484759834749E+02
              0.779203386977650E+01
              0.302936164654981E+02
             -0.187131028451676E+02
             -0.300213221012196E+02
             -0.414727347984901E+02
             -0.472944569391274E+02
              0.460975647853453E+02
              0.125566782056521E+02
              0.384552227929676E+02
              0.132248950874249E+02
              0.848050412975025E+02
              0.154474716838543E+02
             -0.839695798257711E+02
             -0.331855975315194E+02
              0.133720913743563E+02
             -0.300470108171013E+02
              0.621156407865533E+02
             -0.871456858309716E+01
              0.147167880291304E+02
              0.492377723861925E+02
             -0.700299269692534E+02
              0.148505701540275E+03
              0.207186549703585E+02
              0.269255649837708E+02
              0.344439058352689E+02
              0.103688112294903E+02
             -0.154101678538007E+01
              0.355778194703509E+02
             -0.354418122205947E+02
              0.765886603488573E+02
              0.678502219613856E+02
             -0.402899333930117E+02
              0.148308755363031E+02
              0.663990141051353E+02
             -0.222094579693383E+02
              0.152480638488944E+02
              0.432706347714167E+02
              0.418854743946036E+02
             -0.778835575235658E+02
             -0.152542372219631E+02
             -0.354139982932065E+02
             -0.144197979536744E+01
             -0.761372534163586E+01
             -0.551688951732649E+01
             -0.179866337497749E+02
             -0.291356205657830E+02
              0.618510452051039E+01
              0.111423453213317E+02
              0.531330681229286E+02
             -0.386311060017970E+02
              0.370373990332131E+02
              0.434334333796696E+02
             -0.185978899443818E+02
              0.866296375596628E+02
             -0.692211701880111E+02
             -0.102327621590842E+03
             -0.650445031165078E+01
             -0.263989213561194E+01
              0.387832390425956E+01
              0.783043709202094E+02
             -0.107144431125882E+02
              0.413089043156062E+02
              0.438363045647265E+02
              0.382025668134908E+02
             -0.989492657904987E+01
              0.622735789946074E+02
             -0.132272859710440E+02
             -0.303941333732889E+02
             -0.477061918355868E+02
              0.576042066527071E+01
              0.366853831116053E+02
             -0.601626303121230E+01
              0.390306014900673E+02
             -0.175186657050205E+01
              0.650744250638846E+02
              0.186001068004474E+02
              0.991806752702716E+01
             -0.122260640930390E+02
              0.329840282328277E+02
              0.359001204478812E+02
              0.231569371125944E+02
             -0.469834897121444E+00
             -0.545948638914872E+02
              0.258132374003378E+02
              0.173368641605040E+02
              0.399993489022987E+02
              0.269748519842586E+02
              0.369283634611095E+02
             -0.593038224701419E+01
              0.248102699144885E+02
             -0.296127147256584E+02
             -0.197131809845314E+01
             -0.564965543085999E+02
             -0.304770760852837E+02
              0.375046213662787E+02
             -0.928477664778015E+02
              0.292611895108495E+02
              0.183040035827773E+02
              0.833105927999529E+02
             -0.299856195792443E+02
              0.326741621728652E+02
             -0.136878771209055E+02
             -0.459816343016976E+02
             -0.756230444949545E+02
             -0.511955091034199E+01
             -0.852534937331386E+02
              0.199341796228556E+02
             -0.245833496823786E+02
              0.302991708045729E+02
              0.234921738062128E+02
             -0.238699238417956E+02
             -0.262956526978287E+02
              0.387277869793564E+02
             -0.583570152123212E+02
             -0.115662703654513E+02
             -0.194840607363112E+02
              0.210318874613765E+02
             -0.898788993374137E+01
              0.359440458287511E+01
             -0.199598815403131E+02
              0.554356627442136E+02
             -0.434404291555221E+02
              0.785160659989992E+01
              0.580486584253361E+02
             -0.320133248602579E+02
              0.356887240808189E+01
             -0.885998810605349E+01
             -0.664265742032171E+02
             -0.479713008156162E+02
             -0.861213727804667E+01
              0.238084216783898E+02
              0.299328869774074E+02
              0.857886527939354E+01
             -0.401442138705158E+01
              0.150629492173704E+02
             -0.436692574002477E+02
              0.337810137747175E+01
             -0.526785124544888E+02
             -0.322603854125600E+02
              0.470454665361005E+02
             -0.292567974359189E+02
              0.616521343824148E+02
             -0.212870717956598E+02
              0.350964252680921E+02
              0.239743456487320E+02
             -0.639169141828745E+02
             -0.278445610540573E+02
              0.923025152083437E+01
             -0.368189590751187E+02
             -0.336109429987565E+02
             -0.822411046454210E+02
             -0.534842439439315E+02
             -0.506448401307669E+02
             -0.411573877448180E+02
             -0.984436757759681E+00
              0.971896276381631E+01
              0.930930208636596E+00
              0.150669536118171E+02
             -0.544515564759960E+02
              0.140872706370982E+02
              0.254385884795072E+02
             -0.661022546325726E+02
             -0.697459106724477E+02
             -0.428149973964986E+02
             -0.168987883474600E+02
              0.177512091696827E+02
              0.459982627848376E+01
             -0.422252722898403E+02
              0.364136488722041E+02
             -0.214031044431122E+02
              0.513159865150827E+02
             -0.879790839388892E+02
              0.592257695249727E+02
             -0.200360743405128E+01
             -0.364921151058421E+02
             -0.213825921674374E+02
              0.471567927635945E+01
              0.370129172054709E+02
             -0.750714046446042E+02
             -0.119619698709449E+02
             -0.215469811148170E+02
              0.507985613747355E+02
              0.858237753572587E+02
             -0.956967760325089E+02
              0.936426877609134E+02
              0.464509075880311E+02
             -0.719091118311580E+02
             -0.364101587245293E+02
              0.745319157273512E+02
              0.627412512623052E+02
             -0.179626926265836E+02
             -0.456389261880173E+01
              0.715002482633540E+01
              0.642429369711356E+02
             -0.503274242059840E+02
              0.157518701155789E+02
             -0.464614391673025E+01
              0.345677549480388E+02
             -0.741297953898638E+02
             -0.647536974355536E+01
             -0.349126247646282E+02
              0.456541147849244E+02
              0.465520061313329E+02
             -0.854499682549497E+02
             -0.483211086687851E+02
             -0.254593751696592E+02
             -0.335549611461888E+02
             -0.108353719680559E+02
             -0.241366201364506E+02
              0.423617902283262E+02
              0.397278752596859E+02
             -0.565667048974069E+01
             -0.412552032624194E+02
             -0.843414877734067E+02
              0.438674397052298E+02
             -0.519609706301651E+02
             -0.309706403781572E+02
              0.540028906244275E+01
             -0.319481787751417E+02
             -0.394560931708335E+02
             -0.237631305181777E+02
             -0.381152100502514E+02
             -0.268713740574958E+02
             -0.478370580094981E+02
              0.559447459749963E+02
              0.633471992269794E+02
             -0.159690809035749E+01
             -0.259590935200042E+02
             -0.631782791549165E+01
              0.437783974467354E+02
             -0.861045672324053E+02
             -0.144289910653222E+02
              0.519616591666194E+02
              0.657799954009033E+02
             -0.243970965922383E+02
              0.906278345240685E+01
              0.519456824226359E+02
              0.196996327613081E+02
             -0.829438235597189E+01
             -0.450097382943726E+02
              0.279703273055806E+02
             -0.350010495245860E+02
             -0.164521826801406E+02
             -0.151027328000864E+02
             -0.199160528255202E+02
              0.192770129286870E+02
              0.793918687312340E+02
              0.194891881058527E+01
              0.533121674578493E+01
             -0.880082100714889E+02
             -0.174543562664136E+02
             -0.349634904541389E+02
              0.276407331221782E+01
             -0.405522607896278E+02
              0.722662980867159E+02
              0.777385562452362E+02
              0.122406940852201E+02
             -0.139548638850263E+02
              0.142350979625993E+02
              0.258987433341251E+02
             -0.478210399938683E+02
             -0.867076917541851E+01
              0.136444479056661E+02
              0.163542727934154E+02
              0.559424140844831E+02
              0.418642243249639E+02
             -0.196095704015144E+02
              0.329278014812609E+02
             -0.960488892201386E+02
             -0.537104935091492E+00
              0.839992894401956E+02
              0.896605413674439E+01
              0.142368483697032E+01
              0.333581377037304E+02
             -0.296302778762563E+02
              0.951616818021532E+02
             -0.118869342006734E+02
              0.863683750994845E+02
              0.377114560448628E+02
             -0.389143221199578E+02
              0.312052389896037E+02
             -0.331197873160905E+02
[...]
              0.281781561212772E+02
              0.140669642568779E+03
              0.239676417285045E+02
              0.121013282805210E+02
             -0.460309846800922E+02
             -0.633029637801187E+02
             -0.188167505395561E+02
              0.327445707887925E+02
             -0.422795520845125E+01
              0.187925283317130E+02
              0.333233375714342E+02
             -0.581084355113580E+02
              0.220153100176632E+02
              0.579544582083319E+02
              0.548020094821716E+02
             -0.409135048392187E+01
             -0.143437571260563E+01
             -0.988534389778704E+01
             -0.478818882533274E+02
             -0.668552701385318E+02
              0.779173768042357E+02
             -0.512293829425221E+01
             -0.583536962020391E+02
              0.161368036747788E+01
             -0.202551072958328E+02
              0.931462859883334E+02
             -0.214593835467292E+02
             -0.350243831474956E+02
              0.332102847221493E+02
             -0.144362854886831E+02
              0.385522877894828E+02
             -0.239760773534334E+01
              0.100309542673993E+03
              0.484879095738321E+02
             -0.525484556444869E+01
             -0.318443146886386E+02
              0.229733559656860E+02
             -0.523953019783674E+02
             -0.127658837273119E+02
              0.580246520029361E+02
             -0.285629315895390E+02
             -0.434666150531061E+02
             -0.221121172486843E+02
              0.514277614674203E+02
              0.123724887100676E+02
             -0.841968196449087E+02
              0.301051973085023E+02
              0.151938457618938E+02
              0.567366368802334E+01
             -0.509454638278378E+02
             -0.387282990755176E+01
              0.320164423132240E+02
              0.509119615708662E+02
              0.627018364801399E+02
              0.225881203877828E+02
              0.665509796035963E+00
             -0.493209340968779E+02
             -0.506625026441199E+02
             -0.742614050345995E+02
             -0.602061862769472E+01
              0.306193775146674E+02
             -0.381756663859838E+01
              0.542540899016896E+02
             -0.315260438521104E+02
              0.164838592792722E+02
             -0.100558371278930E+02
             -0.287392785671797E+02
              0.580654504566920E+02
              0.788317126665925E+01
              0.598901837375008E+02
              0.504164861197353E+01
              0.263551037850899E+02
             -0.191306774175811E+02
              0.580955238367687E+02
             -0.110049405623182E+02
             -0.112535226201869E+00
             -0.783493700400425E+02
             -0.127886185489191E+02
              0.713235528807426E+02
              0.667798123007663E+02
              0.249606394281454E+02
             -0.128690391201277E+02
              0.339219263530003E+01
             -0.171308127914015E+02
             -0.184055923613363E+01
              0.900019721720103E+02
              0.116311699285620E+01
             -0.187679764533354E+02
             -0.109848352902879E+03
             -0.549277668908885E+02
             -0.371787044950132E+02
             -0.653351935731123E+02
             -0.550500655990926E+02
             -0.676623153352020E+02
             -0.443390948038483E+02
             -0.408853018477436E+02
             -0.447570196206026E+02
              0.479883765911564E+02
             -0.292934197482002E+02
             -0.988540116504395E+02
              0.415511431080835E+02
             -0.257141918914050E+02
             -0.783979005910699E+02
              0.935189217293041E+02
             -0.217512860985669E+02
              0.226899077919143E+02
              0.452086169553974E+02
             -0.148301156211335E+01
              0.252101393688179E+02
              0.468417470583341E+01
              0.392947788407149E+00
             -0.149726622009519E+02
             -0.709523518494873E+02
              0.132344883079259E+02
             -0.128396956567852E+03
              0.617794507979119E+02
             -0.437319167575037E+02
             -0.160976662410391E+02
             -0.156053620712192E+02
              0.693490272608373E+01
             -0.226531476822225E+02
              0.294627418742294E+02
             -0.515239971030891E+02
              0.364330654166393E+02
              0.367263363048748E+02
              0.167822830580404E+02
              0.999666734865394E+01
              0.195886628555312E+02
              0.611703525965089E+01
              0.307856253862632E+02
             -0.797919397808323E+01
             -0.585520468562992E+02
              0.749961149655218E+01
             -0.149471210269587E+02
             -0.190705849229630E+01
              0.501339972306913E+02
             -0.820221379883839E+02
             -0.149220255115966E+01
              0.531625786717882E+00
              0.987382908965344E+01
              0.315844067621441E+02
             -0.122663665319693E+02
              0.828387820975995E+02
              0.484763657656984E+02
             -0.181975613743898E+02
             -0.948424034874893E+01
              0.995990608853532E+00
              0.762751736582850E+02
             -0.582038050512549E+02
             -0.104908999894970E+03
              0.306876583005735E+02
             -0.162560749166930E+02
             -0.138269432635788E+02
              0.128723526110019E+02
              0.762052982025535E+02
              0.460765241472122E+02
             -0.152036391735284E+02
             -0.498250474649398E+02
             -0.536582873303507E+01
              0.304114603963498E+02
             -0.109911696145837E+02
             -0.749141876691031E+02
             -0.262034491320563E+01
             -0.881295593127358E+02
             -0.470842344798742E+02
              0.760860932451703E+02
             -0.479057114623946E+02
             -0.630233123043378E+02
             -0.509979139268392E+02
             -0.346193358344349E+02
              0.338188637064537E+02
              0.814135800252748E+02
             -0.348761395301972E+01
              0.274298655034831E+02
             -0.181878675085074E+02
             -0.687996231232466E+02
              0.460772333202021E+02
             -0.440791303746487E+02
              0.319794253871358E+02
              0.373888025795827E+02
             -0.639550281880872E+01
              0.387367807137812E+02
              0.435139319026032E+02
              0.995860455162252E+02
             -0.155339557183609E+02
             -0.450856413057640E+02
             -0.606934210885091E+02
             -0.121946567113656E+02
             -0.228978715558640E+02
              0.102261052884262E+03
             -0.445427902010971E+02
              0.104070614456548E+02
              0.970707689258461E+01
             -0.263176185941585E+02
             -0.791291313814201E+02
             -0.694621512915796E+01
              0.971143887369769E+02
              0.915148362300135E+01
              0.802139967972795E+01
             -0.521629980377152E+02
             -0.600626695563828E+02
             -0.544099607096322E+01
              0.496554792350852E+02
             -0.219540662402118E+02
              0.107117422781307E+03
             -0.431548873734813E+02
              0.144424297638670E+02
             -0.223194858928921E+02
             -0.713370011645210E+02
              0.160703662591243E+01
             -0.496673126757319E+02
             -0.754142415043370E+02
              0.604614676066217E+01
              0.233797085410140E+01
              0.509880321824877E+02
              0.184655334292410E+02
             -0.320691106125316E+02
              0.228191859292547E+02
             -0.803102709971416E+02
             -0.517753144951763E+02
              0.893745117822642E+02
              0.142056836886012E+02
             -0.187897001565799E+02
             -0.350362997794747E+02
             -0.270135699289960E+01
             -0.574320910168922E+01
              0.822321575673001E+02
              0.414345671776415E+02
             -0.165403347973197E+02
             -0.122145224735248E+02
             -0.424377425787433E+02
             -0.199683031698100E+02
             -0.664669827673183E+02
              0.455335207748065E+02
              0.541970381008832E+01
              0.144423935568776E+02
              0.154300272754155E+02
             -0.425322111238284E+00
             -0.166331086271803E+02
             -0.319244464828688E+01
             -0.994346562967821E+02
             -0.229379190427202E+02
             -0.757034432589302E+01
             -0.943857627823994E+01
              0.542236617118677E+02
              0.618241090181021E+02
              0.163143161758339E+02
             -0.962546172929071E+02
              0.641917847378563E+02
             -0.212784800304797E+02
             -0.373757637421759E+02
             -0.856510721056334E+02
             -0.384871578705293E+02
              0.558900669386990E+02
              0.241436872253996E+02
              0.499627371728803E+01
              0.289022943199187E+02
             -0.560060330276954E+02
             -0.417778000784552E+02
              0.509814471830702E+02
              0.383410811425629E+02
              0.514884580635648E+02
             -0.130605944418434E+01
              0.676546994949439E+01
              0.564884546709025E+02
              0.954148841159516E+02
             -0.298903451935506E+02
              0.319330277833151E+02
             -0.115621338036319E+02
             -0.408293926648317E+02
             -0.311378920433452E+02
             -0.297171013790987E+02
             -0.130098667341946E+02
             -0.519187647068597E+02
             -0.215673805717571E+02
             -0.140070538105404E+03
              0.366526843816973E+02
              0.203997438603910E+02
             -0.390514588018749E+01
             -0.376833938527494E+02
             -0.202628338673610E+02
             -0.521784466583866E+02
              0.151097168128568E+02
              0.813233278597272E+02
             -0.250525422384537E+02
             -0.161357625153516E+02
              0.236361184128899E+02
             -0.485094332243581E+02
              0.873151264268444E+02
              0.153146826651855E+02
              0.226019283326342E+02
              0.485591288130075E+02
              0.326417984592496E+01
              0.536781844808399E+02
              0.141109192864139E+02
             -0.106683321318402E+02
              0.717999460713585E+01
              0.869877089891531E+00
              0.721509778327928E+02
              0.100743920090259E+02
              0.118528182780226E+02
             -0.129387285492987E+02
              0.131496959199170E+02
             -0.902925050389605E+02
             -0.322819692774128E+02
             -0.452830340540379E+02
              0.480874602791111E+02
             -0.287849246468448E+02
             -0.653883357010060E+02
              0.533127849697086E+02
             -0.120779008313463E+02
              0.436643320332610E+02
             -0.890900917453220E+02
              0.230878576046813E+02
              0.853558859120895E+01
              0.576372883291629E+01
             -0.818615849055880E+01
             -0.897915194439554E+01
              0.475085713514343E+02
              0.196195082674490E+01
             -0.470212448158285E+02
             -0.174247987688190E+02
              0.275116885318048E+02
             -0.116955340123017E+03
             -0.922413843588902E+02
              0.396102940578248E+01
              0.116026899132838E+02
             -0.408707822764225E+02
             -0.392044979074359E+01
              0.111234832929666E+03
              0.303952959923594E+02
             -0.567042255718135E+02
              0.917557455530573E+01
             -0.952978627631428E+01
              0.104644955976692E+02
             -0.334543409125506E+02
              0.193302210593998E+02
              0.282639984588559E+02
             -0.288713400492037E+01
              0.107179304503497E+03
             -0.140284158235301E+02
             -0.313251549677460E+02
              0.139735749462503E+02
              0.462884751220658E+02
             -0.353290381796423E+02
             -0.316683045307602E+01
              0.956315656240842E+02
             -0.463265129884348E+01
              0.617148813578635E+02
              0.134006037417747E+02
             -0.896049620835285E+01
             -0.304215260052339E+02
              0.562519822006617E+02
             -0.508753545467168E+02
             -0.220345130538846E+01
             -0.168096247221411E+02
             -0.401864255823403E+02
              0.184152437986536E+02
              0.237131111572934E+02
              0.116575069946268E+02
              0.729096680726229E+00
             -0.380637616709838E+02
              0.213953694394719E+02
             -0.673975632414968E+01
             -0.244548295332708E+02
             -0.208878145238201E+02
              0.201904419667296E+02
             -0.600804491483837E+01
             -0.345724443258848E+02
             -0.105694274789858E+03
              0.102296410632613E+02
              0.247886995286107E+02
             -0.382817894559031E+02
             -0.208719872732293E+02
              0.799924324330802E+02
              0.638165627183213E+01
              0.306567200503008E+02
              0.378783690725186E+01
              0.318053478194445E+02
              0.646155091744254E+01
             -0.369437699561243E+02
             -0.219657138070536E+01
              0.872978177754317E+01
              0.270882858435055E+02
              0.775466181034280E+02
              0.503054696994627E+02
              0.147301536430405E+00
              0.168474657090652E+02
              0.607987444127415E+02
              0.233271293809184E+02
             -0.746968489979317E+02
             -0.271265106925260E+02
              0.150394430005477E+02
              0.551825216209988E+01
              0.252772700249682E+02
             -0.543367557823904E+02
              0.895561757975997E+01
              0.382308459398319E+02
              0.493711799568081E+02
             -0.431169374125423E+02
             -0.696449747583171E+01
             -0.205354738032310E+01
             -0.131629384474017E+02
             -0.363420711915293E+02
             -0.214514174033234E+02
             -0.188775275114260E+01
              0.782155585470321E+01
              0.417682433619680E+02
             -0.305131392754717E+02
              0.819144206352256E+02
              0.324477442234406E+02
              0.217469170625848E+02
              0.329892796089122E+02
              0.321220524312902E+02
              0.343120084768410E+02
              0.532246610086115E+02
             -0.429681956697958E+02
              0.614196242727397E+02
             -0.111274178246432E+03
              0.304574336398468E+02
             -0.105614340654158E+03
              0.847584478071084E+02
              0.683632867643229E+02
             -0.109203542379358E+02
             -0.489212618299919E+02
             -0.425893304170908E+02
             -0.619017143827390E+02
             -0.622934747975263E+02
              0.547132028758371E+02
              0.401735887013580E+02
              0.234563236971664E+02
              0.371827060907135E+02
              0.398924678763167E+02
             -0.378460577684932E+02
             -0.196692217308324E+02
              0.582248323852369E+02
             -0.115163348930483E+02
              0.547658985434330E+02
              0.692479713670947E+02
             -0.552046373011794E+01
             -0.699626033959493E+02
             -0.935829615823423E+00
             -0.248461353994970E+01
             -0.872490378049804E+01
             -0.185282870731601E+01
             -0.647466528120261E+02
             -0.210262648360135E+02
              0.526306428225969E+01
              0.885789744570195E+01
              0.464459460607576E+02
             -0.393845897486939E+02
              0.653368644895462E+02
             -0.422038066767963E+02
              0.207899058998123E+02
              0.346350511383434E+02
 
 BEEF-vdW xc energy contributions
           1 :   -776.764342665448     
           2 :    714.022382703313     
           3 :   -605.296247285171     
           4 :    477.154773558736     
           5 :   -356.670414062061     
           6 :    263.419586313426     
           7 :   -205.022471978382     
           8 :    177.090947760587     
           9 :   -167.162798199611     
          10 :    160.761964847169     
          11 :   -147.121906004249     
          12 :    122.416609974970     
          13 :   -89.6469455790663     
          14 :    55.7872571482105     
          15 :   -27.8376964985526     
          16 :    9.57504508408579     
          17 :  -0.256366421263010     
          18 :   -4.46193067160118     
          19 :    10.0653880355228     
          20 :   -20.4797821966923     
          21 :    36.3700311200674     
          22 :   -55.1147319255232     
          23 :    72.3023416694999     
          24 :   -83.9348829147901     
          25 :    88.2552173654260     
          26 :   -86.3891630409225     
          27 :    81.5993177762429     
          28 :   -77.6037931744464     
          29 :    76.8087747314880     
          30 :   -79.2893280033015     
          31 :   -84.9663846402942     
          32 :   -65.1912867182641     

     Writing output data file ./pwscf.save/
 
     init_run     :    315.98s CPU    320.32s WALL (       1 calls)
     electrons    :  12086.83s CPU  12215.44s WALL (       1 calls)
     forces       :     94.97s CPU     96.18s WALL (       1 calls)

     Called by init_run:
     wfcinit      :    269.05s CPU    272.43s WALL (       1 calls)
     potinit      :     44.01s CPU     44.33s WALL (       1 calls)
     hinit0       :      1.09s CPU      1.14s WALL (       1 calls)

     Called by electrons:
     c_bands      :  10037.36s CPU  10128.27s WALL (      19 calls)
     sum_band     :   1381.33s CPU   1392.50s WALL (      19 calls)
     v_of_rho     :    100.75s CPU    113.70s WALL (      19 calls)
     newd         :     27.94s CPU     38.25s WALL (      19 calls)
     PAW_pot      :    125.29s CPU    125.29s WALL (      19 calls)
     mix_rho      :    458.94s CPU    459.56s WALL (      19 calls)
     vdW_kernel   :     33.50s CPU     33.50s WALL (       1 calls)

     Called by c_bands:
     init_us_2    :     72.21s CPU     72.48s WALL (     520 calls)
     cegterg      :   9298.85s CPU   9389.49s WALL (     247 calls)

     Called by *egterg:
     cdiaghg      :     67.19s CPU     67.25s WALL (    1218 calls)
     h_psi        :   5972.39s CPU   6004.12s WALL (    1244 calls)
     s_psi        :    974.41s CPU    974.44s WALL (    1244 calls)
     g_psi        :     15.94s CPU     15.94s WALL (     984 calls)

     Called by h_psi:
     h_psi:calbec :    918.21s CPU    918.36s WALL (    1244 calls)
     vloc_psi     :   4053.69s CPU   4055.20s WALL (    1244 calls)
     add_vuspsi   :    974.68s CPU    974.75s WALL (    1244 calls)

     General routines
     calbec       :   1348.69s CPU   1348.88s WALL (    1543 calls)
     fft          :     46.45s CPU     46.47s WALL (    3159 calls)
     ffts         :    139.36s CPU    139.39s WALL (   10182 calls)
     fftw         :   4081.94s CPU   4082.78s WALL (  320479 calls)
 
     Parallel routines
 
     PWSCF        :      3h30m CPU      3h32m WALL

 
   This run was terminated on:   0:42:52  27Sep2022            

=------------------------------------------------------------------------------=
   JOB DONE.
=------------------------------------------------------------------------------=
