
     Program PWSCF v.6.7MaX starts on 20Dec2022 at 15:53:16 

     This program is part of the open-source Quantum ESPRESSO suite
     for quantum simulation of materials; please cite
         "P. Giannozzi et al., J. Phys.:Condens. Matter 21 395502 (2009);
         "P. Giannozzi et al., J. Phys.:Condens. Matter 29 465901 (2017);
          URL http://www.quantum-espresso.org", 
     in publications or presentations arising from this work. More details at
     http://www.quantum-espresso.org/quote

     Parallel version (MPI), running on     1 processors

     MPI processes distributed on     1 nodes
     Reading input from hco-ensemble.in
Warning: card &CELL ignored
Warning: card / ignored

     Current dimensions of program PWSCF are:
     Max number of different atomic species (ntypx) = 10
     Max number of k-points (npk) =  40000
     Max angular momentum in pseudopotentials (lmaxx) =  3
     file Pt.pbe-n-kjpaw_psl.1.0.0.UPF: wavefunction(s)  6S 5D renormalized
     file C.pbe-n-kjpaw_psl.1.0.0.UPF: wavefunction(s)  2S 2P renormalized
     file H.pbe-kjpaw_psl.1.0.0.UPF: wavefunction(s)  1S renormalized
     file O.pbe-nl-kjpaw_psl.1.0.0.UPF: wavefunction(s)  2S 2P renormalized

     **************************************************************************
     Initializing libbeef V0.1.2 with the BEEF-vdW functional.
     Citation: Wellendorff et al., PRB 85, 235149 (2012).
     **************************************************************************


     IMPORTANT: XC functional enforced from input :
     Exchange-correlation= BEEF-VDW
                           (   1   4  43  14   2   0   0)
     Any further DFT definition will be discarded
     Please, verify this is what you really want


     Subspace diagonalization in iterative solution of the eigenvalue problem:
     a serial algorithm will be used

 
     G-vector sticks info
     --------------------
     sticks:   dense  smooth     PW     G-vecs:    dense   smooth      PW
     Sum        4267    4267   1159               709023   709023   99929
 


     bravais-lattice index     =            0
     lattice parameter (alat)  =      16.0349  a.u.
     unit-cell volume          =   11287.6136 (a.u.)^3
     number of atoms/cell      =           39
     number of atomic types    =            4
     number of electrons       =       371.00
     number of Kohn-Sham states=          223
     kinetic-energy cutoff     =      60.0000  Ry
     charge density cutoff     =     240.0000  Ry
     scf convergence threshold =      1.0E-06
     mixing beta               =       0.7000
     number of iterations used =            8  local-TF  mixing
     Exchange-correlation= BEEF-VDW
                           (   1   4  43  14   2   0   0)

     celldm(1)=  16.034858  celldm(2)=   0.000000  celldm(3)=   0.000000
     celldm(4)=   0.000000  celldm(5)=   0.000000  celldm(6)=   0.000000

     crystal axes: (cart. coord. in units of alat)
               a(1) = (   1.000000   0.000000   0.000000 )  
               a(2) = (   0.500000   0.866025   0.000000 )  
               a(3) = (   0.000000   0.000000   3.161376 )  

     reciprocal axes: (cart. coord. in units 2 pi/alat)
               b(1) = (  1.000000 -0.577350  0.000000 )  
               b(2) = (  0.000000  1.154701  0.000000 )  
               b(3) = (  0.000000  0.000000  0.316318 )  


     PseudoPot. # 1 for Pt read from file:
     /users/bkreitz1/quantum-espresso/potentials/Pt.pbe-n-kjpaw_psl.1.0.0.UPF
     MD5 check sum: 04dc8a03c51ece93fc7b5889c2958091
     Pseudo is Projector augmented-wave + core cor, Zval = 10.0
     Generated using 'atomic' code by A. Dal Corso  v.6.7MaX
     Shape of augmentation charge: PSQ
     Using radial grid of 1277 points,  6 beta functions with: 
                l(1) =   0
                l(2) =   0
                l(3) =   1
                l(4) =   1
                l(5) =   2
                l(6) =   2
     Q(r) pseudized with 0 coefficients 


     PseudoPot. # 2 for C  read from file:
     /users/bkreitz1/quantum-espresso/potentials/C.pbe-n-kjpaw_psl.1.0.0.UPF
     MD5 check sum: a169b0ebad56f5ec0d79c4633f80bf22
     Pseudo is Projector augmented-wave + core cor, Zval =  4.0
     Generated using 'atomic' code by A. Dal Corso  v.6.7MaX
     Shape of augmentation charge: PSQ
     Using radial grid of 1073 points,  4 beta functions with: 
                l(1) =   0
                l(2) =   0
                l(3) =   1
                l(4) =   1
     Q(r) pseudized with 0 coefficients 


     PseudoPot. # 3 for H  read from file:
     /users/bkreitz1/quantum-espresso/potentials/H.pbe-kjpaw_psl.1.0.0.UPF
     MD5 check sum: ae98473e6dc62675f0d0baffdab24f65
     Pseudo is Projector augmented-wave, Zval =  1.0
     Generated using 'atomic' code by A. Dal Corso  v.6.7MaX
     Shape of augmentation charge: PSQ
     Using radial grid of  929 points,  2 beta functions with: 
                l(1) =   0
                l(2) =   0
     Q(r) pseudized with 0 coefficients 


     PseudoPot. # 4 for O  read from file:
     /users/bkreitz1/quantum-espresso/potentials/O.pbe-nl-kjpaw_psl.1.0.0.UPF
     MD5 check sum: eef08af8b58d9ec80f8fdb78829eb7cf
     Pseudo is Projector augmented-wave + core cor, Zval =  6.0
     Generated using 'atomic' code by A. Dal Corso  v.6.7MaX
     Shape of augmentation charge: PSQ
     Using radial grid of 1095 points,  4 beta functions with: 
                l(1) =   0
                l(2) =   0
                l(3) =   1
                l(4) =   1
     Q(r) pseudized with 0 coefficients 


     atomic species   valence    mass     pseudopotential
        Pt            10.00   195.08400     Pt( 1.00)
        C              4.00    12.01100     C ( 1.00)
        H              1.00     1.00800     H ( 1.00)
        O              6.00    15.99900     O ( 1.00)

     No symmetry found



   Cartesian axes

     site n.     atom                  positions (alat units)
         1           Pt  tau(   1) = (   0.0000000   0.0000000   1.0017346  )
         2           Pt  tau(   2) = (   0.3333333   0.0000000   1.0017346  )
         3           Pt  tau(   3) = (   0.6666667   0.0000000   1.0017346  )
         4           Pt  tau(   4) = (   0.1666667   0.2886751   1.0017346  )
         5           Pt  tau(   5) = (   0.5000000   0.2886751   1.0017346  )
         6           Pt  tau(   6) = (   0.8333333   0.2886751   1.0017346  )
         7           Pt  tau(   7) = (   0.3333333   0.5773503   1.0017346  )
         8           Pt  tau(   8) = (   0.6666667   0.5773503   1.0017346  )
         9           Pt  tau(   9) = (   1.0000000   0.5773503   1.0017346  )
        10           Pt  tau(  10) = (   0.1666667   0.0962250   1.2739001  )
        11           Pt  tau(  11) = (   0.5000000   0.0962250   1.2739001  )
        12           Pt  tau(  12) = (   0.8333333   0.0962250   1.2739001  )
        13           Pt  tau(  13) = (   0.3333333   0.3849002   1.2739001  )
        14           Pt  tau(  14) = (   0.6666667   0.3849002   1.2739001  )
        15           Pt  tau(  15) = (   1.0000000   0.3849002   1.2739001  )
        16           Pt  tau(  16) = (   0.5000000   0.6735753   1.2739001  )
        17           Pt  tau(  17) = (   0.8333333   0.6735753   1.2739001  )
        18           Pt  tau(  18) = (   1.1666667   0.6735753   1.2739001  )
        19           Pt  tau(  19) = (  -0.0000870   0.1930117   1.5417109  )
        20           Pt  tau(  20) = (   0.3355633   0.1941582   1.5476080  )
        21           Pt  tau(  21) = (   0.6644945   0.1941658   1.5473113  )
        22           Pt  tau(  22) = (   0.1667509   0.4813435   1.5425008  )
        23           Pt  tau(  23) = (   0.4999358   0.4790694   1.5469121  )
        24           Pt  tau(  24) = (   0.8330008   0.4812240   1.5424996  )
        25           Pt  tau(  25) = (   0.3333573   0.7701792   1.5411504  )
        26           Pt  tau(  26) = (   0.6666387   0.7702043   1.5413525  )
        27           Pt  tau(  27) = (   0.9998378   0.7703350   1.5425131  )
        28           Pt  tau(  28) = (  -0.0001918   0.0006134   1.8157496  )
        29           Pt  tau(  29) = (   0.3325446  -0.0000993   1.8165839  )
        30           Pt  tau(  30) = (   0.6670978  -0.0000484   1.8158607  )
        31           Pt  tau(  31) = (   0.1655708   0.2891874   1.8166703  )
        32           Pt  tau(  32) = (   0.4998080   0.2886928   1.8467960  )
        33           Pt  tau(  33) = (   0.8341731   0.2891746   1.8169651  )
        34           Pt  tau(  34) = (   0.3329453   0.5787454   1.8157114  )
        35           Pt  tau(  35) = (   0.6669211   0.5789368   1.8157364  )
        36           Pt  tau(  36) = (   0.9998081   0.5780894   1.8160571  )
        37           C   tau(  37) = (   0.4997076   0.2901925   2.0821096  )
        38           H   tau(  38) = (   0.5315129   0.1736260   2.1311020  )
        39           O   tau(  39) = (   0.4691882   0.4018203   2.1634333  )

     number of k points=    13  Marzari-Vanderbilt smearing, width (Ry)=  0.0200
                       cart. coord. in units 2pi/alat
        k(    1) = (   0.0000000   0.0000000   0.0000000), wk =   0.0800000
        k(    2) = (   0.0000000   0.2309401   0.0000000), wk =   0.1600000
        k(    3) = (   0.0000000   0.4618802   0.0000000), wk =   0.1600000
        k(    4) = (   0.2000000  -0.1154701   0.0000000), wk =   0.1600000
        k(    5) = (   0.2000000   0.1154701   0.0000000), wk =   0.1600000
        k(    6) = (   0.2000000   0.3464102   0.0000000), wk =   0.1600000
        k(    7) = (   0.2000000  -0.5773503   0.0000000), wk =   0.1600000
        k(    8) = (   0.2000000  -0.3464102   0.0000000), wk =   0.1600000
        k(    9) = (   0.4000000  -0.2309401   0.0000000), wk =   0.1600000
        k(   10) = (   0.4000000  -0.0000000   0.0000000), wk =   0.1600000
        k(   11) = (   0.4000000   0.2309401   0.0000000), wk =   0.1600000
        k(   12) = (   0.4000000  -0.6928203   0.0000000), wk =   0.1600000
        k(   13) = (   0.4000000  -0.4618802   0.0000000), wk =   0.1600000

     Dense  grid:   709023 G-vectors     FFT dimensions: (  80,  80, 250)

     Estimated max dynamical RAM per process >       8.55 GB

     Check: negative core charge=   -0.000001

     Initial potential from superposition of free atoms

     starting charge  370.99384, renormalised to  371.00000

     negative rho (up, down):  1.204E-02 0.000E+00


     %%%%%%%%%%%%%%%%%%%%%%%%%%%%%%%%%%%%%%%%%%%%%%%%%%%%%%%%%%%%%%%%%%%%%%%%
     %                                                                      %
     % You are using vdW-DF, which was implemented by the Thonhauser group. %
     % Please cite the following two papers that made this development      %
     % possible and the two reviews that describe the various versions:     %
     %                                                                      %
     %   T. Thonhauser et al., PRL 115, 136402 (2015).                      %
     %   T. Thonhauser et al., PRB 76, 125112 (2007).                       %
     %   K. Berland et al., Rep. Prog. Phys. 78, 066501 (2015).             %
     %   D.C. Langreth et al., J. Phys.: Condens. Matter 21, 084203 (2009). %
     %                                                                      %
     %                                                                      %
     % If you are calculating the stress with vdW-DF, please also cite:     %
     %                                                                      %
     %   R. Sabatini et al., J. Phys.: Condens. Matter 24, 424209 (2012).   %
     %                                                                      %
     %%%%%%%%%%%%%%%%%%%%%%%%%%%%%%%%%%%%%%%%%%%%%%%%%%%%%%%%%%%%%%%%%%%%%%%%


     Starting wfcs are  333 randomized atomic wfcs
     Checking if some PAW data can be deallocated... 

     total cpu time spent up to now is      329.1 secs

     Self-consistent Calculation

     iteration #  1     ecut=    60.00 Ry     beta= 0.70
     Davidson diagonalization with overlap
     ethr =  1.00E-02,  avg # of iterations =  2.0

     Threshold (ethr) on eigenvalues was too large:
     Diagonalizing with lowered threshold

     Davidson diagonalization with overlap
     ethr =  6.78E-04,  avg # of iterations =  2.9

     negative rho (up, down):  1.626E-02 0.000E+00

     total cpu time spent up to now is     1579.4 secs

     total energy              =  -27816.61965438 Ry
     estimated scf accuracy    <       2.71114473 Ry

     iteration #  2     ecut=    60.00 Ry     beta= 0.70
     Davidson diagonalization with overlap
     ethr =  7.31E-04,  avg # of iterations =  2.0

     negative rho (up, down):  1.536E-02 0.000E+00

     total cpu time spent up to now is     2144.8 secs

     total energy              =  -27816.84700683 Ry
     estimated scf accuracy    <       0.98746295 Ry

     iteration #  3     ecut=    60.00 Ry     beta= 0.70
     Davidson diagonalization with overlap
     ethr =  2.66E-04,  avg # of iterations =  2.0

     negative rho (up, down):  1.393E-02 0.000E+00

     total cpu time spent up to now is     2704.6 secs

     total energy              =  -27816.91957067 Ry
     estimated scf accuracy    <       0.25775532 Ry

     iteration #  4     ecut=    60.00 Ry     beta= 0.70
     Davidson diagonalization with overlap
     ethr =  6.95E-05,  avg # of iterations =  9.0

     negative rho (up, down):  1.235E-02 0.000E+00

     total cpu time spent up to now is     3461.6 secs

     total energy              =  -27816.96655671 Ry
     estimated scf accuracy    <       0.16183393 Ry

     iteration #  5     ecut=    60.00 Ry     beta= 0.70
     Davidson diagonalization with overlap
     c_bands:  1 eigenvalues not converged
     ethr =  4.36E-05,  avg # of iterations =  3.7

     negative rho (up, down):  1.118E-02 0.000E+00

     total cpu time spent up to now is     4031.1 secs

     total energy              =  -27816.97368139 Ry
     estimated scf accuracy    <       0.04154169 Ry

     iteration #  6     ecut=    60.00 Ry     beta= 0.70
     Davidson diagonalization with overlap
     ethr =  1.12E-05,  avg # of iterations =  7.5

     negative rho (up, down):  9.859E-03 0.000E+00

     total cpu time spent up to now is     4750.4 secs

     total energy              =  -27816.97840736 Ry
     estimated scf accuracy    <       0.00741642 Ry

     iteration #  7     ecut=    60.00 Ry     beta= 0.70
     Davidson diagonalization with overlap
     c_bands:  2 eigenvalues not converged
     c_bands:  3 eigenvalues not converged
     c_bands:  2 eigenvalues not converged
     c_bands:  2 eigenvalues not converged
     c_bands:  3 eigenvalues not converged
     c_bands:  2 eigenvalues not converged
     c_bands:  2 eigenvalues not converged
     ethr =  2.00E-06,  avg # of iterations = 16.7

     negative rho (up, down):  9.679E-03 0.000E+00

     total cpu time spent up to now is     5651.7 secs

     total energy              =  -27816.98014832 Ry
     estimated scf accuracy    <       0.00220940 Ry

     iteration #  8     ecut=    60.00 Ry     beta= 0.70
     Davidson diagonalization with overlap
     c_bands:  1 eigenvalues not converged
     ethr =  5.96E-07,  avg # of iterations =  8.1

     negative rho (up, down):  9.730E-03 0.000E+00

     total cpu time spent up to now is     6299.6 secs

     total energy              =  -27816.98044912 Ry
     estimated scf accuracy    <       0.00115961 Ry

     iteration #  9     ecut=    60.00 Ry     beta= 0.70
     Davidson diagonalization with overlap
     ethr =  3.13E-07,  avg # of iterations =  2.5

     negative rho (up, down):  9.961E-03 0.000E+00

     total cpu time spent up to now is     6854.2 secs

     total energy              =  -27816.98055343 Ry
     estimated scf accuracy    <       0.00024730 Ry

     iteration # 10     ecut=    60.00 Ry     beta= 0.70
     Davidson diagonalization with overlap
     ethr =  6.67E-08,  avg # of iterations =  4.0

     negative rho (up, down):  1.020E-02 0.000E+00

     total cpu time spent up to now is     7628.6 secs

     total energy              =  -27816.98063738 Ry
     estimated scf accuracy    <       0.00013931 Ry

     iteration # 11     ecut=    60.00 Ry     beta= 0.70
     Davidson diagonalization with overlap
     ethr =  3.76E-08,  avg # of iterations =  1.3

     negative rho (up, down):  1.056E-02 0.000E+00

     total cpu time spent up to now is     8181.8 secs

     total energy              =  -27816.98063984 Ry
     estimated scf accuracy    <       0.00007568 Ry

     iteration # 12     ecut=    60.00 Ry     beta= 0.70
     Davidson diagonalization with overlap
     ethr =  2.04E-08,  avg # of iterations =  1.2

     negative rho (up, down):  1.094E-02 0.000E+00

     total cpu time spent up to now is     8700.4 secs

     total energy              =  -27816.98064137 Ry
     estimated scf accuracy    <       0.00004072 Ry

     iteration # 13     ecut=    60.00 Ry     beta= 0.70
     Davidson diagonalization with overlap
     ethr =  1.10E-08,  avg # of iterations =  1.5

     negative rho (up, down):  1.162E-02 0.000E+00

     total cpu time spent up to now is     9200.7 secs

     total energy              =  -27816.98063916 Ry
     estimated scf accuracy    <       0.00001806 Ry

     iteration # 14     ecut=    60.00 Ry     beta= 0.70
     Davidson diagonalization with overlap
     ethr =  4.87E-09,  avg # of iterations =  2.0

     negative rho (up, down):  1.170E-02 0.000E+00

     total cpu time spent up to now is     9735.7 secs

     total energy              =  -27816.98063986 Ry
     estimated scf accuracy    <       0.00001408 Ry

     iteration # 15     ecut=    60.00 Ry     beta= 0.70
     Davidson diagonalization with overlap
     ethr =  3.79E-09,  avg # of iterations =  1.2

     negative rho (up, down):  1.229E-02 0.000E+00

     total cpu time spent up to now is    10222.5 secs

     total energy              =  -27816.98063799 Ry
     estimated scf accuracy    <       0.00000558 Ry

     iteration # 16     ecut=    60.00 Ry     beta= 0.70
     Davidson diagonalization with overlap
     ethr =  1.50E-09,  avg # of iterations =  2.2

     negative rho (up, down):  1.264E-02 0.000E+00

     total cpu time spent up to now is    10767.0 secs

     total energy              =  -27816.98063729 Ry
     estimated scf accuracy    <       0.00000261 Ry

     iteration # 17     ecut=    60.00 Ry     beta= 0.70
     Davidson diagonalization with overlap
     ethr =  7.04E-10,  avg # of iterations =  2.8

     negative rho (up, down):  1.275E-02 0.000E+00

     total cpu time spent up to now is    11326.1 secs

     total energy              =  -27816.98063731 Ry
     estimated scf accuracy    <       0.00000138 Ry

     iteration # 18     ecut=    60.00 Ry     beta= 0.70
     Davidson diagonalization with overlap
     ethr =  3.72E-10,  avg # of iterations =  2.2

     negative rho (up, down):  1.292E-02 0.000E+00

     total cpu time spent up to now is    11866.1 secs

     End of self-consistent calculation

          k = 0.0000 0.0000 0.0000 ( 88721 PWs)   bands (ev):

   -20.5252  -8.8448  -7.0594  -5.7915  -5.2610  -4.7260  -4.6593  -4.6568
    -4.6557  -4.6508  -4.6401  -4.6152  -4.6095  -4.4125  -4.0954  -4.0940
    -4.0938  -4.0779  -4.0765  -4.0211  -3.7618  -3.6313  -3.6305  -3.6197
    -3.6109  -3.6086  -3.5763  -3.4080  -3.4042  -3.4013  -3.3973  -3.3942
    -3.3262  -3.1839  -3.1784  -3.1770  -3.1709  -3.1696  -3.1653  -3.1580
    -3.1557  -3.1250  -3.1157  -3.1058  -3.1016  -2.5624  -2.5619  -2.5284
    -2.5245  -2.5198  -2.4736  -2.4715  -2.4696  -2.4624  -2.4611  -2.3294
    -2.3146  -2.2455  -2.1871  -1.8298  -1.7638  -1.7550  -1.7278  -1.7262
    -1.7236  -1.6672  -1.5865  -1.5792  -1.5616  -1.5610  -1.5383  -1.5358
    -1.5285  -1.5121  -1.5103  -1.4887  -1.4841  -1.4834  -1.4541  -1.4523
    -1.4455  -1.3532  -1.3469  -1.3393  -1.3198  -1.3154  -1.2587  -1.1617
    -1.1599  -1.1577  -1.1214  -1.1164  -1.1147  -1.0883  -1.0792  -1.0290
    -1.0272  -0.9540  -0.9538  -0.8991  -0.8990  -0.8636  -0.8602  -0.8405
    -0.8166  -0.7682  -0.7396  -0.7266  -0.6875  -0.6840  -0.6816  -0.5688
    -0.2800  -0.2742  -0.2698  -0.2112  -0.1991  -0.1977  -0.1897  -0.1383
    -0.1369  -0.1308  -0.1229  -0.0884  -0.0831  -0.0368   0.0526   0.0985
     0.1007   0.1127   0.1237   0.1596   0.1869   0.2002   0.2788   0.2832
     0.2909   0.2931   0.4016   0.4715   0.4878   0.5322   0.5342   0.5366
     0.5665   0.6015   0.6026   0.7779   0.7827   0.7920   0.8063   0.8078
     0.8761   0.9386   0.9425   0.9636   0.9651   0.9670   0.9839   0.9908
     1.0039   1.0064   1.0092   1.0123   1.0920   1.0943   1.1023   1.1209
     1.1261   1.1341   1.1626   1.1886   1.2195   1.2200   1.2354   1.2388
     1.2650   1.2753   1.2786   1.2805   1.3508   1.3515   1.3735   1.3760
     1.3770   1.3994   1.4002   1.4752   1.4765   1.4767   1.5017   1.5027
     1.5645   1.6729   1.6790   1.7723   1.7744   1.8112   1.8141   1.8147
     1.8287   2.2237   2.6510   2.6563   2.6818   2.7003   2.7058   2.7344
     4.0535   4.5936   4.9585   5.0177   5.0343   5.0511   5.1438   5.9192
     6.5254   6.5786   6.6089   6.6173   6.6242   6.6463   6.6556

          k = 0.0000 0.2309 0.0000 ( 88564 PWs)   bands (ev):

   -20.5252  -8.8444  -6.9131  -5.6546  -5.2757  -5.1295  -4.7638  -4.7520
    -4.5952  -4.5140  -4.4679  -4.4370  -4.4023  -4.3639  -4.1844  -4.1715
    -4.0262  -4.0250  -4.0074  -3.9504  -3.7638  -3.7145  -3.5900  -3.5880
    -3.5737  -3.5590  -3.5019  -3.4886  -3.4416  -3.4275  -3.4024  -3.3942
    -3.3577  -3.3085  -3.2855  -3.2060  -3.1948  -3.1692  -3.1515  -3.1460
    -2.9765  -2.9669  -2.9654  -2.9355  -2.9164  -2.6843  -2.6736  -2.6478
    -2.6007  -2.5888  -2.5546  -2.5522  -2.3937  -2.3684  -2.3115  -2.2993
    -2.2681  -2.2420  -2.2054  -2.0176  -1.9274  -1.9270  -1.8751  -1.8623
    -1.8200  -1.7750  -1.7471  -1.7398  -1.7070  -1.6950  -1.6895  -1.6324
    -1.5896  -1.5627  -1.5471  -1.5304  -1.4599  -1.4496  -1.4488  -1.3828
    -1.3726  -1.3601  -1.3224  -1.2790  -1.2711  -1.2663  -1.2501  -1.1971
    -1.1826  -1.1608  -1.1524  -1.1234  -1.1126  -1.0784  -1.0441  -1.0090
    -0.9915  -0.9815  -0.9773  -0.9464  -0.9355  -0.9086  -0.8849  -0.8605
    -0.7819  -0.7381  -0.7241  -0.7096  -0.7012  -0.6784  -0.6732  -0.6530
    -0.6330  -0.6120  -0.5934  -0.5638  -0.5545  -0.3746  -0.3154  -0.2547
    -0.2275  -0.2029  -0.1785  -0.1560  -0.1550  -0.1384  -0.0131   0.0115
     0.0293   0.0769   0.1476   0.1558   0.1936   0.2189   0.2528   0.2639
     0.2910   0.3045   0.3664   0.3827   0.4129   0.4185   0.4369   0.4586
     0.5869   0.5939   0.6388   0.6609   0.6704   0.7040   0.7306   0.7556
     0.7961   0.8133   0.8229   0.8618   0.8925   0.9130   0.9195   0.9409
     1.0214   1.0225   1.0545   1.1003   1.1403   1.1474   1.1783   1.1934
     1.2219   1.2574   1.2670   1.3083   1.3366   1.3498   1.3960   1.4063
     1.4128   1.4544   1.4569   1.4584   1.4684   1.4715   1.5246   1.5364
     1.6568   1.6643   1.7062   1.7197   1.7249   1.7372   1.7675   1.7956
     1.7991   1.8193   1.9083   1.9156   1.9441   2.0270   2.0930   2.1043
     2.1255   2.1582   2.4642   2.5488   2.9925   3.2539   3.3080   3.4264
     3.9798   4.4762   4.5776   4.8640   5.1053   5.4371   5.4521   5.6128
     5.7458   6.0789   6.4205   6.4389   6.6225   6.7806   6.8244

          k = 0.0000 0.4619 0.0000 ( 88568 PWs)   bands (ev):

   -20.5252  -8.8438  -6.4921  -5.8612  -5.3475  -5.1558  -4.7951  -4.7846
    -4.6873  -4.4531  -4.3876  -4.2660  -4.1494  -4.1159  -4.0655  -4.0535
    -3.9066  -3.8708  -3.8520  -3.8409  -3.8049  -3.7624  -3.7202  -3.6689
    -3.6629  -3.6141  -3.6011  -3.5847  -3.5544  -3.4879  -3.4855  -3.4700
    -3.2281  -3.2255  -3.2190  -3.2118  -3.1900  -3.1865  -2.9793  -2.9649
    -2.9452  -2.9380  -2.9034  -2.8951  -2.7414  -2.6484  -2.6339  -2.6192
    -2.6167  -2.5647  -2.5558  -2.4987  -2.4808  -2.4786  -2.4265  -2.4070
    -2.2801  -2.2723  -2.2510  -2.2295  -2.1275  -2.0907  -2.0645  -2.0580
    -2.0355  -1.9060  -1.8511  -1.8294  -1.8235  -1.8175  -1.7459  -1.7254
    -1.6976  -1.6733  -1.5882  -1.5711  -1.5688  -1.4942  -1.4573  -1.4525
    -1.4383  -1.4270  -1.3880  -1.3610  -1.3561  -1.3298  -1.3227  -1.3156
    -1.3098  -1.2888  -1.2634  -1.2133  -1.1793  -1.1720  -1.1489  -1.1383
    -1.1091  -1.0825  -0.9897  -0.9822  -0.9577  -0.9269  -0.8911  -0.8885
    -0.8575  -0.8509  -0.8163  -0.7127  -0.7028  -0.6914  -0.6584  -0.6017
    -0.5902  -0.4639  -0.4549  -0.4362  -0.3744  -0.3404  -0.3053  -0.2812
    -0.2599  -0.2422  -0.2330  -0.2269  -0.1863  -0.1529  -0.1457  -0.1378
    -0.1283  -0.0922  -0.0661  -0.0596  -0.0455   0.0229   0.0948   0.1029
     0.1268   0.1860   0.2440   0.3020   0.3079   0.3652   0.4008   0.4236
     0.4999   0.5510   0.5716   0.6142   0.6232   0.6435   0.6840   0.6949
     0.7452   0.7525   0.7931   0.8211   0.8355   0.9142   0.9259   0.9495
     0.9619   0.9834   1.0068   1.1133   1.1448   1.1661   1.2134   1.2549
     1.2571   1.2666   1.3425   1.3719   1.3774   1.4503   1.4573   1.4682
     1.5188   1.5360   1.5510   1.5765   1.6543   1.6655   1.6953   1.7158
     1.7296   1.7368   1.7453   1.7509   1.9245   1.9285   1.9442   1.9712
     1.9748   2.1316   2.1831   2.4372   2.5552   2.6381   2.7769   3.0010
     3.0063   3.3341   3.3703   3.4237   3.7385   3.8711   4.1703   4.2185
     4.2545   4.3367   4.4285   4.5628   4.5903   4.7555   4.8717   5.0937
     5.1563   5.5259   5.7291   6.1109   6.1601   6.5636   6.7072

          k = 0.2000-0.1155 0.0000 ( 88564 PWs)   bands (ev):

   -20.5252  -8.8444  -6.9131  -5.6546  -5.2723  -5.1362  -4.7601  -4.7504
    -4.5971  -4.5146  -4.4737  -4.4329  -4.3989  -4.3661  -4.1826  -4.1707
    -4.0270  -4.0243  -4.0077  -3.9524  -3.7696  -3.7067  -3.5913  -3.5892
    -3.5742  -3.5567  -3.5012  -3.4883  -3.4410  -3.4278  -3.4044  -3.3961
    -3.3565  -3.3086  -3.2817  -3.2079  -3.1954  -3.1718  -3.1533  -3.1447
    -2.9764  -2.9672  -2.9645  -2.9370  -2.9133  -2.6843  -2.6732  -2.6418
    -2.6020  -2.5858  -2.5586  -2.5533  -2.3940  -2.3699  -2.3134  -2.2988
    -2.2670  -2.2420  -2.2050  -2.0141  -1.9303  -1.9252  -1.8748  -1.8573
    -1.8242  -1.7731  -1.7494  -1.7381  -1.7086  -1.6963  -1.6875  -1.6330
    -1.5967  -1.5634  -1.5473  -1.5282  -1.4612  -1.4523  -1.4489  -1.3811
    -1.3721  -1.3637  -1.3198  -1.2751  -1.2725  -1.2593  -1.2527  -1.1939
    -1.1747  -1.1623  -1.1537  -1.1248  -1.1114  -1.0807  -1.0440  -1.0127
    -0.9891  -0.9822  -0.9738  -0.9449  -0.9357  -0.9114  -0.8867  -0.8613
    -0.7845  -0.7374  -0.7212  -0.7104  -0.7038  -0.6830  -0.6779  -0.6488
    -0.6283  -0.6101  -0.5942  -0.5636  -0.5453  -0.3801  -0.3103  -0.2542
    -0.2370  -0.2019  -0.1872  -0.1585  -0.1541  -0.1377  -0.0292   0.0106
     0.0383   0.0842   0.1431   0.1504   0.1967   0.2168   0.2503   0.2613
     0.2914   0.3103   0.3697   0.3826   0.4140   0.4211   0.4381   0.4657
     0.5818   0.5981   0.6379   0.6661   0.6745   0.7002   0.7211   0.7585
     0.7937   0.8136   0.8242   0.8504   0.8939   0.9134   0.9218   0.9416
     1.0222   1.0253   1.0568   1.0961   1.1412   1.1499   1.1761   1.1988
     1.2217   1.2565   1.2649   1.3111   1.3356   1.3508   1.3961   1.4031
     1.4124   1.4543   1.4562   1.4580   1.4687   1.4696   1.5228   1.5344
     1.6582   1.6601   1.7067   1.7197   1.7242   1.7387   1.7696   1.7963
     1.8022   1.8210   1.9065   1.9172   1.9444   2.0359   2.0906   2.1047
     2.1252   2.1556   2.4506   2.5587   2.9905   3.2658   3.3215   3.4129
     3.9692   4.4400   4.6339   4.8399   5.1226   5.4382   5.4556   5.5859
     5.7685   6.0956   6.4018   6.4415   6.6350   6.7784   6.8132

          k = 0.2000 0.1155 0.0000 ( 88564 PWs)   bands (ev):

   -20.5252  -8.8444  -6.9131  -5.6546  -5.2727  -5.1357  -4.7595  -4.7503
    -4.5983  -4.5147  -4.4751  -4.4324  -4.3985  -4.3675  -4.1831  -4.1673
    -4.0269  -4.0234  -4.0065  -3.9555  -3.7757  -3.6989  -3.5919  -3.5905
    -3.5736  -3.5543  -3.5016  -3.4880  -3.4411  -3.4282  -3.4045  -3.3979
    -3.3556  -3.3093  -3.2803  -3.2071  -3.1972  -3.1714  -3.1532  -3.1459
    -2.9763  -2.9679  -2.9645  -2.9366  -2.9143  -2.6847  -2.6733  -2.6405
    -2.6028  -2.5831  -2.5595  -2.5541  -2.3931  -2.3707  -2.3139  -2.2991
    -2.2677  -2.2418  -2.2040  -2.0133  -1.9302  -1.9253  -1.8755  -1.8587
    -1.8233  -1.7725  -1.7478  -1.7379  -1.7086  -1.6962  -1.6912  -1.6329
    -1.5971  -1.5639  -1.5464  -1.5281  -1.4607  -1.4505  -1.4478  -1.3813
    -1.3713  -1.3652  -1.3182  -1.2742  -1.2733  -1.2581  -1.2525  -1.1911
    -1.1736  -1.1637  -1.1541  -1.1263  -1.1074  -1.0855  -1.0449  -1.0121
    -0.9898  -0.9822  -0.9721  -0.9437  -0.9348  -0.9135  -0.8862  -0.8598
    -0.7832  -0.7434  -0.7213  -0.7111  -0.7002  -0.6877  -0.6779  -0.6449
    -0.6289  -0.6086  -0.5980  -0.5693  -0.5379  -0.3766  -0.3043  -0.2550
    -0.2473  -0.2014  -0.1947  -0.1591  -0.1557  -0.1370  -0.0404   0.0103
     0.0490   0.0917   0.1388   0.1495   0.1956   0.2178   0.2506   0.2590
     0.2932   0.3159   0.3710   0.3812   0.4173   0.4221   0.4391   0.4639
     0.5715   0.6004   0.6375   0.6698   0.6753   0.6964   0.7173   0.7610
     0.7944   0.8097   0.8244   0.8567   0.8965   0.9127   0.9215   0.9432
     1.0222   1.0262   1.0567   1.0985   1.1401   1.1508   1.1754   1.2022
     1.2216   1.2577   1.2622   1.3127   1.3350   1.3504   1.3961   1.4011
     1.4127   1.4534   1.4559   1.4584   1.4683   1.4690   1.5232   1.5349
     1.6596   1.6597   1.7069   1.7199   1.7229   1.7380   1.7696   1.7966
     1.8008   1.8212   1.9054   1.9179   1.9445   2.0439   2.0870   2.1063
     2.1244   2.1555   2.4367   2.5636   2.9871   3.2822   3.3230   3.4047
     3.9634   4.4405   4.6611   4.7932   5.1386   5.4401   5.4598   5.5855
     5.7779   6.1140   6.3957   6.4545   6.6387   6.7551   6.8115

          k = 0.2000 0.3464 0.0000 ( 88650 PWs)   bands (ev):

   -20.5252  -8.8438  -6.6287  -5.4599  -5.4103  -5.3760  -5.1842  -4.5433
    -4.3322  -4.3247  -4.3164  -4.2875  -4.2679  -4.2529  -4.2376  -4.1511
    -4.1392  -4.1117  -3.7898  -3.7617  -3.7457  -3.7301  -3.7144  -3.6504
    -3.6296  -3.5132  -3.4953  -3.4937  -3.4787  -3.4671  -3.3821  -3.3514
    -3.3266  -3.3235  -3.3172  -3.2551  -3.2240  -3.2189  -3.1773  -3.1369
    -3.0727  -2.8347  -2.7488  -2.7416  -2.7204  -2.6959  -2.6853  -2.6707
    -2.6570  -2.6142  -2.5821  -2.4589  -2.4466  -2.4279  -2.3538  -2.3211
    -2.2756  -2.2617  -2.2521  -2.1832  -2.1621  -2.0283  -1.9964  -1.9709
    -1.9242  -1.8981  -1.8798  -1.8650  -1.8370  -1.8056  -1.7816  -1.6545
    -1.6404  -1.6281  -1.6061  -1.5697  -1.5465  -1.5280  -1.4943  -1.4725
    -1.4520  -1.3744  -1.3511  -1.3163  -1.3049  -1.2981  -1.2863  -1.2804
    -1.2420  -1.2208  -1.2120  -1.1548  -1.1373  -1.1191  -1.0625  -1.0446
    -1.0336  -0.9939  -0.9735  -0.9400  -0.9299  -0.9200  -0.9004  -0.8814
    -0.8731  -0.8546  -0.8464  -0.8314  -0.8012  -0.7775  -0.7556  -0.6761
    -0.6405  -0.6302  -0.5720  -0.5495  -0.5438  -0.5037  -0.3549  -0.3409
    -0.2830  -0.2227  -0.2094  -0.1873  -0.1611  -0.1436  -0.1087  -0.1000
    -0.0856  -0.0638  -0.0307  -0.0034   0.0442   0.1392   0.1821   0.2137
     0.2401   0.2811   0.2980   0.3126   0.3577   0.4085   0.4499   0.4630
     0.4817   0.5300   0.5527   0.6088   0.6466   0.6842   0.6923   0.7123
     0.7522   0.7697   0.7856   0.7905   0.8054   0.8179   0.8376   0.8508
     0.9350   0.9946   1.0318   1.0633   1.1477   1.1666   1.2605   1.3300
     1.3455   1.3520   1.3887   1.4571   1.4757   1.4831   1.5033   1.5200
     1.5436   1.5528   1.5580   1.5751   1.6021   1.6281   1.6419   1.7005
     1.7349   1.7397   1.7714   1.7832   1.8268   1.9188   1.9809   2.0178
     2.0482   2.0734   2.0974   2.1047   2.2218   2.2406   2.5715   2.7495
     2.7722   3.1248   3.2659   3.3061   3.3354   3.6520   3.9946   4.0245
     4.1548   4.2370   4.2850   4.6660   4.8983   5.0438   5.4263   5.4830
     5.6801   5.7220   6.1582   6.2023   6.2405   6.2816   6.3360

          k = 0.2000-0.5774 0.0000 ( 88524 PWs)   bands (ev):

   -20.5252  -8.8436  -6.1074  -6.0853  -5.5019  -5.2771  -4.8582  -4.8532
    -4.4871  -4.3250  -4.2535  -4.1854  -4.1430  -4.0480  -4.0262  -3.9468
    -3.9286  -3.8347  -3.8188  -3.8065  -3.7865  -3.7721  -3.7602  -3.7440
    -3.7120  -3.6175  -3.6021  -3.5757  -3.5495  -3.5206  -3.4781  -3.3910
    -3.3485  -3.2994  -3.2080  -3.1952  -3.1894  -3.1714  -3.1355  -3.0636
    -3.0539  -2.9661  -2.9240  -2.7685  -2.7612  -2.7209  -2.6235  -2.6151
    -2.5706  -2.5492  -2.4452  -2.4010  -2.3743  -2.3553  -2.3357  -2.2879
    -2.2861  -2.2573  -2.1642  -2.1549  -2.1338  -2.1251  -2.1106  -2.1072
    -2.0994  -2.0585  -2.0078  -1.9204  -1.8912  -1.8516  -1.8328  -1.7417
    -1.7192  -1.6944  -1.6811  -1.6540  -1.6292  -1.6087  -1.5752  -1.5049
    -1.4956  -1.4780  -1.4467  -1.4351  -1.3989  -1.3486  -1.3111  -1.2866
    -1.2688  -1.2496  -1.2358  -1.1486  -1.0936  -1.0776  -1.0589  -1.0526
    -1.0223  -1.0093  -0.9960  -0.9728  -0.9542  -0.9426  -0.9145  -0.8996
    -0.8726  -0.8621  -0.8563  -0.8401  -0.8195  -0.8161  -0.7977  -0.7658
    -0.7356  -0.7245  -0.5518  -0.5078  -0.4333  -0.4227  -0.3442  -0.3355
    -0.3103  -0.2797  -0.2665  -0.2531  -0.2136  -0.1879  -0.1699  -0.1137
    -0.0855  -0.0734  -0.0381  -0.0243   0.0453   0.0669   0.1156   0.1303
     0.2448   0.2577   0.3090   0.3315   0.3549   0.3888   0.4288   0.4380
     0.4714   0.4817   0.4887   0.5309   0.5450   0.5755   0.6297   0.6451
     0.6973   0.7137   0.7358   0.7497   0.7685   0.7775   0.8810   0.9113
     1.0056   1.0179   1.0938   1.1427   1.1804   1.1926   1.2583   1.3088
     1.3134   1.3462   1.4138   1.4661   1.4893   1.5099   1.5347   1.5379
     1.5546   1.5887   1.6112   1.6882   1.6921   1.7099   1.7291   1.7488
     1.7539   1.7681   1.8210   1.9215   1.9385   1.9631   1.9707   1.9794
     2.0333   2.0868   2.1541   2.2731   2.9641   3.1137   3.1210   3.2954
     3.3665   3.4742   3.5015   3.5236   3.7745   4.0627   4.1200   4.2758
     4.4026   4.5874   4.6207   4.7235   4.7692   4.9153   5.0005   5.0659
     5.1163   5.3527   5.5650   5.5873   5.8255   6.2035   6.2303

          k = 0.2000-0.3464 0.0000 ( 88650 PWs)   bands (ev):

   -20.5252  -8.8439  -6.6287  -5.4605  -5.4096  -5.3762  -5.1840  -4.5426
    -4.3318  -4.3243  -4.3167  -4.2864  -4.2666  -4.2531  -4.2399  -4.1502
    -4.1386  -4.1128  -3.7943  -3.7620  -3.7452  -3.7366  -3.7151  -3.6423
    -3.6247  -3.5145  -3.4954  -3.4932  -3.4764  -3.4708  -3.3829  -3.3496
    -3.3274  -3.3240  -3.3180  -3.2546  -3.2251  -3.2195  -3.1767  -3.1353
    -3.0739  -2.8333  -2.7488  -2.7412  -2.7199  -2.6952  -2.6857  -2.6711
    -2.6557  -2.6146  -2.5822  -2.4599  -2.4475  -2.4281  -2.3535  -2.3217
    -2.2753  -2.2620  -2.2532  -2.1822  -2.1630  -2.0306  -1.9964  -1.9695
    -1.9230  -1.8987  -1.8796  -1.8642  -1.8377  -1.8044  -1.7814  -1.6520
    -1.6409  -1.6301  -1.6060  -1.5703  -1.5461  -1.5306  -1.4940  -1.4717
    -1.4518  -1.3763  -1.3516  -1.3171  -1.3053  -1.2981  -1.2861  -1.2794
    -1.2432  -1.2207  -1.2121  -1.1543  -1.1344  -1.1191  -1.0620  -1.0454
    -1.0375  -0.9943  -0.9730  -0.9405  -0.9297  -0.9159  -0.9079  -0.8808
    -0.8752  -0.8509  -0.8464  -0.8311  -0.8017  -0.7743  -0.7553  -0.6768
    -0.6412  -0.6315  -0.5693  -0.5500  -0.5442  -0.5075  -0.3528  -0.3397
    -0.2743  -0.2210  -0.2043  -0.1965  -0.1649  -0.1377  -0.1094  -0.1014
    -0.0873  -0.0616  -0.0329  -0.0061   0.0443   0.1416   0.1957   0.2095
     0.2446   0.2799   0.2984   0.3112   0.3580   0.4092   0.4421   0.4688
     0.4812   0.5274   0.5517   0.6062   0.6413   0.6825   0.6927   0.7130
     0.7542   0.7699   0.7868   0.7940   0.8053   0.8170   0.8341   0.8505
     0.9373   0.9930   1.0297   1.0676   1.1467   1.1682   1.2593   1.3292
     1.3447   1.3547   1.3844   1.4559   1.4787   1.4826   1.5026   1.5213
     1.5448   1.5514   1.5580   1.5744   1.6018   1.6272   1.6416   1.6997
     1.7340   1.7411   1.7713   1.7832   1.8268   1.9150   1.9802   2.0177
     2.0547   2.0702   2.0973   2.1024   2.2179   2.2427   2.5659   2.7529
     2.7737   3.1487   3.2738   3.2956   3.3339   3.6272   3.9992   4.0205
     4.2074   4.2376   4.2636   4.7183   4.8463   4.9984   5.4278   5.4988
     5.6650   5.7107   6.1447   6.2116   6.2507   6.2823   6.3491

          k = 0.4000-0.2309 0.0000 ( 88568 PWs)   bands (ev):

   -20.5252  -8.8437  -6.4922  -5.8615  -5.3466  -5.1576  -4.7920  -4.7840
    -4.6907  -4.4618  -4.3797  -4.2671  -4.1493  -4.1175  -4.0617  -4.0533
    -3.9054  -3.8722  -3.8561  -3.8352  -3.8081  -3.7661  -3.7166  -3.6708
    -3.6591  -3.6176  -3.6052  -3.5838  -3.5547  -3.4878  -3.4862  -3.4616
    -3.2269  -3.2239  -3.2193  -3.2113  -3.1904  -3.1870  -2.9787  -2.9646
    -2.9448  -2.9388  -2.9050  -2.8957  -2.7347  -2.6490  -2.6351  -2.6190
    -2.6162  -2.5679  -2.5577  -2.4952  -2.4808  -2.4795  -2.4296  -2.4077
    -2.2793  -2.2708  -2.2512  -2.2298  -2.1264  -2.0877  -2.0617  -2.0539
    -2.0315  -1.9062  -1.8545  -1.8296  -1.8233  -1.8196  -1.7503  -1.7216
    -1.7024  -1.6671  -1.5926  -1.5765  -1.5727  -1.4929  -1.4594  -1.4514
    -1.4402  -1.4266  -1.3903  -1.3606  -1.3499  -1.3290  -1.3238  -1.3163
    -1.3087  -1.2878  -1.2658  -1.2059  -1.1780  -1.1717  -1.1472  -1.1342
    -1.1087  -1.0844  -0.9939  -0.9804  -0.9499  -0.9267  -0.8917  -0.8873
    -0.8579  -0.8524  -0.8189  -0.7140  -0.7005  -0.6899  -0.6559  -0.6054
    -0.5907  -0.4681  -0.4552  -0.4424  -0.3757  -0.3607  -0.3030  -0.2823
    -0.2644  -0.2453  -0.2375  -0.2252  -0.1839  -0.1531  -0.1484  -0.1333
    -0.1188  -0.0879  -0.0766  -0.0631  -0.0437   0.0266   0.0927   0.0997
     0.1327   0.1866   0.2485   0.2994   0.3023   0.3665   0.4071   0.4268
     0.4995   0.5567   0.5746   0.6132   0.6241   0.6412   0.6787   0.6966
     0.7441   0.7497   0.7934   0.8230   0.8367   0.9163   0.9279   0.9501
     0.9640   0.9843   1.0065   1.0972   1.1512   1.1657   1.2125   1.2554
     1.2588   1.2669   1.3429   1.3709   1.3793   1.4511   1.4562   1.4686
     1.5171   1.5338   1.5499   1.5753   1.6539   1.6660   1.6967   1.7152
     1.7314   1.7397   1.7472   1.7531   1.9242   1.9284   1.9468   1.9734
     1.9785   2.1316   2.1829   2.4288   2.5591   2.6157   2.7883   2.9993
     3.0106   3.3436   3.3764   3.4234   3.7279   3.8505   4.1527   4.2241
     4.2399   4.3951   4.4410   4.5347   4.5971   4.7496   4.8738   5.0858
     5.1954   5.5545   5.7306   6.0740   6.1718   6.5414   6.7101

          k = 0.4000-0.0000 0.0000 ( 88650 PWs)   bands (ev):

   -20.5252  -8.8438  -6.6288  -5.4596  -5.4093  -5.3761  -5.1868  -4.5438
    -4.3336  -4.3261  -4.3163  -4.2882  -4.2694  -4.2526  -4.2299  -4.1503
    -4.1405  -4.1125  -3.7870  -3.7628  -3.7470  -3.7209  -3.7145  -3.6621
    -3.6338  -3.5125  -3.4960  -3.4942  -3.4755  -3.4673  -3.3793  -3.3521
    -3.3249  -3.3190  -3.3168  -3.2546  -3.2275  -3.2169  -3.1793  -3.1383
    -3.0752  -2.8346  -2.7449  -2.7419  -2.7225  -2.6959  -2.6832  -2.6652
    -2.6597  -2.6147  -2.5800  -2.4616  -2.4466  -2.4341  -2.3508  -2.3215
    -2.2753  -2.2624  -2.2503  -2.1820  -2.1599  -2.0293  -1.9951  -1.9717
    -1.9257  -1.8995  -1.8787  -1.8624  -1.8333  -1.8036  -1.7816  -1.6584
    -1.6439  -1.6300  -1.6082  -1.5714  -1.5475  -1.5231  -1.4959  -1.4754
    -1.4517  -1.3688  -1.3484  -1.3177  -1.3088  -1.2946  -1.2858  -1.2786
    -1.2401  -1.2200  -1.2102  -1.1556  -1.1419  -1.1201  -1.0640  -1.0438
    -1.0350  -0.9910  -0.9743  -0.9404  -0.9304  -0.9229  -0.8996  -0.8809
    -0.8713  -0.8568  -0.8454  -0.8158  -0.8078  -0.7812  -0.7556  -0.6758
    -0.6384  -0.6235  -0.5754  -0.5521  -0.5422  -0.5097  -0.3531  -0.3434
    -0.2912  -0.2237  -0.2132  -0.1803  -0.1599  -0.1429  -0.1091  -0.0970
    -0.0895  -0.0643  -0.0358  -0.0027   0.0489   0.1335   0.1737   0.2117
     0.2348   0.2834   0.3052   0.3130   0.3577   0.3951   0.4543   0.4597
     0.4882   0.5367   0.5509   0.6196   0.6517   0.6776   0.6897   0.7148
     0.7525   0.7661   0.7853   0.7891   0.8045   0.8190   0.8344   0.8527
     0.9409   0.9958   1.0285   1.0648   1.1461   1.1673   1.2602   1.3321
     1.3467   1.3505   1.3889   1.4519   1.4750   1.4834   1.5038   1.5188
     1.5437   1.5529   1.5568   1.5736   1.6010   1.6274   1.6460   1.7008
     1.7347   1.7373   1.7715   1.7833   1.8255   1.9262   1.9858   2.0209
     2.0484   2.0771   2.0988   2.1026   2.2256   2.2371   2.5736   2.7392
     2.7709   3.1099   3.2613   3.3132   3.3431   3.6772   3.9756   4.0254
     4.1308   4.2359   4.2888   4.6697   4.9019   5.1014   5.4250   5.4670
     5.6692   5.7448   6.1603   6.1983   6.2385   6.2654   6.3217

          k = 0.4000 0.2309 0.0000 ( 88568 PWs)   bands (ev):

   -20.5252  -8.8436  -6.4922  -5.8616  -5.3453  -5.1590  -4.7907  -4.7841
    -4.6946  -4.4627  -4.3756  -4.2690  -4.1492  -4.1175  -4.0607  -4.0541
    -3.9040  -3.8721  -3.8606  -3.8291  -3.8117  -3.7688  -3.7114  -3.6727
    -3.6565  -3.6195  -3.6080  -3.5824  -3.5514  -3.4886  -3.4875  -3.4583
    -3.2271  -3.2246  -3.2194  -3.2102  -3.1910  -3.1886  -2.9794  -2.9649
    -2.9451  -2.9387  -2.9067  -2.8981  -2.7313  -2.6495  -2.6350  -2.6188
    -2.6165  -2.5687  -2.5562  -2.4960  -2.4828  -2.4797  -2.4294  -2.4061
    -2.2791  -2.2718  -2.2504  -2.2297  -2.1262  -2.0889  -2.0630  -2.0554
    -2.0304  -1.9058  -1.8523  -1.8276  -1.8229  -1.8202  -1.7491  -1.7221
    -1.7022  -1.6615  -1.5912  -1.5755  -1.5717  -1.4925  -1.4631  -1.4511
    -1.4399  -1.4267  -1.3899  -1.3615  -1.3498  -1.3291  -1.3232  -1.3151
    -1.3051  -1.2883  -1.2653  -1.2057  -1.1826  -1.1719  -1.1473  -1.1320
    -1.1119  -1.0849  -0.9942  -0.9784  -0.9433  -0.9277  -0.8928  -0.8885
    -0.8584  -0.8475  -0.8221  -0.7136  -0.6997  -0.6901  -0.6553  -0.6082
    -0.5895  -0.4745  -0.4562  -0.4502  -0.3767  -0.3724  -0.3002  -0.2865
    -0.2721  -0.2495  -0.2377  -0.2253  -0.1796  -0.1526  -0.1488  -0.1292
    -0.1119  -0.0831  -0.0802  -0.0592  -0.0477   0.0262   0.0941   0.0972
     0.1396   0.1885   0.2428   0.3013   0.3033   0.3623   0.4050   0.4311
     0.4991   0.5610   0.5867   0.6126   0.6201   0.6414   0.6749   0.6961
     0.7466   0.7496   0.7929   0.8245   0.8380   0.9154   0.9271   0.9497
     0.9650   0.9848   1.0117   1.0840   1.1547   1.1665   1.2149   1.2571
     1.2642   1.2676   1.3454   1.3711   1.3793   1.4459   1.4554   1.4682
     1.5159   1.5348   1.5508   1.5759   1.6536   1.6663   1.6965   1.7152
     1.7315   1.7456   1.7470   1.7529   1.9243   1.9272   1.9461   1.9732
     1.9783   2.1319   2.1829   2.4114   2.5681   2.6061   2.8028   2.9974
     3.0125   3.3450   3.3894   3.4220   3.7151   3.8347   4.1240   4.2270
     4.2318   4.4320   4.4453   4.5102   4.6029   4.7352   4.8765   5.1101
     5.2202   5.5810   5.7253   6.0597   6.1927   6.5459   6.7091

          k = 0.4000-0.6928 0.0000 ( 88524 PWs)   bands (ev):

   -20.5252  -8.8434  -6.1032  -6.0900  -5.5017  -5.2748  -4.8632  -4.8554
    -4.4789  -4.3302  -4.2529  -4.1894  -4.1427  -4.0425  -4.0283  -3.9393
    -3.9275  -3.8462  -3.8184  -3.8142  -3.7871  -3.7786  -3.7554  -3.7480
    -3.6913  -3.6156  -3.6018  -3.5834  -3.5466  -3.5272  -3.4750  -3.3819
    -3.3480  -3.2999  -3.2083  -3.1963  -3.1895  -3.1713  -3.1355  -3.0669
    -3.0571  -2.9630  -2.9241  -2.7714  -2.7608  -2.7104  -2.6288  -2.6180
    -2.5678  -2.5535  -2.4481  -2.4014  -2.3741  -2.3566  -2.3361  -2.2852
    -2.2845  -2.2577  -2.1656  -2.1557  -2.1309  -2.1223  -2.1106  -2.1034
    -2.0996  -2.0543  -2.0101  -1.9234  -1.8938  -1.8497  -1.8296  -1.7420
    -1.7178  -1.6942  -1.6809  -1.6452  -1.6243  -1.6092  -1.5816  -1.5058
    -1.4944  -1.4794  -1.4485  -1.4359  -1.4016  -1.3516  -1.3147  -1.2817
    -1.2679  -1.2513  -1.2355  -1.1480  -1.0947  -1.0775  -1.0617  -1.0507
    -1.0181  -1.0099  -0.9961  -0.9740  -0.9567  -0.9474  -0.9177  -0.8967
    -0.8759  -0.8562  -0.8520  -0.8369  -0.8249  -0.8198  -0.7970  -0.7609
    -0.7367  -0.7072  -0.5416  -0.5161  -0.4352  -0.4224  -0.3551  -0.3445
    -0.3242  -0.2957  -0.2677  -0.2463  -0.2139  -0.1901  -0.1688  -0.1116
    -0.0918  -0.0740  -0.0401  -0.0178   0.0468   0.0686   0.1112   0.1217
     0.2393   0.2726   0.3015   0.3424   0.3553   0.4007   0.4120   0.4424
     0.4708   0.4886   0.5028   0.5385   0.5465   0.5766   0.6253   0.6472
     0.6917   0.7143   0.7355   0.7548   0.7672   0.7837   0.8837   0.9114
     0.9818   1.0252   1.0923   1.1373   1.1805   1.1910   1.2530   1.3099
     1.3135   1.3532   1.4117   1.4595   1.4901   1.5070   1.5341   1.5398
     1.5587   1.5960   1.6116   1.6877   1.6916   1.7119   1.7257   1.7489
     1.7540   1.7749   1.8222   1.9212   1.9369   1.9634   1.9724   1.9824
     2.0361   2.0779   2.1548   2.2791   2.9763   3.1121   3.1213   3.2906
     3.3920   3.4478   3.4939   3.5094   3.7537   4.0791   4.1275   4.2725
     4.3218   4.6036   4.6787   4.7172   4.7656   4.8792   4.9962   5.1043
     5.2629   5.3299   5.5361   5.6562   5.7413   6.1797   6.2326

          k = 0.4000-0.4619 0.0000 ( 88524 PWs)   bands (ev):

   -20.5252  -8.8435  -6.1040  -6.0892  -5.5017  -5.2759  -4.8635  -4.8512
    -4.4840  -4.3294  -4.2521  -4.1870  -4.1428  -4.0437  -4.0272  -3.9432
    -3.9296  -3.8382  -3.8192  -3.8115  -3.7851  -3.7764  -3.7578  -3.7471
    -3.7017  -3.6168  -3.6014  -3.5801  -3.5487  -3.5248  -3.4768  -3.3842
    -3.3477  -3.2987  -3.2080  -3.1963  -3.1894  -3.1702  -3.1349  -3.0679
    -3.0542  -2.9636  -2.9233  -2.7711  -2.7609  -2.7128  -2.6278  -2.6174
    -2.5685  -2.5527  -2.4479  -2.4013  -2.3747  -2.3575  -2.3361  -2.2849
    -2.2829  -2.2570  -2.1649  -2.1556  -2.1310  -2.1215  -2.1102  -2.1038
    -2.1002  -2.0560  -2.0094  -1.9257  -1.8939  -1.8500  -1.8311  -1.7426
    -1.7173  -1.6950  -1.6805  -1.6507  -1.6261  -1.6107  -1.5805  -1.5045
    -1.4946  -1.4784  -1.4502  -1.4356  -1.4000  -1.3491  -1.3149  -1.2808
    -1.2673  -1.2495  -1.2367  -1.1493  -1.0932  -1.0784  -1.0590  -1.0511
    -1.0197  -1.0084  -0.9974  -0.9732  -0.9562  -0.9452  -0.9177  -0.8986
    -0.8684  -0.8612  -0.8537  -0.8381  -0.8231  -0.8177  -0.7958  -0.7644
    -0.7360  -0.7159  -0.5485  -0.5154  -0.4335  -0.4224  -0.3479  -0.3375
    -0.3205  -0.2909  -0.2678  -0.2502  -0.2134  -0.1892  -0.1674  -0.1123
    -0.0883  -0.0738  -0.0407  -0.0207   0.0463   0.0681   0.1107   0.1321
     0.2478   0.2613   0.3015   0.3375   0.3537   0.3919   0.4231   0.4389
     0.4716   0.4876   0.4979   0.5321   0.5431   0.5761   0.6266   0.6475
     0.6968   0.7153   0.7359   0.7514   0.7666   0.7815   0.8816   0.9122
     0.9917   1.0205   1.0925   1.1398   1.1815   1.1915   1.2566   1.3087
     1.3138   1.3494   1.4142   1.4609   1.4898   1.5073   1.5328   1.5389
     1.5583   1.5926   1.6102   1.6882   1.6912   1.7119   1.7252   1.7486
     1.7529   1.7721   1.8216   1.9217   1.9383   1.9641   1.9726   1.9823
     2.0350   2.0849   2.1546   2.2756   2.9691   3.1132   3.1213   3.2958
     3.3711   3.4667   3.4952   3.5096   3.7630   4.0817   4.1226   4.2770
     4.3601   4.6029   4.6557   4.7186   4.7685   4.8975   4.9935   5.0975
     5.1708   5.3532   5.5446   5.6086   5.7879   6.1930   6.2239

     the Fermi energy is     1.7369 ev

!    total energy              =  -27816.98063681 Ry

     total all-electron energy =  -1326870.357046 Ry
     estimated scf accuracy    <       0.00000048 Ry
     smearing contrib. (-TS)   =       0.00232036 Ry
     internal energy E=F+TS    =  -27816.98295717 Ry

     The total energy is F=E-TS. E is the sum of the following terms:
     one-electron contribution =  -26560.32732128 Ry
     hartree contribution      =   13581.37642071 Ry
     xc contribution           =    -903.13825844 Ry
     ewald contribution        =   11555.76063791 Ry
     one-center paw contrib.   =  -25490.65443608 Ry

     convergence has been achieved in  18 iterations

     negative rho (up, down):  1.292E-02 0.000E+00

     Forces acting on atoms (cartesian axes, Ry/au):

     atom    1 type  1   force =    -0.00010287   -0.00024590   -0.00742468
     atom    2 type  1   force =    -0.00041703   -0.00007289   -0.00327711
     atom    3 type  1   force =     0.00047861   -0.00000333   -0.00331145
     atom    4 type  1   force =    -0.00034054   -0.00054987   -0.00332998
     atom    5 type  1   force =     0.00002563   -0.00011051   -0.00310858
     atom    6 type  1   force =     0.00034814   -0.00064204   -0.00343581
     atom    7 type  1   force =     0.00034420    0.00040959   -0.00332343
     atom    8 type  1   force =    -0.00026695    0.00046083   -0.00328006
     atom    9 type  1   force =    -0.00000973   -0.00007571   -0.00313264
     atom   10 type  1   force =    -0.00010139    0.00024038   -0.00040434
     atom   11 type  1   force =    -0.00014176    0.00235244    0.01037828
     atom   12 type  1   force =     0.00014551    0.00024272   -0.00042334
     atom   13 type  1   force =     0.00167687   -0.00113867    0.01014324
     atom   14 type  1   force =    -0.00176479   -0.00097149    0.01005368
     atom   15 type  1   force =    -0.00002175    0.00026707    0.00286218
     atom   16 type  1   force =     0.00020418   -0.00016346   -0.00148258
     atom   17 type  1   force =     0.00010648   -0.00001169    0.00206665
     atom   18 type  1   force =    -0.00038452   -0.00006072    0.00199256
     atom   19 type  1   force =     0.00008069    0.00007519    0.00024826
     atom   20 type  1   force =    -0.00004006   -0.00008143   -0.00041709
     atom   21 type  1   force =     0.00005330   -0.00013218   -0.00045870
     atom   22 type  1   force =    -0.00000013   -0.00006440    0.00020012
     atom   23 type  1   force =     0.00000296   -0.00005780   -0.00069076
     atom   24 type  1   force =     0.00012916    0.00002229    0.00016090
     atom   25 type  1   force =    -0.00008550   -0.00011641    0.00026106
     atom   26 type  1   force =     0.00014327   -0.00012846    0.00030707
     atom   27 type  1   force =     0.00006652   -0.00007558    0.00012479
     atom   28 type  1   force =     0.00007325   -0.00015501   -0.00015610
     atom   29 type  1   force =     0.00008388   -0.00010727    0.00007159
     atom   30 type  1   force =    -0.00003063   -0.00011822    0.00011447
     atom   31 type  1   force =    -0.00009564   -0.00022700    0.00018873
     atom   32 type  1   force =    -0.00004628    0.00039037    0.00002447
     atom   33 type  1   force =     0.00004657   -0.00018319    0.00020142
     atom   34 type  1   force =     0.00006911    0.00000150    0.00001367
     atom   35 type  1   force =    -0.00000069   -0.00010238    0.00004847
     atom   36 type  1   force =     0.00007625   -0.00015049    0.00002804
     atom   37 type  2   force =    -0.00058829    0.00200348   -0.00143744
     atom   38 type  3   force =     0.00026155   -0.00032164   -0.00041252
     atom   39 type  4   force =     0.00002243   -0.00039812    0.00001696

     Total force =     0.002951     Total SCF correction =     0.001399
     SCF correction compared to forces is large: reduce conv_thr to get better values

     negative rho (up, down):  1.292E-02 0.000E+00

     negative rho (up, down):  1.292E-02 0.000E+00

     negative rho (up, down):  1.292E-02 0.000E+00

     negative rho (up, down):  1.292E-02 0.000E+00

     negative rho (up, down):  1.292E-02 0.000E+00

     negative rho (up, down):  1.292E-02 0.000E+00

     negative rho (up, down):  1.292E-02 0.000E+00

     negative rho (up, down):  1.292E-02 0.000E+00

     negative rho (up, down):  1.292E-02 0.000E+00

     negative rho (up, down):  1.292E-02 0.000E+00

     negative rho (up, down):  1.292E-02 0.000E+00

     negative rho (up, down):  1.292E-02 0.000E+00

     negative rho (up, down):  1.292E-02 0.000E+00

     negative rho (up, down):  1.292E-02 0.000E+00

     negative rho (up, down):  1.292E-02 0.000E+00

     negative rho (up, down):  1.292E-02 0.000E+00

     negative rho (up, down):  1.292E-02 0.000E+00

     negative rho (up, down):  1.292E-02 0.000E+00

     negative rho (up, down):  1.292E-02 0.000E+00

     negative rho (up, down):  1.292E-02 0.000E+00

     negative rho (up, down):  1.292E-02 0.000E+00

     negative rho (up, down):  1.292E-02 0.000E+00

     negative rho (up, down):  1.292E-02 0.000E+00

     negative rho (up, down):  1.292E-02 0.000E+00

     negative rho (up, down):  1.292E-02 0.000E+00

     negative rho (up, down):  1.292E-02 0.000E+00

     negative rho (up, down):  1.292E-02 0.000E+00

     negative rho (up, down):  1.292E-02 0.000E+00

     negative rho (up, down):  1.292E-02 0.000E+00

     negative rho (up, down):  1.292E-02 0.000E+00

     negative rho (up, down):  1.292E-02 0.000E+00

     negative rho (up, down):  1.292E-02 0.000E+00

     negative rho (up, down):  1.292E-02 0.000E+00

     negative rho (up, down):  1.292E-02 0.000E+00
 BEEFens 2000 ensemble energies
             -0.604134784148858E+02
             -0.360266999262180E+01
             -0.157859882842817E+02
              0.427766692391849E+02
             -0.220481319243837E+02
             -0.204802839828411E+02
             -0.350296975394560E+02
             -0.861088294469198E+02
             -0.464131223534049E+02
             -0.471698711526160E+02
             -0.367839253345999E+02
              0.224513597048263E+01
              0.404195629481262E+01
              0.767741261515036E+01
              0.263920807725762E+01
              0.473090281525792E+02
             -0.208184176161919E+02
             -0.230111166419134E+02
              0.191795126048853E+02
             -0.111973948478574E+03
              0.534146102704929E+02
             -0.289293308001156E+02
             -0.331817257093870E+01
             -0.113942155035280E+02
             -0.886497258087957E+01
             -0.462232946715326E+01
              0.879500347204370E+02
             -0.185965169347780E+02
             -0.897567894366966E+01
             -0.516021444334266E+02
              0.813253606156657E+02
             -0.187487393571195E+02
             -0.373287156765020E+02
              0.248743219262596E+02
             -0.283920322246422E+01
              0.162590189585466E+02
             -0.488049967979197E+01
              0.108403467033128E+02
              0.286499930104721E+02
             -0.102907337292279E+03
              0.556396690191141E+02
              0.141874737220579E+02
             -0.165001937966900E+01
             -0.360480356529083E+02
              0.122707823416723E+02
             -0.146100357560418E+02
              0.396232900435106E+02
              0.363583447352496E+02
             -0.307708156044682E+02
             -0.273741544834662E+02
             -0.327103635064518E+02
             -0.350669368598122E+02
              0.135220717712894E+02
             -0.488784655211372E+02
              0.114892872003521E+02
              0.620761767097088E+02
              0.632166495410585E+02
              0.354851704276882E+02
              0.153527809914897E+02
              0.269130247351766E+02
              0.888029658174053E+02
              0.212199597234385E+02
             -0.546506823831288E+02
             -0.156907656922393E+02
             -0.234698132005300E+02
              0.627374971717436E+02
             -0.770977373223975E+02
             -0.669691305467536E+02
             -0.258007176720309E+02
             -0.637387719381229E+01
             -0.469471016760763E+02
              0.269675887558617E+02
              0.795501334208586E+01
              0.859954107119097E+01
             -0.395869515409772E+02
             -0.345465148866049E+02
             -0.539463166617061E+02
              0.389368043452563E+02
             -0.294604895008868E+02
              0.263913012790462E+02
             -0.712104852179543E+01
             -0.317041437035563E+02
             -0.574604706303285E+02
             -0.176043870910661E+02
             -0.896598487579820E+01
             -0.124188680374423E+02
              0.410869540763999E+02
              0.679556130989548E+02
             -0.383714730422021E+02
             -0.791615475395911E+02
             -0.218972854154545E+02
              0.111105742274568E+03
             -0.590426551445534E+02
              0.355009008704809E+02
             -0.951229372051625E+01
             -0.661158872376042E+02
              0.253363948894419E+02
              0.397154867475838E+02
             -0.198242978535006E+02
              0.399385940227173E+02
             -0.295138058164182E+02
             -0.475500563996166E+02
              0.861642148427889E+02
              0.452121457169562E+02
              0.336082704988061E+02
              0.145885637529723E+02
              0.204564651207742E+02
              0.853454463851069E+02
             -0.255764728199807E+02
              0.787929239023961E+01
             -0.141880485400291E+03
              0.180604879714480E+02
             -0.713779875166430E+02
              0.150602563444209E+02
              0.203793869445353E+02
             -0.331294432542178E+02
             -0.555477131052191E+02
              0.653572587513497E+01
             -0.302968624287195E+02
              0.305853130549339E+02
             -0.528243140130089E+02
              0.176955452177754E+01
             -0.355423494897520E+02
             -0.421889658247920E+01
             -0.108748303598620E+01
              0.180062341429785E+02
              0.143209351740097E+01
             -0.650162071062925E+01
              0.587660199826483E+02
              0.904756660657177E+02
              0.482172416046164E+02
              0.828343518130815E+02
             -0.114685402920636E+02
              0.142792917755451E+02
              0.539290837248967E+02
             -0.111516410777409E+02
             -0.732994309837001E+02
             -0.382334433924623E+02
             -0.520035409655983E+02
             -0.275614677633666E+02
              0.326364522398663E+02
             -0.116300585488410E+03
             -0.186889975625681E+02
              0.412073899967980E+02
             -0.384679259316627E+02
             -0.364543588780681E+02
              0.541676072202602E+02
              0.398746238919198E+02
             -0.353167024992553E+02
              0.135942912829377E+02
             -0.272331627451044E+02
              0.341688703676636E+02
              0.442528317055849E+01
              0.210924141618744E+02
             -0.881904189229989E+02
             -0.478431978375546E+02
             -0.993503085983548E+01
              0.323030109252323E+01
             -0.364981726949075E+02
              0.105579372214009E+03
             -0.230778411915452E+02
             -0.397971281390864E+02
              0.387288175120289E+02
             -0.492575065598086E+02
             -0.361687435555828E+02
              0.323469626797738E+02
              0.123892249459514E+02
              0.164272847514278E+02
              0.115703846716933E+02
             -0.132428111563353E+02
              0.225116240361405E+02
              0.587895569655562E+02
             -0.310718090974854E+02
              0.161380638604442E+02
              0.931189449644613E+02
              0.339554855607796E+02
             -0.728198971539121E+01
             -0.187692367838666E+02
              0.152741654857637E+03
             -0.162884681803455E+02
              0.361713429550707E+02
              0.192976831245159E+02
              0.360755750367974E+02
              0.888347681943804E+02
              0.541199830172847E+02
             -0.236495021259016E+01
              0.226608690546091E+02
              0.482693309173051E+02
              0.361982463081011E+02
             -0.523061630581780E+02
              0.932392779537277E+02
             -0.822476718688258E+02
             -0.197909053366910E+02
              0.580681978691343E+02
              0.666223018759229E+01
              0.785754516743236E+01
              0.339964937386796E+02
              0.298858089012629E+02
              0.352438426740910E+02
             -0.635144545209344E+02
              0.285819342299055E+01
             -0.296789826117114E+02
             -0.868173998627920E+01
             -0.143859586126632E+01
             -0.716621812361687E+01
             -0.412485198322537E+01
              0.856278087543199E+02
             -0.100974023092128E+02
             -0.275313210091257E+02
             -0.496972474847366E+01
              0.139276111445035E+02
             -0.561293132250485E+02
             -0.404750890148824E+02
             -0.380776990787552E+02
             -0.627805803930659E+02
             -0.168788355027981E+02
             -0.445918842863543E+02
              0.162716162373974E+02
             -0.241737321641099E+01
             -0.103891350165082E+02
             -0.931228274593977E+01
              0.806599311194526E+01
             -0.242590622481691E+02
              0.686911224668367E+02
             -0.803664878559711E+02
             -0.140578206605874E+02
             -0.173617377379089E+02
              0.181493653061064E+02
              0.213461196251489E+02
             -0.461610920700709E+02
             -0.201498453713292E+02
              0.439159927801542E+02
             -0.275625265936550E+02
              0.186535638676189E+02
              0.381766354431056E+02
             -0.322139575609572E+01
              0.113687908947018E+03
             -0.229839429312104E+02
             -0.339683295195083E+02
              0.579664876818350E+01
             -0.227055308615457E+02
              0.525306200978722E+02
             -0.335054621345469E+02
              0.105828028141177E+02
              0.638918859962025E+02
             -0.125899895578185E+02
              0.119790275082468E+03
              0.125382382556146E+03
             -0.647125471057982E+02
              0.588363225826664E+02
              0.165312609678735E+02
             -0.515494287201795E+02
              0.215539444823625E+02
              0.352065755903037E+02
              0.360635846093800E+02
              0.132702635979604E+01
              0.158867306398171E+02
              0.692856001024297E+02
             -0.246028001022810E+02
              0.181160528771703E+02
              0.736630199225888E+02
             -0.371194478072564E+02
             -0.128523156677495E+02
              0.506115114934751E+02
              0.296156046750933E+02
              0.777212559632876E+02
              0.221185600303755E+02
              0.618323185684994E+01
              0.279395127460747E+02
              0.381587912514865E+02
             -0.469632393785870E+02
              0.327128124936490E+01
              0.128442726495120E+02
              0.113219659135837E+02
              0.219564633938735E+02
             -0.572473059934223E+02
              0.364878705058898E+02
             -0.442215168802736E+02
             -0.346273078144460E+02
              0.177195173481673E+02
             -0.181297362961796E+02
              0.552503900384530E+02
             -0.255900453017586E+02
              0.265529311535157E+02
              0.367015533446580E+02
              0.826288409779035E+02
              0.572828814888465E+02
              0.459811352159791E+02
             -0.105739801563530E+02
             -0.384518912095086E+01
             -0.331136684163681E+02
              0.747299899085203E+02
              0.793860707758824E+02
              0.360237421840298E+02
             -0.190723219618716E+02
              0.509927351115139E+02
             -0.163148476110742E+02
              0.214369682719735E+02
              0.611627642962206E+02
              0.214979634762167E+01
             -0.104003835038393E+02
             -0.282324924986104E+02
             -0.509098312822505E+02
              0.941668107865928E+02
              0.437603438941544E+02
             -0.556321040716651E+02
             -0.952331977655260E+01
              0.248933807481218E+02
             -0.993400261612317E+01
              0.589410428943340E+02
              0.151473183266344E+02
              0.795900145667604E+02
              0.278247724889707E+02
             -0.263115693512095E+02
              0.248312155701912E+02
             -0.498111663896924E+01
             -0.322805903891291E+02
              0.132472250780371E+02
              0.205144096814267E+02
              0.929373837225955E+02
              0.794505617746146E+02
              0.548738162680738E+02
              0.728288926076477E+02
              0.798870548897483E+01
             -0.272871884695051E+02
              0.162639052155524E+02
             -0.366716895538361E+02
             -0.473970440901635E+02
             -0.561471394434534E+02
             -0.265186079676556E+02
             -0.109292432764657E+03
             -0.289799026720138E+02
             -0.833986337605791E+02
              0.209238043133440E+02
             -0.475418081939266E+02
              0.394584221201972E+02
             -0.937471098672760E+02
             -0.328964226665152E+02
              0.547350311115604E+02
              0.206786042082025E+02
             -0.826959728127760E+02
              0.629158241684595E+02
             -0.255642984278319E+02
              0.510252792603636E+02
             -0.241525531108595E+02
             -0.748302313721615E+02
              0.111101216748815E+02
             -0.608649132134414E+02
             -0.168394813466704E+02
             -0.148033243788071E+01
              0.416704772578493E+02
              0.126523804689802E+03
             -0.460154225083938E+02
             -0.361010409825788E+02
             -0.940110015026335E+00
             -0.130262692238450E+02
             -0.819473122727166E+02
             -0.594702702276447E+02
              0.515380474772544E+02
             -0.288514180482385E+02
              0.168157213004894E+02
             -0.487462995431707E+02
             -0.131136158943332E+02
             -0.435616106100036E+02
              0.563794882967792E+02
              0.150618707342891E+02
             -0.230705541480177E+02
             -0.126113131781904E+02
              0.661452892370968E+01
             -0.617009879353935E+01
              0.440063104722014E+02
             -0.250992495717653E+02
              0.271435316478414E+01
              0.338141381800233E+02
              0.170883447140741E+02
             -0.158762651147655E+02
              0.155678630308500E+03
              0.535652096818871E+02
              0.110657020941898E+01
              0.161340590606477E+02
             -0.612603806310341E+02
              0.313601900664469E+02
             -0.718564444626984E+02
             -0.250506752273952E+02
             -0.520330509842715E+02
             -0.219411179900304E+02
              0.566849409462183E+02
             -0.534812803440015E+02
              0.159632353417204E+02
             -0.407274842427796E+01
              0.386889847441691E+01
             -0.432863308676577E+02
             -0.476778486181744E+02
             -0.397768517806617E+01
             -0.423983746076260E+02
             -0.216271298939548E+02
             -0.436946157854840E+02
             -0.119177088093503E+02
             -0.357837400143018E+02
             -0.514752035594251E+02
              0.212112820376947E+02
             -0.208931347849055E+02
              0.186776479639024E+02
              0.973063301514198E+01
             -0.735086968203656E+02
             -0.546263802604837E+02
             -0.396042593325309E+02
              0.353134957369105E+02
              0.275405640428528E+01
             -0.624361199176898E+02
              0.583638994892498E+02
             -0.399516247452290E+02
              0.542423367864970E+02
             -0.288392531811232E+02
             -0.444089321149029E+02
              0.297544147366377E+02
             -0.654740979831214E+02
             -0.379041450422436E+02
              0.670762393363687E+02
              0.203303914989961E+02
             -0.358364491202491E+02
              0.487393810455061E+02
             -0.173466577827130E+02
             -0.321463641702610E+02
             -0.300739060681188E+02
             -0.498633309069353E+02
              0.248399327154566E+02
             -0.929925958983749E+02
             -0.837603090548732E+02
             -0.730992250470320E+01
             -0.305662893006455E+02
             -0.573269937971396E+02
              0.718762979580812E+02
              0.130987404890422E+03
             -0.360496620478812E+02
             -0.252913218252502E+01
             -0.635035678406393E+02
              0.647939764198424E+02
              0.169837939499278E+02
             -0.180882913054993E+02
             -0.408742186691146E+02
              0.148062804561592E+02
             -0.583860942947455E+02
             -0.197602187781927E+02
             -0.901514723500638E+02
              0.335660630013322E+02
              0.168692591144437E+02
              0.188595897248206E+01
             -0.700285922380419E+01
             -0.327902851325764E+02
             -0.752780374436327E+01
              0.124995957226853E+03
             -0.198391328811227E+02
             -0.435618090293128E+02
             -0.681226529637020E+02
              0.108720878020137E+02
             -0.340631876596187E+02
              0.586153047750551E+01
              0.260117688580967E+02
              0.102048660205184E+02
              0.276437182257186E+02
              0.119120065911762E+02
              0.627434289521412E+02
              0.315983757668795E+02
             -0.325107922215714E+02
              0.353136266390724E+02
              0.378237761277328E+02
              0.120348661672957E+02
              0.485975456302874E+02
             -0.223330258678311E+02
              0.763052402129081E+02
              0.171057453998554E+02
             -0.270702761671755E+02
             -0.722748383267633E+01
             -0.185836583486329E+02
              0.261476125932011E+02
             -0.233464907690564E+02
             -0.552534378544465E-01
             -0.844209022070231E+01
              0.806568325481838E+02
              0.497775714698013E+02
             -0.684755775719869E+02
             -0.472310217557026E+01
             -0.553656609822343E+02
             -0.159022388220004E+02
             -0.267635101164065E+02
              0.370529780142920E+01
              0.611942964320431E+00
             -0.256499728085393E+02
              0.805202193392279E+01
             -0.598715684727307E+01
             -0.128452110799336E+02
              0.855550904920965E+02
              0.181352372896502E+02
             -0.803796168864601E+02
             -0.457227279420728E+02
              0.941191003343579E+02
              0.277010031019636E+02
             -0.106503994900081E+02
              0.104143198195285E+03
             -0.194218147884420E+02
             -0.122822947080595E+02
             -0.533783839547220E+01
              0.106794162714455E+02
              0.271056123217588E+02
              0.780367805733007E+01
              0.304258665908459E+02
             -0.187638461875331E+02
             -0.302072921943788E+02
             -0.416516098185684E+02
             -0.475126439895225E+02
              0.462714728980207E+02
              0.126230278996313E+02
              0.386238814602582E+02
              0.132916315119837E+02
              0.852144985220910E+02
              0.155488658904747E+02
             -0.843237650514901E+02
             -0.333251419716956E+02
              0.133854189532875E+02
             -0.301755010800160E+02
              0.624082407467552E+02
             -0.879371116888296E+01
              0.148041417376242E+02
              0.494925230574439E+02
             -0.704065848672395E+02
              0.149182403235622E+03
              0.207987827008133E+02
              0.270364869141653E+02
              0.346136659030964E+02
              0.103789890383014E+02
             -0.155696727865092E+01
              0.357267417099810E+02
             -0.355929547824775E+02
              0.769870405663706E+02
              0.681888672425363E+02
             -0.404607985342861E+02
              0.148962572483833E+02
              0.667346403493589E+02
             -0.223072647463730E+02
              0.153428276215914E+02
              0.434138953219308E+02
              0.420720721806770E+02
             -0.782149412788837E+02
             -0.152733987674420E+02
             -0.355320098084461E+02
             -0.146759981389886E+01
             -0.763600840346886E+01
             -0.548550075522496E+01
             -0.180398537925299E+02
             -0.292701639722161E+02
              0.625803248139535E+01
              0.111648685882684E+02
              0.533691657499431E+02
             -0.388447211511067E+02
              0.372497725563940E+02
              0.436603045172886E+02
             -0.186451034003023E+02
              0.869746324671439E+02
             -0.695339814864154E+02
             -0.102800120722121E+03
             -0.655199187167541E+01
             -0.266757945052950E+01
              0.387022179624728E+01
              0.786595064653117E+02
             -0.107210300643873E+02
              0.415017104837507E+02
              0.441157624288987E+02
              0.383833262938971E+02
             -0.992767132893823E+01
              0.625418749133738E+02
             -0.132990916237801E+02
             -0.305799372711158E+02
             -0.478480294569132E+02
              0.581781448188096E+01
              0.368381418248332E+02
             -0.602959295804089E+01
              0.391871620423869E+02
             -0.176126760457140E+01
              0.653284704511501E+02
              0.186811377997300E+02
              0.995406210878021E+01
             -0.122078800988111E+02
              0.331180326729983E+02
              0.360899570984249E+02
              0.232291056552845E+02
             -0.487908803584020E+00
             -0.548466745313759E+02
              0.259551132086224E+02
              0.174354089938552E+02
              0.401550379998306E+02
              0.271103895207203E+02
              0.370993084889814E+02
             -0.598421851832813E+01
              0.249634654327253E+02
             -0.297431411542657E+02
             -0.197568402466186E+01
             -0.567387463889301E+02
             -0.306439284140158E+02
              0.377064964081201E+02
             -0.932489223231843E+02
              0.293687982649196E+02
              0.183654419179237E+02
              0.837020224684581E+02
             -0.300337784153332E+02
              0.328233169882358E+02
             -0.137323159689860E+02
             -0.462043360531807E+02
             -0.759321739734362E+02
             -0.518903346794804E+01
             -0.856595953979281E+02
              0.199675938843734E+02
             -0.246797353427967E+02
              0.304481534989364E+02
              0.236003317386010E+02
             -0.240020439495561E+02
             -0.264264230378478E+02
              0.389255078138909E+02
             -0.586189157196095E+02
             -0.116237106341358E+02
             -0.195565686769124E+02
              0.211574381200291E+02
             -0.895746339846136E+01
              0.361345719623978E+01
             -0.200233665478291E+02
              0.556856325493490E+02
             -0.437076715364011E+02
              0.787086496225584E+01
              0.583270606298545E+02
             -0.321880445891170E+02
              0.358872461465882E+01
             -0.884321500673786E+01
             -0.667173014972070E+02
             -0.481396186843292E+02
             -0.861886055853164E+01
              0.239525783532252E+02
              0.300934079447105E+02
              0.859172444848821E+01
             -0.408338482007059E+01
              0.151374307893680E+02
             -0.438515832546201E+02
              0.335698825556341E+01
             -0.529147248463445E+02
             -0.323844063275620E+02
              0.472770288959205E+02
             -0.293998588286366E+02
              0.619720577459721E+02
             -0.213859919634847E+02
              0.352471660915329E+02
              0.240872697072638E+02
             -0.641911173981348E+02
             -0.279566219518059E+02
              0.927608169289678E+01
             -0.370135013039502E+02
             -0.337976654467186E+02
             -0.826473743994086E+02
             -0.537333393608588E+02
             -0.508704488931324E+02
             -0.413781119829072E+02
             -0.979612639154936E+00
              0.983665337920255E+01
              0.978221859377129E+00
              0.151985751508005E+02
             -0.547164703244599E+02
              0.141430543995442E+02
              0.255671318397788E+02
             -0.664185354994846E+02
             -0.700049639351781E+02
             -0.429943244840676E+02
             -0.170563130680613E+02
              0.178099619199161E+02
              0.458431392355237E+01
             -0.424304955216164E+02
              0.365414087861445E+02
             -0.215162817588098E+02
              0.515494542645759E+02
             -0.883910202639879E+02
              0.595211706152209E+02
             -0.206070496973793E+01
             -0.366829374532482E+02
             -0.215212131349786E+02
              0.471864144287716E+01
              0.372527128370597E+02
             -0.753903274449220E+02
             -0.120269348500238E+02
             -0.216205486668751E+02
              0.509816735595375E+02
              0.861915899424572E+02
             -0.961534118582804E+02
              0.940647492335866E+02
              0.466351819568078E+02
             -0.722562336063068E+02
             -0.365559198461835E+02
              0.748944100603955E+02
              0.629976519722505E+02
             -0.180449517534753E+02
             -0.459846141391722E+01
              0.724030067081488E+01
              0.646016100184775E+02
             -0.506067529390235E+02
              0.158093839194352E+02
             -0.468955438645102E+01
              0.346897846055158E+02
             -0.744518209119181E+02
             -0.648442891192515E+01
             -0.350288773397972E+02
              0.458816675892210E+02
              0.467353133311805E+02
             -0.858552910480320E+02
             -0.485416883206267E+02
             -0.255520788534407E+02
             -0.337606812299505E+02
             -0.108893188767289E+02
             -0.242227081910966E+02
              0.425680078900045E+02
              0.399374289246541E+02
             -0.565851057786966E+01
             -0.414654510110763E+02
             -0.847294244439634E+02
              0.441038250564882E+02
             -0.521667066844032E+02
             -0.311483988791449E+02
              0.543531767698158E+01
             -0.321165815851058E+02
             -0.396463519544707E+02
             -0.238991680321736E+02
             -0.383461581859267E+02
             -0.269883914823866E+02
             -0.480693972563711E+02
              0.561973042224192E+02
              0.636123237842946E+02
             -0.165116845519844E+01
             -0.260544387725364E+02
             -0.629285243174911E+01
              0.439725589950134E+02
             -0.864913225761035E+02
             -0.145383710370970E+02
              0.521830237127772E+02
              0.661048886638434E+02
             -0.244353581329933E+02
              0.911083872008908E+01
              0.521770455685439E+02
              0.197687140066710E+02
             -0.829033570491282E+01
             -0.451903133191325E+02
              0.280256236017892E+02
             -0.351433411721667E+02
             -0.164766634438263E+02
             -0.152050610489600E+02
             -0.199814087381461E+02
              0.193867541115532E+02
              0.797359974189677E+02
              0.191623959555594E+01
              0.533675166379942E+01
[...]
              0.282775776869303E+02
              0.141293236585883E+03
              0.241085787443766E+02
              0.121801522240280E+02
             -0.462522506181771E+02
             -0.635658401643564E+02
             -0.188661027184747E+02
              0.328668910972909E+02
             -0.425499336766666E+01
              0.188997247586471E+02
              0.334796522314383E+02
             -0.583996739452870E+02
              0.221394380586328E+02
              0.581068893154247E+02
              0.550696384665174E+02
             -0.414155410959302E+01
             -0.140814770855798E+01
             -0.991497889570095E+01
             -0.480768157973983E+02
             -0.671931779031768E+02
              0.782660225899060E+02
             -0.517656886135055E+01
             -0.585957290464747E+02
              0.166018616542075E+01
             -0.203954185646279E+02
              0.935302291820973E+02
             -0.215642989621589E+02
             -0.351985048428272E+02
              0.333726667256619E+02
             -0.145116794408218E+02
              0.387680171922605E+02
             -0.239041841610521E+01
              0.100734940108147E+03
              0.487381577850519E+02
             -0.518596152818954E+01
             -0.320303953166967E+02
              0.231078008804276E+02
             -0.526413679757466E+02
             -0.127840969956438E+02
              0.583147170645653E+02
             -0.286764806046830E+02
             -0.436673884351795E+02
             -0.222219237983066E+02
              0.516627170478966E+02
              0.124328772181160E+02
             -0.845691928833897E+02
              0.302553885327192E+02
              0.152158365774548E+02
              0.572194324322993E+01
             -0.511625255055850E+02
             -0.383205285821947E+01
              0.321758008172924E+02
              0.511157598211263E+02
              0.630009723520840E+02
              0.227473899494035E+02
              0.717002738815779E+00
             -0.495722369754441E+02
             -0.508502653461654E+02
             -0.745523100989849E+02
             -0.608757913752493E+01
              0.307675667749155E+02
             -0.380045220719748E+01
              0.544885255179909E+02
             -0.316722788996650E+02
              0.165693702131140E+02
             -0.101564282751005E+02
             -0.288585586937220E+02
              0.583339789309768E+02
              0.790804733449198E+01
              0.601769965867053E+02
              0.507010588569869E+01
              0.264393132650001E+02
             -0.192037733443075E+02
              0.583758609009458E+02
             -0.110753820552587E+02
             -0.119281698468370E+00
             -0.787049438353714E+02
             -0.128171132436724E+02
              0.716387175357224E+02
              0.670732849862452E+02
              0.250817999729664E+02
             -0.129549786081788E+02
              0.341404225044761E+01
             -0.172438157183548E+02
             -0.194207319414690E+01
              0.904185885658908E+02
              0.119860235434521E+01
             -0.189098603278991E+02
             -0.110338930574153E+03
             -0.551175065560215E+02
             -0.373532755092213E+02
             -0.656225849784683E+02
             -0.553193947798841E+02
             -0.679807920345520E+02
             -0.445402515065192E+02
             -0.410035861641173E+02
             -0.449845039847368E+02
              0.481846710892499E+02
             -0.293688504194936E+02
             -0.992372748845862E+02
              0.417354979451348E+02
             -0.258660120113287E+02
             -0.787671168389906E+02
              0.939748681397013E+02
             -0.218596906371763E+02
              0.227595468822388E+02
              0.453753841346289E+02
             -0.142021602242346E+01
              0.253254024336361E+02
              0.469410263510582E+01
              0.400663243966967E+00
             -0.150219965191077E+02
             -0.712853361789582E+02
              0.132768694488106E+02
             -0.128936662073086E+03
              0.621098972421969E+02
             -0.439078310502347E+02
             -0.161949628283418E+02
             -0.157111377653979E+02
              0.703783592204606E+01
             -0.227211925138155E+02
              0.295958226608757E+02
             -0.517999641403061E+02
              0.365904517307317E+02
              0.369166429436624E+02
              0.168201194963873E+02
              0.100261067646780E+02
              0.196936930769200E+02
              0.616803928323964E+01
              0.309204450139323E+02
             -0.799345422698300E+01
             -0.588953157088251E+02
              0.753829547448402E+01
             -0.151053329568454E+02
             -0.192301808829774E+01
              0.503882610073005E+02
             -0.823807413156185E+02
             -0.149098829057567E+01
              0.555837403072530E+00
              0.991505496683061E+01
              0.317284114141457E+02
             -0.123169245093378E+02
              0.832257683862853E+02
              0.486442669591936E+02
             -0.182674447218158E+02
             -0.952426452266462E+01
              0.102271927112687E+01
              0.766373877082430E+02
             -0.584324871134893E+02
             -0.105369394610620E+03
              0.308110690103348E+02
             -0.162929924277249E+02
             -0.138888500940253E+02
              0.129669052156746E+02
              0.765528253857079E+02
              0.462636979971396E+02
             -0.152831532691726E+02
             -0.500734694675861E+02
             -0.542461125552683E+01
              0.305348950144492E+02
             -0.110725561210492E+02
             -0.752649425149145E+02
             -0.266350735099778E+01
             -0.885821342916770E+02
             -0.473296333786616E+02
              0.764879194587138E+02
             -0.481418193147066E+02
             -0.633549073166924E+02
             -0.512311404588211E+02
             -0.348071221728006E+02
              0.339638493855153E+02
              0.818078907610474E+02
             -0.352477036324694E+01
              0.275517983277305E+02
             -0.182875194456777E+02
             -0.691179847508700E+02
              0.463010105766153E+02
             -0.443021953288738E+02
              0.320855570724674E+02
              0.375225625178491E+02
             -0.647353514497701E+01
              0.389070565095029E+02
              0.436868310942985E+02
              0.100142379255069E+03
             -0.155754053838589E+02
             -0.453513834730116E+02
             -0.610036509240186E+02
             -0.122918258939799E+02
             -0.230951127750197E+02
              0.102673831970946E+03
             -0.447344955422897E+02
              0.104643355626698E+02
              0.971752089951173E+01
             -0.264015926651702E+02
             -0.795256525131440E+02
             -0.696925959403615E+01
              0.975786142797784E+02
              0.925765027688585E+01
              0.805301085142287E+01
             -0.524386809045558E+02
             -0.603264511768430E+02
             -0.552738308005546E+01
              0.498658618413662E+02
             -0.220771722034566E+02
              0.107575861403918E+03
             -0.433613561579032E+02
              0.145436417280736E+02
             -0.223813578395333E+02
             -0.716125459863135E+02
              0.164079718777202E+01
             -0.499202516267562E+02
             -0.757606588502706E+02
              0.610364796984823E+01
              0.235443246862363E+01
              0.512159143988903E+02
              0.185991762832040E+02
             -0.322196355059994E+02
              0.229150120899916E+02
             -0.807212010672581E+02
             -0.519900135453034E+02
              0.897964757032332E+02
              0.142315181538346E+02
             -0.188031407868879E+02
             -0.351553916467093E+02
             -0.270543766704429E+01
             -0.580531856337007E+01
              0.826455874353410E+02
              0.416118491816691E+02
             -0.165828316833083E+02
             -0.122051120993971E+02
             -0.426121596931298E+02
             -0.200272733108376E+02
             -0.667567832316907E+02
              0.457632334303619E+02
              0.544555665386980E+01
              0.144741167017011E+02
              0.155217596763254E+02
             -0.491567624744050E+00
             -0.167383205334240E+02
             -0.314430228288447E+01
             -0.999517250396946E+02
             -0.229750327410613E+02
             -0.761052805725575E+01
             -0.946336110320863E+01
              0.544505863839923E+02
              0.621137819519510E+02
              0.163981411325884E+02
             -0.966799697290432E+02
              0.644871724091762E+02
             -0.213932415758229E+02
             -0.375499844387520E+02
             -0.860593053313356E+02
             -0.386074451021233E+02
              0.561798033565230E+02
              0.242869007999147E+02
              0.506852202682455E+01
              0.290678710055362E+02
             -0.562614389198201E+02
             -0.420077782353540E+02
              0.512660286700398E+02
              0.385390090701683E+02
              0.517035381964736E+02
             -0.126653130382277E+01
              0.681314417391201E+01
              0.567310507779285E+02
              0.958685150730257E+02
             -0.299699498941982E+02
              0.321138348578734E+02
             -0.117029955403958E+02
             -0.410321322327078E+02
             -0.312898121107864E+02
             -0.298741202183605E+02
             -0.130763996275111E+02
             -0.521447860853405E+02
             -0.216514509581992E+02
             -0.140659535489250E+03
              0.367816564401082E+02
              0.205377403668180E+02
             -0.392497971451323E+01
             -0.378579282267224E+02
             -0.203526634912204E+02
             -0.524390804104095E+02
              0.151261209832863E+02
              0.816878537204575E+02
             -0.251427841213487E+02
             -0.162238280756481E+02
              0.237326584130278E+02
             -0.487326653566713E+02
              0.877033706009506E+02
              0.153830186758930E+02
              0.226242664144418E+02
              0.488063749427697E+02
              0.324043689563706E+01
              0.539513298439548E+02
              0.142098463699297E+02
             -0.106686929040986E+02
              0.724993208081366E+01
              0.827702609848814E+00
              0.724505953756475E+02
              0.100970399755869E+02
              0.119542126253863E+02
             -0.129798232666517E+02
              0.131984143210192E+02
             -0.907224978838536E+02
             -0.324466159461298E+02
             -0.455183110988735E+02
              0.483198673716691E+02
             -0.289490914120240E+02
             -0.656355433323408E+02
              0.535923469685405E+02
             -0.121400660838408E+02
              0.438467372135074E+02
             -0.895041308871993E+02
              0.231595795968242E+02
              0.855868135848516E+01
              0.579525066979954E+01
             -0.824862188233789E+01
             -0.901069482771481E+01
              0.477368947156080E+02
              0.198066837406287E+01
             -0.472762022899561E+02
             -0.175197282778814E+02
              0.275966991529671E+02
             -0.117471031914074E+03
             -0.926387607383093E+02
              0.395965941225717E+01
              0.116789730999253E+02
             -0.411056110277433E+02
             -0.391186795921726E+01
              0.111699499659200E+03
              0.305339926134756E+02
             -0.569472377790512E+02
              0.921710962544984E+01
             -0.958738331903547E+01
              0.105185820040624E+02
             -0.336193266116275E+02
              0.194356076663761E+02
              0.283728564147490E+02
             -0.294329120322527E+01
              0.107701454516342E+03
             -0.140343612527134E+02
             -0.314701806612812E+02
              0.141320083109227E+02
              0.464797005214438E+02
             -0.354707539104554E+02
             -0.317619818856640E+01
              0.960791840448640E+02
             -0.464001487727990E+01
              0.619594200706470E+02
              0.134778892833453E+02
             -0.899330040763797E+01
             -0.304951898916072E+02
              0.564761172827403E+02
             -0.511567003207868E+02
             -0.220580071287372E+01
             -0.169067727449061E+02
             -0.403672087157460E+02
              0.184627967048488E+02
              0.238281950938560E+02
              0.116436867002991E+02
              0.724292089724827E+00
             -0.382678478033428E+02
              0.214731371688929E+02
             -0.674772756309679E+01
             -0.245604535072455E+02
             -0.209828438764351E+02
              0.202678208835643E+02
             -0.599927516758919E+01
             -0.347550594213639E+02
             -0.106193428520727E+03
              0.102636399734210E+02
              0.248412292807298E+02
             -0.385137811861049E+02
             -0.209850616114380E+02
              0.803704474605118E+02
              0.644533366152609E+01
              0.308676251854259E+02
              0.384838988557681E+01
              0.320045366109260E+02
              0.646453650919113E+01
             -0.371283455081849E+02
             -0.225199018605056E+01
              0.875115663996542E+01
              0.272380869485639E+02
              0.778935656778470E+02
              0.505338250666558E+02
              0.164950238857386E+00
              0.168903121840473E+02
              0.610735094371620E+02
              0.234648401394987E+02
             -0.750118805947437E+02
             -0.272574400777347E+02
              0.150793041853323E+02
              0.557060038130686E+01
              0.253941333893528E+02
             -0.545722247264434E+02
              0.898102997144102E+01
              0.384255277827706E+02
              0.495935772878339E+02
             -0.433154712602096E+02
             -0.694390467055564E+01
             -0.206553274275404E+01
             -0.132714211441895E+02
             -0.364617386393799E+02
             -0.214985788432048E+02
             -0.195111740690123E+01
              0.787803975700109E+01
              0.419625292173433E+02
             -0.306815309304612E+02
              0.822871569109730E+02
              0.326110248778698E+02
              0.218727090745870E+02
              0.331539385506269E+02
              0.322304569168629E+02
              0.344680822987916E+02
              0.534830675526371E+02
             -0.431885334113380E+02
              0.617060461368454E+02
             -0.111795856775187E+03
              0.306023245845956E+02
             -0.106097096876837E+03
              0.851368676553311E+02
              0.687336570192262E+02
             -0.109564104723836E+02
             -0.491352297206092E+02
             -0.427773271135775E+02
             -0.621453184377060E+02
             -0.625935441132461E+02
              0.549675295989417E+02
              0.403700716268872E+02
              0.235776439891402E+02
              0.372976204741722E+02
              0.401101104151292E+02
             -0.380357707672791E+02
             -0.197338494101818E+02
              0.584581434682172E+02
             -0.115658783481445E+02
              0.549870895531238E+02
              0.696063676777540E+02
             -0.553350684747785E+01
             -0.703111431630797E+02
             -0.916723335545726E+00
             -0.247495311252750E+01
             -0.877642939555835E+01
             -0.183058458974426E+01
             -0.650381578389897E+02
             -0.210656243209011E+02
              0.532506458922358E+01
              0.892508745027590E+01
              0.466753511458230E+02
             -0.395847270841670E+02
              0.655643941019265E+02
             -0.423802848961864E+02
              0.209133757202506E+02
              0.348418839471018E+02
 
 BEEF-vdW xc energy contributions
           1 :   -780.037044719950     
           2 :    716.825078487358     
           3 :   -607.340028338484     
           4 :    478.373250782214     
           5 :   -357.176594718791     
           6 :    263.430359159169     
           7 :   -204.776893709059     
           8 :    176.782398924986     
           9 :   -166.898801458685     
          10 :    160.562468255342     
          11 :   -146.949593263392     
          12 :    122.224107895279     
          13 :   -89.4166966811371     
          14 :    55.5410789932292     
          15 :   -27.6236319904888     
          16 :    9.43767786235355     
          17 :  -0.206577838231169     
          18 :   -4.45319916644041     
          19 :    10.0508538106029     
          20 :   -20.5062821320811     
          21 :    36.4482332323252     
          22 :   -55.2063487873290     
          23 :    72.3376359646911     
          24 :   -83.8520744108046     
          25 :    88.0358598974844     
          26 :   -86.0715687805485     
          27 :    81.2679276721628     
          28 :   -77.3570166080760     
          29 :    76.7160666452332     
          30 :   -79.3650061775321     
          31 :   -85.3870112435370     
          32 :   -65.4747766031556     

     Writing output data file ./pwscf.save/
 
     init_run     :    324.35s CPU    328.85s WALL (       1 calls)
     electrons    :  11418.19s CPU  11537.20s WALL (       1 calls)
     forces       :     97.79s CPU     99.24s WALL (       1 calls)

     Called by init_run:
     wfcinit      :    276.57s CPU    280.03s WALL (       1 calls)
     potinit      :     44.43s CPU     44.75s WALL (       1 calls)
     hinit0       :      1.46s CPU      1.50s WALL (       1 calls)

     Called by electrons:
     c_bands      :   9439.25s CPU   9530.19s WALL (      19 calls)
     sum_band     :   1304.42s CPU   1316.99s WALL (      19 calls)
     v_of_rho     :     99.62s CPU    103.50s WALL (      19 calls)
     newd         :     29.27s CPU     41.00s WALL (      19 calls)
     PAW_pot      :    130.59s CPU    130.60s WALL (      19 calls)
     mix_rho      :    460.16s CPU    460.83s WALL (      19 calls)
     vdW_kernel   :     33.67s CPU     33.67s WALL (       1 calls)

     Called by c_bands:
     init_us_2    :     73.95s CPU     74.27s WALL (     520 calls)
     cegterg      :   8687.74s CPU   8778.30s WALL (     247 calls)

     Called by *egterg:
     cdiaghg      :     74.12s CPU     74.18s WALL (    1205 calls)
     h_psi        :   5511.10s CPU   5542.44s WALL (    1231 calls)
     s_psi        :    952.25s CPU    952.26s WALL (    1231 calls)
     g_psi        :     15.43s CPU     15.44s WALL (     971 calls)

     Called by h_psi:
     h_psi:calbec :    897.72s CPU    897.85s WALL (    1231 calls)
     vloc_psi     :   3636.80s CPU   3637.73s WALL (    1231 calls)
     add_vuspsi   :    951.79s CPU    951.85s WALL (    1231 calls)

     General routines
     calbec       :   1327.86s CPU   1328.06s WALL (    1530 calls)
     fft          :     44.18s CPU     44.20s WALL (    3159 calls)
     ffts         :    142.03s CPU    142.05s WALL (   11298 calls)
     fftw         :   3731.74s CPU   3732.26s WALL (  316613 calls)
 
     Parallel routines
 
     PWSCF        :      3h19m CPU      3h21m WALL

 
   This run was terminated on:  19:14:33  20Dec2022            

=------------------------------------------------------------------------------=
   JOB DONE.
=------------------------------------------------------------------------------=
