
     Program PWSCF v.6.7MaX starts on 20Dec2022 at 15:54:30 

     This program is part of the open-source Quantum ESPRESSO suite
     for quantum simulation of materials; please cite
         "P. Giannozzi et al., J. Phys.:Condens. Matter 21 395502 (2009);
         "P. Giannozzi et al., J. Phys.:Condens. Matter 29 465901 (2017);
          URL http://www.quantum-espresso.org", 
     in publications or presentations arising from this work. More details at
     http://www.quantum-espresso.org/quote

     Parallel version (MPI), running on     1 processors

     MPI processes distributed on     1 nodes
     Reading input from hco-bi-ensemble.in
Warning: card &CELL ignored
Warning: card / ignored

     Current dimensions of program PWSCF are:
     Max number of different atomic species (ntypx) = 10
     Max number of k-points (npk) =  40000
     Max angular momentum in pseudopotentials (lmaxx) =  3
     file Pt.pbe-n-kjpaw_psl.1.0.0.UPF: wavefunction(s)  6S 5D renormalized
     file C.pbe-n-kjpaw_psl.1.0.0.UPF: wavefunction(s)  2S 2P renormalized
     file H.pbe-kjpaw_psl.1.0.0.UPF: wavefunction(s)  1S renormalized
     file O.pbe-nl-kjpaw_psl.1.0.0.UPF: wavefunction(s)  2S 2P renormalized

     **************************************************************************
     Initializing libbeef V0.1.2 with the BEEF-vdW functional.
     Citation: Wellendorff et al., PRB 85, 235149 (2012).
     **************************************************************************


     IMPORTANT: XC functional enforced from input :
     Exchange-correlation= BEEF-VDW
                           (   1   4  43  14   2   0   0)
     Any further DFT definition will be discarded
     Please, verify this is what you really want


     Subspace diagonalization in iterative solution of the eigenvalue problem:
     a serial algorithm will be used

 
     G-vector sticks info
     --------------------
     sticks:   dense  smooth     PW     G-vecs:    dense   smooth      PW
     Sum        4267    4267   1159               697837   697837   98269
 


     bravais-lattice index     =            0
     lattice parameter (alat)  =      16.0349  a.u.
     unit-cell volume          =   11108.1662 (a.u.)^3
     number of atoms/cell      =           39
     number of atomic types    =            4
     number of electrons       =       371.00
     number of Kohn-Sham states=          223
     kinetic-energy cutoff     =      60.0000  Ry
     charge density cutoff     =     240.0000  Ry
     scf convergence threshold =      1.0E-06
     mixing beta               =       0.7000
     number of iterations used =            8  local-TF  mixing
     Exchange-correlation= BEEF-VDW
                           (   1   4  43  14   2   0   0)

     celldm(1)=  16.034858  celldm(2)=   0.000000  celldm(3)=   0.000000
     celldm(4)=   0.000000  celldm(5)=   0.000000  celldm(6)=   0.000000

     crystal axes: (cart. coord. in units of alat)
               a(1) = (   1.000000   0.000000   0.000000 )  
               a(2) = (   0.500000   0.866025   0.000000 )  
               a(3) = (   0.000000   0.000000   3.111117 )  

     reciprocal axes: (cart. coord. in units 2 pi/alat)
               b(1) = (  1.000000 -0.577350  0.000000 )  
               b(2) = (  0.000000  1.154701  0.000000 )  
               b(3) = (  0.000000  0.000000  0.321428 )  


     PseudoPot. # 1 for Pt read from file:
     /users/bkreitz1/quantum-espresso/potentials/Pt.pbe-n-kjpaw_psl.1.0.0.UPF
     MD5 check sum: 04dc8a03c51ece93fc7b5889c2958091
     Pseudo is Projector augmented-wave + core cor, Zval = 10.0
     Generated using 'atomic' code by A. Dal Corso  v.6.7MaX
     Shape of augmentation charge: PSQ
     Using radial grid of 1277 points,  6 beta functions with: 
                l(1) =   0
                l(2) =   0
                l(3) =   1
                l(4) =   1
                l(5) =   2
                l(6) =   2
     Q(r) pseudized with 0 coefficients 


     PseudoPot. # 2 for C  read from file:
     /users/bkreitz1/quantum-espresso/potentials/C.pbe-n-kjpaw_psl.1.0.0.UPF
     MD5 check sum: a169b0ebad56f5ec0d79c4633f80bf22
     Pseudo is Projector augmented-wave + core cor, Zval =  4.0
     Generated using 'atomic' code by A. Dal Corso  v.6.7MaX
     Shape of augmentation charge: PSQ
     Using radial grid of 1073 points,  4 beta functions with: 
                l(1) =   0
                l(2) =   0
                l(3) =   1
                l(4) =   1
     Q(r) pseudized with 0 coefficients 


     PseudoPot. # 3 for H  read from file:
     /users/bkreitz1/quantum-espresso/potentials/H.pbe-kjpaw_psl.1.0.0.UPF
     MD5 check sum: ae98473e6dc62675f0d0baffdab24f65
     Pseudo is Projector augmented-wave, Zval =  1.0
     Generated using 'atomic' code by A. Dal Corso  v.6.7MaX
     Shape of augmentation charge: PSQ
     Using radial grid of  929 points,  2 beta functions with: 
                l(1) =   0
                l(2) =   0
     Q(r) pseudized with 0 coefficients 


     PseudoPot. # 4 for O  read from file:
     /users/bkreitz1/quantum-espresso/potentials/O.pbe-nl-kjpaw_psl.1.0.0.UPF
     MD5 check sum: eef08af8b58d9ec80f8fdb78829eb7cf
     Pseudo is Projector augmented-wave + core cor, Zval =  6.0
     Generated using 'atomic' code by A. Dal Corso  v.6.7MaX
     Shape of augmentation charge: PSQ
     Using radial grid of 1095 points,  4 beta functions with: 
                l(1) =   0
                l(2) =   0
                l(3) =   1
                l(4) =   1
     Q(r) pseudized with 0 coefficients 


     atomic species   valence    mass     pseudopotential
        Pt            10.00   195.08400     Pt( 1.00)
        C              4.00    12.01100     C ( 1.00)
        H              1.00     1.00800     H ( 1.00)
        O              6.00    15.99900     O ( 1.00)

     No symmetry found



   Cartesian axes

     site n.     atom                  positions (alat units)
         1           Pt  tau(   1) = (   0.0000000   0.0000000   1.0017346  )
         2           Pt  tau(   2) = (   0.3333333   0.0000000   1.0017346  )
         3           Pt  tau(   3) = (   0.6666667   0.0000000   1.0017346  )
         4           Pt  tau(   4) = (   0.1666667   0.2886751   1.0017346  )
         5           Pt  tau(   5) = (   0.5000000   0.2886751   1.0017346  )
         6           Pt  tau(   6) = (   0.8333333   0.2886751   1.0017346  )
         7           Pt  tau(   7) = (   0.3333333   0.5773503   1.0017346  )
         8           Pt  tau(   8) = (   0.6666667   0.5773503   1.0017346  )
         9           Pt  tau(   9) = (   1.0000000   0.5773503   1.0017346  )
        10           Pt  tau(  10) = (   0.1666667   0.0962250   1.2739001  )
        11           Pt  tau(  11) = (   0.5000000   0.0962250   1.2739001  )
        12           Pt  tau(  12) = (   0.8333333   0.0962250   1.2739001  )
        13           Pt  tau(  13) = (   0.3333333   0.3849002   1.2739001  )
        14           Pt  tau(  14) = (   0.6666667   0.3849002   1.2739001  )
        15           Pt  tau(  15) = (   1.0000000   0.3849002   1.2739001  )
        16           Pt  tau(  16) = (   0.5000000   0.6735753   1.2739001  )
        17           Pt  tau(  17) = (   0.8333333   0.6735753   1.2739001  )
        18           Pt  tau(  18) = (   1.1666667   0.6735753   1.2739001  )
        19           Pt  tau(  19) = (  -0.0015715   0.1936263   1.5459834  )
        20           Pt  tau(  20) = (   0.3330242   0.1922712   1.5391211  )
        21           Pt  tau(  21) = (   0.6680297   0.1930929   1.5437826  )
        22           Pt  tau(  22) = (   0.1666432   0.4828873   1.5444380  )
        23           Pt  tau(  23) = (   0.5012387   0.4819826   1.5437789  )
        24           Pt  tau(  24) = (   0.8326010   0.4807061   1.5438053  )
        25           Pt  tau(  25) = (   0.3346620   0.7705678   1.5435051  )
        26           Pt  tau(  26) = (   0.6668943   0.7678627   1.5459807  )
        27           Pt  tau(  27) = (   1.0015135   0.7689130   1.5444141  )
        28           Pt  tau(  28) = (   0.0024817   0.0015040   1.8188346  )
        29           Pt  tau(  29) = (   0.3341538   0.0028501   1.8146778  )
        30           Pt  tau(  30) = (   0.6710363   0.0045959   1.8175612  )
        31           Pt  tau(  31) = (   0.1695036   0.2879889   1.8147049  )
        32           Pt  tau(  32) = (   0.4981891   0.2876454   1.8141739  )
        33           Pt  tau(  33) = (   0.8333374   0.2926446   1.8327319  )
        34           Pt  tau(  34) = (   0.3394650   0.5788688   1.8175620  )
        35           Pt  tau(  35) = (   0.6700385   0.5755515   1.8326526  )
        36           Pt  tau(  36) = (   1.0099787   0.5831012   1.8188021  )
        37           C   tau(  37) = (   0.7934634   0.4587513   2.0158890  )
        38           H   tau(  38) = (   0.7156568   0.4135953   2.1091795  )
        39           O   tau(  39) = (   0.9180866   0.5303549   2.0613855  )

     number of k points=    13  Marzari-Vanderbilt smearing, width (Ry)=  0.0200
                       cart. coord. in units 2pi/alat
        k(    1) = (   0.0000000   0.0000000   0.0000000), wk =   0.0800000
        k(    2) = (   0.0000000   0.2309401   0.0000000), wk =   0.1600000
        k(    3) = (   0.0000000   0.4618802   0.0000000), wk =   0.1600000
        k(    4) = (   0.2000000  -0.1154701   0.0000000), wk =   0.1600000
        k(    5) = (   0.2000000   0.1154701   0.0000000), wk =   0.1600000
        k(    6) = (   0.2000000   0.3464102   0.0000000), wk =   0.1600000
        k(    7) = (   0.2000000  -0.5773503   0.0000000), wk =   0.1600000
        k(    8) = (   0.2000000  -0.3464102   0.0000000), wk =   0.1600000
        k(    9) = (   0.4000000  -0.2309401   0.0000000), wk =   0.1600000
        k(   10) = (   0.4000000  -0.0000000   0.0000000), wk =   0.1600000
        k(   11) = (   0.4000000   0.2309401   0.0000000), wk =   0.1600000
        k(   12) = (   0.4000000  -0.6928203   0.0000000), wk =   0.1600000
        k(   13) = (   0.4000000  -0.4618802   0.0000000), wk =   0.1600000

     Dense  grid:   697837 G-vectors     FFT dimensions: (  80,  80, 250)

     Estimated max dynamical RAM per process >       8.42 GB

     Check: negative core charge=   -0.000001

     Initial potential from superposition of free atoms

     starting charge  370.99384, renormalised to  371.00000

     negative rho (up, down):  1.205E-02 0.000E+00


     %%%%%%%%%%%%%%%%%%%%%%%%%%%%%%%%%%%%%%%%%%%%%%%%%%%%%%%%%%%%%%%%%%%%%%%%
     %                                                                      %
     % You are using vdW-DF, which was implemented by the Thonhauser group. %
     % Please cite the following two papers that made this development      %
     % possible and the two reviews that describe the various versions:     %
     %                                                                      %
     %   T. Thonhauser et al., PRL 115, 136402 (2015).                      %
     %   T. Thonhauser et al., PRB 76, 125112 (2007).                       %
     %   K. Berland et al., Rep. Prog. Phys. 78, 066501 (2015).             %
     %   D.C. Langreth et al., J. Phys.: Condens. Matter 21, 084203 (2009). %
     %                                                                      %
     %                                                                      %
     % If you are calculating the stress with vdW-DF, please also cite:     %
     %                                                                      %
     %   R. Sabatini et al., J. Phys.: Condens. Matter 24, 424209 (2012).   %
     %                                                                      %
     %%%%%%%%%%%%%%%%%%%%%%%%%%%%%%%%%%%%%%%%%%%%%%%%%%%%%%%%%%%%%%%%%%%%%%%%


     Starting wfcs are  333 randomized atomic wfcs
     Checking if some PAW data can be deallocated... 

     total cpu time spent up to now is      300.1 secs

     Self-consistent Calculation

     iteration #  1     ecut=    60.00 Ry     beta= 0.70
     Davidson diagonalization with overlap
     ethr =  1.00E-02,  avg # of iterations =  2.0

     Threshold (ethr) on eigenvalues was too large:
     Diagonalizing with lowered threshold

     Davidson diagonalization with overlap
     ethr =  7.37E-04,  avg # of iterations =  3.1

     negative rho (up, down):  1.699E-02 0.000E+00

     total cpu time spent up to now is     1462.4 secs

     total energy              =  -27816.54693763 Ry
     estimated scf accuracy    <       2.93569982 Ry

     iteration #  2     ecut=    60.00 Ry     beta= 0.70
     Davidson diagonalization with overlap
     ethr =  7.91E-04,  avg # of iterations =  2.0

     negative rho (up, down):  1.540E-02 0.000E+00

     total cpu time spent up to now is     1985.7 secs

     total energy              =  -27816.81340686 Ry
     estimated scf accuracy    <       1.14711030 Ry

     iteration #  3     ecut=    60.00 Ry     beta= 0.70
     Davidson diagonalization with overlap
     ethr =  3.09E-04,  avg # of iterations =  2.0

     negative rho (up, down):  1.357E-02 0.000E+00

     total cpu time spent up to now is     2526.2 secs

     total energy              =  -27816.89225159 Ry
     estimated scf accuracy    <       0.34884567 Ry

     iteration #  4     ecut=    60.00 Ry     beta= 0.70
     Davidson diagonalization with overlap
     ethr =  9.40E-05,  avg # of iterations = 12.8

     negative rho (up, down):  1.136E-02 0.000E+00

     total cpu time spent up to now is     3236.6 secs

     total energy              =  -27816.93402926 Ry
     estimated scf accuracy    <       0.13587599 Ry

     iteration #  5     ecut=    60.00 Ry     beta= 0.70
     Davidson diagonalization with overlap
     ethr =  3.66E-05,  avg # of iterations =  4.8

     negative rho (up, down):  9.804E-03 0.000E+00

     total cpu time spent up to now is     3863.3 secs

     total energy              =  -27816.94873847 Ry
     estimated scf accuracy    <       0.04704507 Ry

     iteration #  6     ecut=    60.00 Ry     beta= 0.70
     Davidson diagonalization with overlap
     ethr =  1.27E-05,  avg # of iterations =  5.0

     negative rho (up, down):  8.231E-03 0.000E+00

     total cpu time spent up to now is     4475.1 secs

     total energy              =  -27816.95363198 Ry
     estimated scf accuracy    <       0.00680071 Ry

     iteration #  7     ecut=    60.00 Ry     beta= 0.70
     Davidson diagonalization with overlap
     c_bands:  1 eigenvalues not converged
     c_bands:  1 eigenvalues not converged
     ethr =  1.83E-06,  avg # of iterations = 17.3

     negative rho (up, down):  7.838E-03 0.000E+00

     total cpu time spent up to now is     5433.8 secs

     total energy              =  -27816.95606927 Ry
     estimated scf accuracy    <       0.00152907 Ry

     iteration #  8     ecut=    60.00 Ry     beta= 0.70
     Davidson diagonalization with overlap
     c_bands:  1 eigenvalues not converged
     ethr =  4.12E-07,  avg # of iterations =  5.6

     negative rho (up, down):  7.807E-03 0.000E+00

     total cpu time spent up to now is     6113.9 secs

     total energy              =  -27816.95647772 Ry
     estimated scf accuracy    <       0.00075349 Ry

     iteration #  9     ecut=    60.00 Ry     beta= 0.70
     Davidson diagonalization with overlap
     ethr =  2.03E-07,  avg # of iterations =  1.9

     negative rho (up, down):  8.025E-03 0.000E+00

     total cpu time spent up to now is     6633.0 secs

     total energy              =  -27816.95653170 Ry
     estimated scf accuracy    <       0.00018056 Ry

     iteration # 10     ecut=    60.00 Ry     beta= 0.70
     Davidson diagonalization with overlap
     ethr =  4.87E-08,  avg # of iterations =  4.0

     negative rho (up, down):  8.316E-03 0.000E+00

     total cpu time spent up to now is     7268.3 secs

     total energy              =  -27816.95656410 Ry
     estimated scf accuracy    <       0.00016892 Ry

     iteration # 11     ecut=    60.00 Ry     beta= 0.70
     Davidson diagonalization with overlap
     ethr =  4.55E-08,  avg # of iterations =  1.1

     negative rho (up, down):  9.100E-03 0.000E+00

     total cpu time spent up to now is     7743.9 secs

     total energy              =  -27816.95655786 Ry
     estimated scf accuracy    <       0.00013888 Ry

     iteration # 12     ecut=    60.00 Ry     beta= 0.70
     Davidson diagonalization with overlap
     ethr =  3.74E-08,  avg # of iterations =  1.1

     negative rho (up, down):  1.025E-02 0.000E+00

     total cpu time spent up to now is     8249.6 secs

     total energy              =  -27816.95654708 Ry
     estimated scf accuracy    <       0.00008738 Ry

     iteration # 13     ecut=    60.00 Ry     beta= 0.70
     Davidson diagonalization with overlap
     ethr =  2.36E-08,  avg # of iterations =  1.8

     negative rho (up, down):  1.123E-02 0.000E+00

     total cpu time spent up to now is     8736.0 secs

     total energy              =  -27816.95654374 Ry
     estimated scf accuracy    <       0.00003110 Ry

     iteration # 14     ecut=    60.00 Ry     beta= 0.70
     Davidson diagonalization with overlap
     ethr =  8.38E-09,  avg # of iterations =  2.0

     negative rho (up, down):  1.177E-02 0.000E+00

     total cpu time spent up to now is     9267.3 secs

     total energy              =  -27816.95654488 Ry
     estimated scf accuracy    <       0.00000833 Ry

     iteration # 15     ecut=    60.00 Ry     beta= 0.70
     Davidson diagonalization with overlap
     ethr =  2.24E-09,  avg # of iterations =  4.0

     negative rho (up, down):  1.248E-02 0.000E+00

     total cpu time spent up to now is     9888.0 secs

     total energy              =  -27816.95654486 Ry
     estimated scf accuracy    <       0.00000455 Ry

     iteration # 16     ecut=    60.00 Ry     beta= 0.70
     Davidson diagonalization with overlap
     ethr =  1.23E-09,  avg # of iterations =  2.2

     negative rho (up, down):  1.307E-02 0.000E+00

     total cpu time spent up to now is    10415.8 secs

     End of self-consistent calculation

          k = 0.0000 0.0000 0.0000 ( 87267 PWs)   bands (ev):

   -19.8743  -9.1590  -6.9086  -5.9760  -5.4171  -4.7658  -4.5445  -4.4990
    -4.4916  -4.4775  -4.4607  -4.4587  -4.4379  -4.3158  -4.1575  -3.9503
    -3.9236  -3.9104  -3.9088  -3.8769  -3.7892  -3.4755  -3.4655  -3.4631
    -3.4481  -3.3937  -3.3886  -3.2489  -3.2425  -3.2388  -3.2217  -3.1458
    -3.1451  -3.0373  -3.0246  -3.0191  -3.0145  -3.0055  -2.9821  -2.9768
    -2.9650  -2.9617  -2.9395  -2.9121  -2.8991  -2.4090  -2.4015  -2.3913
    -2.3847  -2.3552  -2.3405  -2.3287  -2.3075  -2.2963  -2.2670  -2.1598
    -2.1484  -2.0903  -2.0405  -1.6374  -1.6322  -1.6231  -1.5795  -1.5707
    -1.5595  -1.5126  -1.4469  -1.4212  -1.4065  -1.3910  -1.3823  -1.3713
    -1.3687  -1.3567  -1.3407  -1.3348  -1.3266  -1.3206  -1.2979  -1.2861
    -1.2809  -1.2731  -1.1820  -1.1788  -1.1738  -1.1596  -1.1268  -1.0478
    -1.0061  -0.9742  -0.9720  -0.9565  -0.9366  -0.9297  -0.9114  -0.8826
    -0.8358  -0.8296  -0.7826  -0.7815  -0.7426  -0.7316  -0.7188  -0.6917
    -0.6917  -0.6433  -0.5567  -0.5562  -0.5346  -0.5008  -0.4486  -0.3941
    -0.2356  -0.1803  -0.0740  -0.0545  -0.0353  -0.0320  -0.0241  -0.0145
    -0.0064   0.0199   0.0637   0.0908   0.1084   0.1209   0.1959   0.2165
     0.2310   0.2477   0.2677   0.2813   0.3595   0.3829   0.4186   0.4467
     0.4513   0.4727   0.5790   0.6420   0.6730   0.6925   0.7049   0.7077
     0.7445   0.7640   0.8517   0.8571   0.9513   0.9536   0.9702   0.9714
     1.0419   1.0607   1.0875   1.1055   1.1287   1.1325   1.1352   1.1476
     1.1627   1.1667   1.1800   1.1937   1.2014   1.2206   1.2386   1.2713
     1.2919   1.2949   1.3016   1.3428   1.3596   1.3743   1.3793   1.3947
     1.3995   1.4230   1.4288   1.4586   1.5085   1.5128   1.5208   1.5322
     1.5386   1.5590   1.5883   1.6100   1.6387   1.6440   1.6614   1.6658
     1.8103   1.8209   1.9245   1.9266   1.9420   1.9549   1.9702   1.9842
     2.0392   2.5340   2.5710   2.8063   2.8381   2.8627   2.8931   3.3043
     4.1478   4.5357   5.1388   5.1720   5.1935   5.4298   5.7955   6.1305
     6.6506   6.7535   6.7736   6.7937   6.8029   6.8035   6.8433

          k = 0.0000 0.2309 0.0000 ( 87180 PWs)   bands (ev):

   -19.8743  -9.1577  -6.7647  -5.9193  -5.3300  -4.9880  -4.7428  -4.5969
    -4.5759  -4.3555  -4.3481  -4.2626  -4.2468  -4.2242  -4.1094  -4.0098
    -3.9464  -3.8538  -3.8442  -3.8226  -3.7544  -3.5450  -3.4306  -3.4238
    -3.4020  -3.3731  -3.3294  -3.3111  -3.2771  -3.2378  -3.2277  -3.2159
    -3.1768  -3.1355  -3.1134  -3.0434  -3.0197  -3.0153  -2.9738  -2.9398
    -2.8119  -2.7970  -2.7900  -2.7739  -2.7552  -2.5244  -2.5112  -2.4843
    -2.4442  -2.4188  -2.4068  -2.3848  -2.2323  -2.2241  -2.1580  -2.1435
    -2.1121  -2.0830  -2.0448  -1.8613  -1.7842  -1.7596  -1.7202  -1.6838
    -1.6722  -1.6322  -1.5945  -1.5607  -1.5568  -1.5388  -1.5247  -1.4710
    -1.4516  -1.4213  -1.3867  -1.3805  -1.3286  -1.2836  -1.2727  -1.2186
    -1.2083  -1.2017  -1.1921  -1.1482  -1.1325  -1.1145  -1.0808  -1.0532
    -1.0169  -0.9943  -0.9853  -0.9731  -0.9542  -0.9282  -0.8997  -0.8831
    -0.8414  -0.8198  -0.8092  -0.7902  -0.7763  -0.7522  -0.7267  -0.7150
    -0.6582  -0.6184  -0.6068  -0.5634  -0.5386  -0.5272  -0.5115  -0.4710
    -0.4614  -0.4520  -0.4353  -0.4177  -0.3165  -0.2325  -0.1378  -0.1059
    -0.0737  -0.0408  -0.0106  -0.0067  -0.0008   0.0242   0.1331   0.1737
     0.1823   0.2593   0.3066   0.3192   0.3300   0.3812   0.3922   0.4025
     0.4334   0.4651   0.4968   0.5517   0.5629   0.5887   0.5998   0.6148
     0.7034   0.7832   0.7918   0.7999   0.8233   0.8560   0.8899   0.9154
     0.9437   0.9753   1.0066   1.0177   1.0619   1.0664   1.1044   1.1113
     1.1567   1.1883   1.2230   1.2454   1.2903   1.3114   1.3227   1.3534
     1.3752   1.3936   1.4621   1.4798   1.4937   1.5169   1.5409   1.5593
     1.5869   1.5981   1.6146   1.6320   1.6383   1.6718   1.6866   1.7399
     1.8085   1.8422   1.8468   1.8722   1.8825   1.8935   1.9261   1.9397
     1.9569   1.9739   2.0509   2.0723   2.1011   2.1838   2.2559   2.2652
     2.2817   2.4479   2.6236   2.8033   3.1137   3.4309   3.5020   3.6767
     4.0000   4.6050   4.7713   5.1137   5.4069   5.6021   5.6570   5.8994
     5.9629   6.4638   6.5696   6.6304   6.8151   6.9639   6.9884

          k = 0.0000 0.4619 0.0000 ( 87156 PWs)   bands (ev):

   -19.8743  -9.1556  -6.3562  -5.8738  -5.6335  -5.0365  -4.7480  -4.6217
    -4.6138  -4.4452  -4.2845  -4.1079  -4.0644  -3.9679  -3.9055  -3.8882
    -3.8533  -3.7228  -3.6868  -3.6638  -3.6605  -3.6361  -3.5338  -3.5023
    -3.4865  -3.4563  -3.4436  -3.4107  -3.3528  -3.3205  -3.3063  -3.2697
    -3.0775  -3.0601  -3.0430  -3.0358  -3.0298  -3.0029  -2.8093  -2.8027
    -2.7905  -2.7749  -2.7603  -2.7305  -2.5684  -2.5092  -2.4793  -2.4708
    -2.4471  -2.4115  -2.4026  -2.3379  -2.3179  -2.3015  -2.2748  -2.2497
    -2.1260  -2.1088  -2.0834  -2.0651  -1.9570  -1.9436  -1.9065  -1.8875
    -1.8533  -1.7355  -1.7148  -1.6790  -1.6702  -1.6447  -1.5950  -1.5579
    -1.5365  -1.4999  -1.4345  -1.4204  -1.4001  -1.3669  -1.3269  -1.3129
    -1.2856  -1.2721  -1.2352  -1.2210  -1.1930  -1.1771  -1.1714  -1.1535
    -1.1323  -1.1213  -1.0961  -1.0628  -1.0205  -1.0043  -0.9922  -0.9713
    -0.9653  -0.9184  -0.8570  -0.8218  -0.7994  -0.7607  -0.7489  -0.7208
    -0.7003  -0.6665  -0.6380  -0.5864  -0.5598  -0.5337  -0.5007  -0.4413
    -0.4300  -0.3790  -0.3140  -0.2782  -0.2590  -0.1943  -0.1682  -0.1521
    -0.1256  -0.0865  -0.0729  -0.0500  -0.0215  -0.0011   0.0121   0.0286
     0.0334   0.0706   0.0961   0.1083   0.1310   0.1642   0.2469   0.2689
     0.2855   0.3149   0.3769   0.4557   0.4681   0.5018   0.5603   0.6176
     0.6644   0.7194   0.7581   0.7697   0.7945   0.8217   0.8395   0.8756
     0.9086   0.9249   0.9513   0.9761   1.0112   1.0477   1.0998   1.1152
     1.1226   1.1336   1.1675   1.2440   1.2981   1.3313   1.3815   1.3915
     1.4127   1.4848   1.5089   1.5209   1.5529   1.5798   1.6249   1.6583
     1.6936   1.7009   1.7207   1.7597   1.8143   1.8422   1.8445   1.8714
     1.8742   1.8982   1.9180   2.0489   2.0839   2.0921   2.1183   2.1304
     2.1756   2.2516   2.3474   2.5513   2.6433   2.8232   3.0240   3.1499
     3.1694   3.4205   3.5426   3.5984   3.8178   3.9780   4.2584   4.3886
     4.4199   4.4886   4.6031   4.6926   4.8058   4.9595   5.0542   5.2060
     5.5486   5.7911   6.0328   6.2520   6.5571   6.8053   6.9036

          k = 0.2000-0.1155 0.0000 ( 87180 PWs)   bands (ev):

   -19.8743  -9.1577  -6.7647  -5.9192  -5.3300  -4.9883  -4.7428  -4.5967
    -4.5758  -4.3555  -4.3481  -4.2627  -4.2466  -4.2243  -4.1100  -4.0099
    -3.9457  -3.8539  -3.8443  -3.8226  -3.7546  -3.5450  -3.4307  -3.4237
    -3.4023  -3.3730  -3.3292  -3.3109  -3.2769  -3.2379  -3.2277  -3.2160
    -3.1768  -3.1356  -3.1133  -3.0435  -3.0195  -3.0153  -2.9736  -2.9400
    -2.8116  -2.7969  -2.7900  -2.7742  -2.7551  -2.5241  -2.5113  -2.4846
    -2.4440  -2.4187  -2.4072  -2.3847  -2.2323  -2.2241  -2.1582  -2.1435
    -2.1122  -2.0827  -2.0449  -1.8613  -1.7844  -1.7593  -1.7202  -1.6837
    -1.6722  -1.6323  -1.5943  -1.5606  -1.5569  -1.5391  -1.5248  -1.4711
    -1.4514  -1.4212  -1.3867  -1.3804  -1.3285  -1.2836  -1.2729  -1.2184
    -1.2082  -1.2020  -1.1922  -1.1479  -1.1324  -1.1145  -1.0806  -1.0532
    -1.0168  -0.9945  -0.9853  -0.9733  -0.9542  -0.9278  -0.8996  -0.8833
    -0.8415  -0.8198  -0.8092  -0.7901  -0.7763  -0.7523  -0.7264  -0.7153
    -0.6584  -0.6185  -0.6067  -0.5632  -0.5390  -0.5275  -0.5115  -0.4708
    -0.4615  -0.4520  -0.4353  -0.4178  -0.3172  -0.2327  -0.1375  -0.1062
    -0.0740  -0.0405  -0.0107  -0.0068  -0.0006   0.0243   0.1335   0.1741
     0.1821   0.2595   0.3061   0.3191   0.3305   0.3812   0.3924   0.4025
     0.4337   0.4649   0.4974   0.5519   0.5628   0.5890   0.5998   0.6154
     0.7033   0.7829   0.7918   0.7994   0.8233   0.8558   0.8897   0.9154
     0.9437   0.9753   1.0066   1.0177   1.0621   1.0663   1.1042   1.1113
     1.1566   1.1884   1.2229   1.2456   1.2905   1.3113   1.3227   1.3534
     1.3751   1.3936   1.4619   1.4799   1.4937   1.5169   1.5409   1.5593
     1.5869   1.5980   1.6146   1.6319   1.6383   1.6716   1.6866   1.7397
     1.8087   1.8423   1.8468   1.8721   1.8823   1.8936   1.9262   1.9397
     1.9569   1.9740   2.0508   2.0724   2.1011   2.1834   2.2556   2.2652
     2.2818   2.4489   2.6235   2.8025   3.1145   3.4306   3.5019   3.6764
     4.0009   4.6046   4.7711   5.1140   5.4071   5.6021   5.6568   5.8995
     5.9630   6.4636   6.5695   6.6303   6.8150   6.9642   6.9886

          k = 0.2000 0.1155 0.0000 ( 87180 PWs)   bands (ev):

   -19.8743  -9.1588  -6.7640  -5.9215  -5.3276  -4.9836  -4.7344  -4.6125
    -4.5802  -4.3527  -4.3113  -4.2797  -4.2537  -4.2240  -4.0979  -4.0217
    -3.9954  -3.8541  -3.8429  -3.8182  -3.7248  -3.5433  -3.4382  -3.4167
    -3.4057  -3.3895  -3.3250  -3.3137  -3.2602  -3.2420  -3.2369  -3.2311
    -3.1760  -3.1354  -3.1077  -3.0551  -3.0099  -3.0024  -2.9486  -2.9267
    -2.8126  -2.8010  -2.7842  -2.7672  -2.7520  -2.5195  -2.4970  -2.4963
    -2.4538  -2.4313  -2.4048  -2.3700  -2.2310  -2.2212  -2.1484  -2.1403
    -2.1164  -2.0812  -2.0694  -1.8512  -1.7665  -1.7558  -1.6960  -1.6864
    -1.6561  -1.6468  -1.6013  -1.5913  -1.5447  -1.5265  -1.5252  -1.4857
    -1.4313  -1.4198  -1.3800  -1.3676  -1.3369  -1.2976  -1.2825  -1.2326
    -1.2176  -1.1999  -1.1787  -1.1523  -1.1131  -1.1059  -1.0863  -1.0840
    -1.0181  -1.0101  -0.9895  -0.9584  -0.9447  -0.9111  -0.9037  -0.8667
    -0.8475  -0.8261  -0.8241  -0.7971  -0.7801  -0.7510  -0.7442  -0.7210
    -0.6909  -0.6291  -0.5972  -0.5854  -0.5468  -0.5461  -0.5118  -0.4776
    -0.4618  -0.4428  -0.4361  -0.3961  -0.3373  -0.1481  -0.1430  -0.1011
    -0.0922  -0.0289  -0.0193  -0.0049   0.0132   0.0331   0.0843   0.1271
     0.1953   0.2501   0.3016   0.3169   0.3490   0.3582   0.3974   0.4029
     0.4553   0.4581   0.5332   0.5473   0.5676   0.5841   0.5953   0.6479
     0.7140   0.7689   0.7807   0.7959   0.8061   0.8642   0.8687   0.9106
     0.9321   0.9748   0.9759   1.0380   1.0415   1.0734   1.0915   1.1206
     1.1492   1.1989   1.2226   1.2463   1.2769   1.3182   1.3222   1.3510
     1.3867   1.4007   1.4750   1.4822   1.5161   1.5165   1.5454   1.5620
     1.5875   1.5926   1.6220   1.6253   1.6395   1.6709   1.6841   1.7121
     1.8127   1.8320   1.8364   1.8738   1.8982   1.8992   1.9263   1.9469
     1.9563   1.9802   2.0703   2.0748   2.0978   2.2106   2.2518   2.2769
     2.2881   2.4446   2.6044   2.8076   3.2786   3.2892   3.4698   3.6569
     4.1986   4.3347   4.8087   5.2363   5.3698   5.6079   5.6574   5.9099
     6.0419   6.3014   6.6106   6.6414   6.7712   6.9441   6.9912

          k = 0.2000 0.3464 0.0000 ( 87170 PWs)   bands (ev):

   -19.8743  -9.1575  -6.4861  -5.8597  -5.2397  -5.2302  -5.1086  -4.7068
    -4.3281  -4.1653  -4.1581  -4.1322  -4.1081  -4.0839  -4.0730  -3.9923
    -3.9707  -3.9079  -3.8891  -3.5922  -3.5707  -3.5609  -3.5553  -3.4914
    -3.4585  -3.3494  -3.3418  -3.3247  -3.3129  -3.2573  -3.2120  -3.1821
    -3.1707  -3.1539  -3.1275  -3.0805  -3.0684  -3.0169  -2.9738  -2.9527
    -2.9019  -2.6703  -2.5926  -2.5842  -2.5529  -2.5383  -2.5180  -2.5104
    -2.4849  -2.4421  -2.4222  -2.3121  -2.2944  -2.2600  -2.1883  -2.1515
    -2.1193  -2.0978  -2.0802  -2.0305  -2.0041  -1.8794  -1.8253  -1.8243
    -1.7546  -1.7200  -1.7061  -1.6951  -1.6726  -1.6474  -1.6290  -1.5301
    -1.4892  -1.4545  -1.4486  -1.4293  -1.4052  -1.3678  -1.3477  -1.3149
    -1.2907  -1.2621  -1.2128  -1.1702  -1.1596  -1.1383  -1.1221  -1.1072
    -1.0788  -1.0633  -1.0538  -1.0308  -1.0148  -0.9717  -0.9342  -0.9010
    -0.8741  -0.8389  -0.8263  -0.8206  -0.7924  -0.7694  -0.7461  -0.7305
    -0.7175  -0.6975  -0.6847  -0.6655  -0.6430  -0.6177  -0.5791  -0.5367
    -0.5100  -0.4736  -0.4062  -0.3785  -0.3613  -0.3171  -0.2059  -0.1761
    -0.1403  -0.0737  -0.0536  -0.0333  -0.0026   0.0181   0.0298   0.0521
     0.0879   0.1126   0.1330   0.1532   0.2045   0.3029   0.3291   0.3616
     0.3854   0.4163   0.4342   0.4676   0.5235   0.5373   0.6133   0.6288
     0.6638   0.6832   0.7204   0.7371   0.7924   0.8205   0.8468   0.8739
     0.8905   0.9213   0.9423   0.9505   0.9701   0.9805   1.0031   1.0281
     1.1081   1.1660   1.1905   1.2722   1.3054   1.3538   1.4377   1.4756
     1.4959   1.5341   1.5667   1.6041   1.6241   1.6471   1.6605   1.6917
     1.7037   1.7149   1.7284   1.7544   1.7638   1.7845   1.8344   1.8614
     1.8915   1.9185   1.9314   1.9436   1.9893   2.0892   2.1322   2.1713
     2.1884   2.2297   2.2521   2.3410   2.3710   2.4248   2.8468   2.9047
     2.9246   3.2955   3.3259   3.4690   3.4934   3.8681   3.9805   4.2464
     4.3582   4.4007   4.4903   4.7381   5.0775   5.3334   5.5903   5.7499
     5.8936   5.9853   6.3636   6.3822   6.4118   6.4887   6.6418

          k = 0.2000-0.5774 0.0000 ( 87160 PWs)   bands (ev):

   -19.8743  -9.1556  -6.0534  -5.9269  -5.7148  -5.2988  -4.8365  -4.7360
    -4.4976  -4.2393  -4.1346  -4.0372  -4.0059  -3.9570  -3.8715  -3.8298
    -3.7669  -3.7457  -3.6494  -3.6404  -3.6334  -3.5993  -3.5852  -3.5713
    -3.5084  -3.4348  -3.4282  -3.4202  -3.3830  -3.3761  -3.2998  -3.1983
    -3.1701  -3.1142  -3.0548  -3.0315  -3.0182  -2.9852  -2.9704  -2.9221
    -2.8760  -2.7905  -2.7699  -2.6041  -2.5935  -2.5516  -2.4858  -2.4512
    -2.4076  -2.3827  -2.2905  -2.2569  -2.2226  -2.1995  -2.1837  -2.1350
    -2.1133  -2.0860  -2.0136  -1.9882  -1.9814  -1.9683  -1.9436  -1.9290
    -1.9045  -1.8784  -1.8626  -1.7613  -1.7403  -1.7009  -1.6713  -1.6332
    -1.5490  -1.5237  -1.5171  -1.4707  -1.4520  -1.4465  -1.4035  -1.3856
    -1.3505  -1.3301  -1.3120  -1.2693  -1.2454  -1.2277  -1.1659  -1.1198
    -1.1070  -1.0947  -1.0846  -1.0277  -0.9685  -0.9477  -0.9172  -0.8977
    -0.8682  -0.8561  -0.8320  -0.8222  -0.7944  -0.7740  -0.7649  -0.7447
    -0.7242  -0.7018  -0.6704  -0.6642  -0.6546  -0.6438  -0.6357  -0.6104
    -0.5613  -0.5210  -0.4219  -0.3342  -0.2819  -0.2715  -0.2549  -0.1804
    -0.1620  -0.1370  -0.1143  -0.0865  -0.0709  -0.0439  -0.0233   0.0372
     0.0514   0.0776   0.1016   0.1461   0.2003   0.2336   0.2675   0.2914
     0.4037   0.4299   0.4455   0.4919   0.5083   0.5464   0.5642   0.5911
     0.6211   0.6506   0.6686   0.6888   0.7085   0.7584   0.7875   0.8026
     0.8432   0.8694   0.8891   0.9151   0.9432   0.9674   1.0337   1.0741
     1.1661   1.2181   1.2424   1.3176   1.3436   1.3749   1.4113   1.4550
     1.4744   1.5372   1.5675   1.6300   1.6534   1.6743   1.6859   1.7089
     1.7308   1.7574   1.7935   1.8399   1.8563   1.8682   1.8813   1.9004
     1.9060   1.9868   2.0520   2.0722   2.1086   2.1202   2.1354   2.1538
     2.1936   2.2967   2.3503   2.4640   3.0693   3.1943   3.2843   3.3122
     3.5544   3.6322   3.6668   3.7078   3.9768   4.1941   4.2787   4.3478
     4.4501   4.7652   4.8437   4.8803   4.9675   5.0505   5.1617   5.2535
     5.4412   5.6128   5.6800   5.7684   6.1849   6.3469   6.3902

          k = 0.2000-0.3464 0.0000 ( 87170 PWs)   bands (ev):

   -19.8743  -9.1557  -6.4876  -5.8554  -5.2463  -5.2277  -5.1155  -4.7037
    -4.3367  -4.1638  -4.1529  -4.1461  -4.1075  -4.0842  -4.0512  -3.9899
    -3.9629  -3.9053  -3.8673  -3.5857  -3.5757  -3.5684  -3.5472  -3.4906
    -3.4790  -3.3496  -3.3325  -3.3199  -3.3042  -3.2587  -3.2280  -3.1920
    -3.1627  -3.1564  -3.1088  -3.0839  -3.0646  -3.0169  -2.9968  -2.9776
    -2.9161  -2.6669  -2.6126  -2.5929  -2.5828  -2.5446  -2.5196  -2.5110
    -2.4669  -2.4461  -2.4186  -2.3253  -2.2899  -2.2779  -2.1875  -2.1640
    -2.1088  -2.0927  -2.0611  -2.0396  -2.0133  -1.8637  -1.8365  -1.8243
    -1.7626  -1.7471  -1.7079  -1.6916  -1.6536  -1.6449  -1.6180  -1.5607
    -1.4779  -1.4611  -1.4469  -1.4298  -1.4027  -1.3910  -1.3464  -1.3090
    -1.2762  -1.2317  -1.1861  -1.1739  -1.1610  -1.1441  -1.1372  -1.1052
    -1.0743  -1.0510  -1.0295  -1.0196  -0.9716  -0.9574  -0.9294  -0.8841
    -0.8640  -0.8602  -0.8224  -0.8161  -0.7948  -0.7772  -0.7452  -0.7230
    -0.7124  -0.7015  -0.6893  -0.6698  -0.6392  -0.6170  -0.5809  -0.5252
    -0.4897  -0.4354  -0.4112  -0.3990  -0.3588  -0.3279  -0.1993  -0.1785
    -0.1558  -0.0790  -0.0491  -0.0452  -0.0172   0.0251   0.0302   0.0388
     0.0861   0.1050   0.1424   0.1670   0.2073   0.2533   0.3482   0.3639
     0.3826   0.4264   0.4437   0.4941   0.5078   0.5413   0.5718   0.6223
     0.6436   0.6857   0.7179   0.7464   0.8070   0.8281   0.8445   0.8797
     0.8898   0.9231   0.9418   0.9650   0.9761   0.9812   1.0121   1.0616
     1.0993   1.1653   1.2032   1.2410   1.2949   1.3678   1.4215   1.4597
     1.4941   1.5211   1.5747   1.6181   1.6332   1.6508   1.6687   1.6871
     1.7100   1.7179   1.7299   1.7591   1.7687   1.7794   1.8383   1.8736
     1.8981   1.9120   1.9350   1.9617   1.9894   2.0715   2.1350   2.1694
     2.1760   2.2277   2.2603   2.3534   2.3833   2.4231   2.7207   2.8814
     2.9318   3.2310   3.4417   3.4797   3.5508   3.7030   4.0031   4.2310
     4.3534   4.3845   4.5143   4.7747   5.1160   5.3646   5.5875   5.6810
     5.8386   6.0774   6.3012   6.3927   6.4123   6.4547   6.7573

          k = 0.4000-0.2309 0.0000 ( 87156 PWs)   bands (ev):

   -19.8743  -9.1556  -6.3561  -5.8735  -5.6338  -5.0367  -4.7482  -4.6214
    -4.6139  -4.4454  -4.2847  -4.1080  -4.0641  -3.9679  -3.9055  -3.8884
    -3.8534  -3.7229  -3.6867  -3.6638  -3.6606  -3.6360  -3.5340  -3.5023
    -3.4865  -3.4563  -3.4436  -3.4108  -3.3528  -3.3205  -3.3063  -3.2693
    -3.0775  -3.0601  -3.0430  -3.0357  -3.0295  -3.0031  -2.8092  -2.8024
    -2.7905  -2.7749  -2.7604  -2.7307  -2.5684  -2.5095  -2.4791  -2.4707
    -2.4475  -2.4113  -2.4025  -2.3379  -2.3178  -2.3016  -2.2747  -2.2497
    -2.1259  -2.1089  -2.0835  -2.0649  -1.9570  -1.9436  -1.9064  -1.8874
    -1.8533  -1.7355  -1.7149  -1.6790  -1.6699  -1.6446  -1.5951  -1.5579
    -1.5361  -1.4991  -1.4344  -1.4208  -1.4005  -1.3671  -1.3272  -1.3128
    -1.2856  -1.2721  -1.2352  -1.2209  -1.1930  -1.1770  -1.1713  -1.1534
    -1.1326  -1.1212  -1.0961  -1.0626  -1.0207  -1.0042  -0.9922  -0.9710
    -0.9651  -0.9185  -0.8571  -0.8217  -0.7993  -0.7609  -0.7493  -0.7209
    -0.7005  -0.6669  -0.6386  -0.5867  -0.5600  -0.5338  -0.5008  -0.4414
    -0.4301  -0.3798  -0.3137  -0.2784  -0.2586  -0.1944  -0.1684  -0.1520
    -0.1252  -0.0862  -0.0729  -0.0498  -0.0214  -0.0013   0.0123   0.0286
     0.0333   0.0703   0.0963   0.1083   0.1312   0.1643   0.2470   0.2692
     0.2853   0.3148   0.3767   0.4562   0.4691   0.5021   0.5602   0.6187
     0.6643   0.7193   0.7582   0.7692   0.7943   0.8220   0.8394   0.8757
     0.9081   0.9250   0.9516   0.9760   1.0112   1.0475   1.1001   1.1151
     1.1226   1.1334   1.1675   1.2440   1.2980   1.3313   1.3812   1.3917
     1.4125   1.4851   1.5088   1.5209   1.5528   1.5798   1.6249   1.6584
     1.6936   1.7008   1.7206   1.7597   1.8145   1.8423   1.8444   1.8713
     1.8742   1.8983   1.9180   2.0487   2.0839   2.0922   2.1183   2.1305
     2.1755   2.2516   2.3474   2.5512   2.6422   2.8231   3.0237   3.1501
     3.1694   3.4207   3.5422   3.5995   3.8176   3.9783   4.2586   4.3886
     4.4201   4.4885   4.6028   4.6928   4.8058   4.9596   5.0542   5.2062
     5.5487   5.7909   6.0328   6.2519   6.5571   6.8051   6.9035

          k = 0.4000-0.0000 0.0000 ( 87170 PWs)   bands (ev):

   -19.8743  -9.1575  -6.4861  -5.8597  -5.2398  -5.2303  -5.1087  -4.7068
    -4.3282  -4.1653  -4.1580  -4.1322  -4.1079  -4.0839  -4.0731  -3.9925
    -3.9708  -3.9085  -3.8884  -3.5923  -3.5708  -3.5607  -3.5553  -3.4914
    -3.4586  -3.3495  -3.3418  -3.3246  -3.3131  -3.2571  -3.2120  -3.1820
    -3.1707  -3.1541  -3.1274  -3.0804  -3.0686  -3.0167  -2.9732  -2.9529
    -2.9019  -2.6704  -2.5925  -2.5845  -2.5526  -2.5383  -2.5180  -2.5106
    -2.4851  -2.4422  -2.4222  -2.3121  -2.2945  -2.2596  -2.1883  -2.1515
    -2.1192  -2.0978  -2.0801  -2.0307  -2.0041  -1.8795  -1.8252  -1.8241
    -1.7543  -1.7200  -1.7061  -1.6952  -1.6726  -1.6473  -1.6292  -1.5302
    -1.4895  -1.4545  -1.4484  -1.4294  -1.4051  -1.3677  -1.3480  -1.3150
    -1.2906  -1.2618  -1.2131  -1.1695  -1.1596  -1.1385  -1.1218  -1.1074
    -1.0787  -1.0634  -1.0540  -1.0310  -1.0151  -0.9717  -0.9339  -0.9014
    -0.8743  -0.8391  -0.8263  -0.8202  -0.7925  -0.7693  -0.7464  -0.7304
    -0.7174  -0.6975  -0.6846  -0.6655  -0.6431  -0.6176  -0.5791  -0.5368
    -0.5102  -0.4735  -0.4063  -0.3788  -0.3614  -0.3176  -0.2067  -0.1758
    -0.1403  -0.0737  -0.0532  -0.0330  -0.0025   0.0182   0.0300   0.0524
     0.0880   0.1127   0.1330   0.1532   0.2047   0.3025   0.3298   0.3616
     0.3853   0.4161   0.4343   0.4677   0.5235   0.5371   0.6132   0.6289
     0.6646   0.6833   0.7216   0.7371   0.7909   0.8202   0.8469   0.8741
     0.8906   0.9215   0.9422   0.9504   0.9702   0.9803   1.0032   1.0282
     1.1079   1.1657   1.1903   1.2719   1.3056   1.3536   1.4376   1.4762
     1.4960   1.5342   1.5666   1.6040   1.6242   1.6471   1.6604   1.6917
     1.7037   1.7149   1.7282   1.7547   1.7637   1.7846   1.8344   1.8614
     1.8915   1.9187   1.9313   1.9436   1.9894   2.0888   2.1323   2.1716
     2.1884   2.2298   2.2521   2.3409   2.3709   2.4243   2.8475   2.9043
     2.9246   3.2947   3.3256   3.4690   3.4936   3.8691   3.9802   4.2464
     4.3585   4.4008   4.4903   4.7385   5.0768   5.3338   5.5902   5.7493
     5.8939   5.9861   6.3637   6.3821   6.4116   6.4889   6.6416

          k = 0.4000 0.2309 0.0000 ( 87156 PWs)   bands (ev):

   -19.8743  -9.1586  -6.3543  -5.8821  -5.6267  -5.0219  -4.7412  -4.6406
    -4.6136  -4.4156  -4.2468  -4.1950  -4.0969  -3.9714  -3.9078  -3.8882
    -3.8593  -3.7239  -3.6913  -3.6642  -3.6554  -3.6105  -3.5413  -3.5044
    -3.4967  -3.4536  -3.4293  -3.4132  -3.3526  -3.3186  -3.3099  -3.2724
    -3.0649  -3.0503  -3.0460  -3.0412  -3.0036  -2.9970  -2.8010  -2.8005
    -2.7760  -2.7744  -2.7308  -2.6781  -2.5892  -2.4869  -2.4716  -2.4613
    -2.4462  -2.4096  -2.3970  -2.3382  -2.3056  -2.3049  -2.2694  -2.2674
    -2.1235  -2.1057  -2.0745  -2.0664  -1.9518  -1.9375  -1.8915  -1.8729
    -1.8645  -1.7362  -1.7016  -1.6842  -1.6740  -1.6422  -1.6183  -1.5534
    -1.5404  -1.4981  -1.4904  -1.4411  -1.4212  -1.3737  -1.3226  -1.3173
    -1.3010  -1.2536  -1.2488  -1.2186  -1.1890  -1.1873  -1.1667  -1.1507
    -1.1494  -1.1254  -1.0993  -1.0682  -1.0097  -1.0002  -0.9930  -0.9757
    -0.9425  -0.9207  -0.8765  -0.8255  -0.8054  -0.7748  -0.7332  -0.7289
    -0.7047  -0.6798  -0.6719  -0.5779  -0.5463  -0.5242  -0.4802  -0.4768
    -0.4428  -0.4293  -0.3165  -0.2634  -0.2312  -0.2031  -0.1783  -0.1430
    -0.1280  -0.0905  -0.0869  -0.0428  -0.0324  -0.0189   0.0062   0.0325
     0.0658   0.0698   0.0938   0.0950   0.1157   0.2020   0.2483   0.2489
     0.2681   0.3350   0.4215   0.4555   0.4816   0.5277   0.5544   0.6328
     0.6405   0.6852   0.7349   0.7412   0.7750   0.8369   0.8386   0.8643
     0.8872   0.9374   0.9548   0.9573   1.0157   1.0320   1.0890   1.1122
     1.1300   1.1504   1.1748   1.2031   1.3119   1.3242   1.3966   1.4078
     1.4139   1.4980   1.5020   1.5311   1.5413   1.5853   1.6156   1.6639
     1.6911   1.7066   1.7193   1.7644   1.8125   1.8527   1.8604   1.8628
     1.8831   1.9136   1.9211   1.9656   2.0888   2.1146   2.1268   2.1308
     2.1560   2.2554   2.3474   2.6409   2.7105   2.8010   3.0312   3.1501
     3.1709   3.4307   3.5446   3.6930   3.9008   3.9037   4.1322   4.3907
     4.4051   4.4567   4.5789   4.7241   4.8021   5.0352   5.0629   5.3570
     5.4861   5.7093   5.9633   6.2993   6.5542   6.8569   6.8621

          k = 0.4000-0.6928 0.0000 ( 87160 PWs)   bands (ev):

   -19.8743  -9.1574  -6.0493  -5.9359  -5.7056  -5.3073  -4.8325  -4.7040
    -4.5085  -4.2656  -4.1447  -4.0434  -4.0105  -3.9691  -3.8690  -3.8155
    -3.7680  -3.7351  -3.6841  -3.6404  -3.6252  -3.6013  -3.5905  -3.5681
    -3.5008  -3.4412  -3.4235  -3.4130  -3.3860  -3.3601  -3.2843  -3.2476
    -3.1708  -3.0987  -3.0545  -3.0262  -3.0101  -2.9806  -2.9610  -2.8967
    -2.8544  -2.7979  -2.7454  -2.5959  -2.5871  -2.5659  -2.4738  -2.4430
    -2.3994  -2.3891  -2.2743  -2.2668  -2.2264  -2.2028  -2.1696  -2.1384
    -2.1065  -2.0845  -2.0082  -1.9915  -1.9833  -1.9640  -1.9395  -1.9327
    -1.9051  -1.8805  -1.8461  -1.7625  -1.7281  -1.7028  -1.6714  -1.6062
    -1.5843  -1.5342  -1.5050  -1.4881  -1.4629  -1.4552  -1.4234  -1.4139
    -1.3598  -1.3360  -1.3058  -1.2868  -1.2666  -1.1901  -1.1585  -1.1378
    -1.1049  -1.1024  -1.0842  -1.0365  -0.9799  -0.9495  -0.9127  -0.9037
    -0.8655  -0.8480  -0.8388  -0.8093  -0.8049  -0.7890  -0.7602  -0.7420
    -0.7165  -0.6940  -0.6782  -0.6673  -0.6426  -0.6376  -0.6355  -0.6214
    -0.5924  -0.5735  -0.3919  -0.3431  -0.3042  -0.2628  -0.2299  -0.1736
    -0.1525  -0.1282  -0.1109  -0.0897  -0.0664  -0.0400   0.0136   0.0298
     0.0572   0.0814   0.1080   0.1576   0.2045   0.2183   0.2510   0.2992
     0.3711   0.4019   0.4378   0.4819   0.5124   0.5578   0.5753   0.5952
     0.6093   0.6499   0.6571   0.6844   0.6927   0.7520   0.7953   0.8156
     0.8482   0.8679   0.8961   0.9018   0.9246   0.9537   1.0440   1.0846
     1.1558   1.2151   1.2729   1.3009   1.3480   1.3849   1.4328   1.4619
     1.4878   1.5348   1.5894   1.6221   1.6472   1.6493   1.6757   1.7030
     1.7366   1.7599   1.7999   1.8395   1.8561   1.8594   1.8817   1.9038
     1.9089   1.9738   2.0206   2.0686   2.1216   2.1320   2.1347   2.1441
     2.1903   2.2834   2.3694   2.4531   3.1070   3.2799   3.2911   3.4161
     3.5465   3.5797   3.6572   3.6846   3.8621   4.1804   4.2954   4.4644
     4.4894   4.7522   4.8134   4.8937   4.9481   5.1116   5.1904   5.2322
     5.3141   5.5360   5.7252   5.8052   6.2341   6.3687   6.4003

          k = 0.4000-0.4619 0.0000 ( 87160 PWs)   bands (ev):

   -19.8743  -9.1556  -6.0530  -5.9270  -5.7152  -5.2986  -4.8365  -4.7363
    -4.4978  -4.2393  -4.1344  -4.0370  -4.0059  -3.9569  -3.8715  -3.8300
    -3.7670  -3.7457  -3.6496  -3.6403  -3.6335  -3.5995  -3.5854  -3.5714
    -3.5084  -3.4347  -3.4283  -3.4201  -3.3828  -3.3762  -3.2997  -3.1983
    -3.1699  -3.1138  -3.0550  -3.0312  -3.0182  -2.9850  -2.9704  -2.9221
    -2.8763  -2.7905  -2.7700  -2.6041  -2.5935  -2.5517  -2.4860  -2.4511
    -2.4077  -2.3826  -2.2905  -2.2569  -2.2226  -2.1996  -2.1836  -2.1347
    -2.1134  -2.0860  -2.0133  -1.9883  -1.9813  -1.9683  -1.9438  -1.9290
    -1.9045  -1.8785  -1.8626  -1.7614  -1.7399  -1.7010  -1.6714  -1.6331
    -1.5493  -1.5236  -1.5169  -1.4703  -1.4518  -1.4466  -1.4035  -1.3855
    -1.3507  -1.3306  -1.3120  -1.2693  -1.2455  -1.2284  -1.1654  -1.1201
    -1.1069  -1.0946  -1.0846  -1.0278  -0.9686  -0.9475  -0.9172  -0.8977
    -0.8683  -0.8561  -0.8320  -0.8221  -0.7947  -0.7741  -0.7648  -0.7447
    -0.7244  -0.7015  -0.6704  -0.6643  -0.6547  -0.6439  -0.6358  -0.6108
    -0.5614  -0.5210  -0.4223  -0.3344  -0.2820  -0.2711  -0.2556  -0.1806
    -0.1619  -0.1370  -0.1142  -0.0864  -0.0710  -0.0438  -0.0232   0.0370
     0.0520   0.0779   0.1017   0.1463   0.2003   0.2336   0.2673   0.2910
     0.4037   0.4303   0.4462   0.4917   0.5087   0.5463   0.5646   0.5907
     0.6212   0.6508   0.6685   0.6890   0.7086   0.7587   0.7876   0.8027
     0.8433   0.8695   0.8890   0.9152   0.9429   0.9668   1.0337   1.0738
     1.1660   1.2177   1.2430   1.3175   1.3437   1.3748   1.4107   1.4556
     1.4746   1.5373   1.5673   1.6299   1.6534   1.6740   1.6859   1.7088
     1.7310   1.7573   1.7936   1.8400   1.8562   1.8680   1.8812   1.9005
     1.9060   1.9868   2.0519   2.0723   2.1086   2.1204   2.1355   2.1538
     2.1936   2.2966   2.3504   2.4637   3.0679   3.1951   3.2843   3.3123
     3.5544   3.6320   3.6667   3.7081   3.9763   4.1948   4.2789   4.3473
     4.4507   4.7654   4.8438   4.8801   4.9675   5.0503   5.1617   5.2544
     5.4404   5.6127   5.6802   5.7681   6.1851   6.3468   6.3900

     the Fermi energy is     1.9037 ev

!    total energy              =  -27816.95654374 Ry

     total all-electron energy =  -1326870.332953 Ry
     estimated scf accuracy    <       0.00000073 Ry
     smearing contrib. (-TS)   =       0.00148420 Ry
     internal energy E=F+TS    =  -27816.95802794 Ry

     The total energy is F=E-TS. E is the sum of the following terms:
     one-electron contribution =  -25959.36056670 Ry
     hartree contribution      =   13283.06766476 Ry
     xc contribution           =    -903.23870958 Ry
     ewald contribution        =   11253.23993132 Ry
     one-center paw contrib.   =  -25490.66634774 Ry

     convergence has been achieved in  16 iterations

     negative rho (up, down):  1.307E-02 0.000E+00

     Forces acting on atoms (cartesian axes, Ry/au):

     atom    1 type  1   force =     0.00024667    0.00012194   -0.00231969
     atom    2 type  1   force =     0.00082204   -0.00060358   -0.00404778
     atom    3 type  1   force =    -0.00096530    0.00011394   -0.00325860
     atom    4 type  1   force =    -0.00009679    0.00102323   -0.00407686
     atom    5 type  1   force =     0.00101428    0.00059107   -0.00678180
     atom    6 type  1   force =    -0.00051477   -0.00000510   -0.00321639
     atom    7 type  1   force =    -0.00036873   -0.00090491   -0.00327146
     atom    8 type  1   force =    -0.00027674   -0.00043741   -0.00321896
     atom    9 type  1   force =    -0.00013018   -0.00007552   -0.00435217
     atom   10 type  1   force =    -0.00153132   -0.00088820   -0.00292762
     atom   11 type  1   force =    -0.00067336   -0.00175406    0.00054932
     atom   12 type  1   force =     0.00137578    0.00040640    0.00711149
     atom   13 type  1   force =    -0.00185816    0.00027968    0.00054024
     atom   14 type  1   force =    -0.00225270   -0.00130009    0.00465614
     atom   15 type  1   force =     0.00110883   -0.00126541    0.00532145
     atom   16 type  1   force =     0.00105366    0.00099040    0.00711045
     atom   17 type  1   force =    -0.00053735    0.00160886    0.00533642
     atom   18 type  1   force =    -0.00041444   -0.00022212    0.00538569
     atom   19 type  1   force =     0.00040975   -0.00016888   -0.00021015
     atom   20 type  1   force =     0.00021313    0.00013207    0.00047192
     atom   21 type  1   force =     0.00003789    0.00029115   -0.00034779
     atom   22 type  1   force =     0.00032784   -0.00002554    0.00013862
     atom   23 type  1   force =     0.00025156   -0.00009833   -0.00032344
     atom   24 type  1   force =     0.00004107    0.00003470    0.00073301
     atom   25 type  1   force =     0.00007805    0.00006135   -0.00043221
     atom   26 type  1   force =     0.00006532    0.00047196   -0.00022297
     atom   27 type  1   force =     0.00011696    0.00033255    0.00011244
     atom   28 type  1   force =    -0.00028717   -0.00016133    0.00004526
     atom   29 type  1   force =     0.00052171    0.00049102    0.00027004
     atom   30 type  1   force =     0.00003117   -0.00026752    0.00007522
     atom   31 type  1   force =     0.00067988    0.00024351    0.00028422
     atom   32 type  1   force =    -0.00002569    0.00002881    0.00035113
     atom   33 type  1   force =     0.00075144    0.00048256    0.00045968
     atom   34 type  1   force =    -0.00022053    0.00016358    0.00009504
     atom   35 type  1   force =     0.00075215    0.00045514    0.00043611
     atom   36 type  1   force =     0.00051325    0.00032463    0.00066135
     atom   37 type  2   force =     0.00486661    0.00231422    0.00558272
     atom   38 type  3   force =    -0.00095536   -0.00046463   -0.00096716
     atom   39 type  4   force =    -0.00417045   -0.00232014   -0.00575291

     Total force =     0.011167     Total SCF correction =     0.001027

     negative rho (up, down):  1.307E-02 0.000E+00

     negative rho (up, down):  1.307E-02 0.000E+00

     negative rho (up, down):  1.307E-02 0.000E+00

     negative rho (up, down):  1.307E-02 0.000E+00

     negative rho (up, down):  1.307E-02 0.000E+00

     negative rho (up, down):  1.307E-02 0.000E+00

     negative rho (up, down):  1.307E-02 0.000E+00

     negative rho (up, down):  1.307E-02 0.000E+00

     negative rho (up, down):  1.307E-02 0.000E+00

     negative rho (up, down):  1.307E-02 0.000E+00

     negative rho (up, down):  1.307E-02 0.000E+00

     negative rho (up, down):  1.307E-02 0.000E+00

     negative rho (up, down):  1.307E-02 0.000E+00

     negative rho (up, down):  1.307E-02 0.000E+00

     negative rho (up, down):  1.307E-02 0.000E+00

     negative rho (up, down):  1.307E-02 0.000E+00

     negative rho (up, down):  1.307E-02 0.000E+00

     negative rho (up, down):  1.307E-02 0.000E+00

     negative rho (up, down):  1.307E-02 0.000E+00

     negative rho (up, down):  1.307E-02 0.000E+00

     negative rho (up, down):  1.307E-02 0.000E+00

     negative rho (up, down):  1.307E-02 0.000E+00

     negative rho (up, down):  1.307E-02 0.000E+00

     negative rho (up, down):  1.307E-02 0.000E+00

     negative rho (up, down):  1.307E-02 0.000E+00

     negative rho (up, down):  1.307E-02 0.000E+00

     negative rho (up, down):  1.307E-02 0.000E+00

     negative rho (up, down):  1.307E-02 0.000E+00

     negative rho (up, down):  1.307E-02 0.000E+00

     negative rho (up, down):  1.307E-02 0.000E+00

     negative rho (up, down):  1.307E-02 0.000E+00

     negative rho (up, down):  1.307E-02 0.000E+00

     negative rho (up, down):  1.307E-02 0.000E+00

     negative rho (up, down):  1.307E-02 0.000E+00
 BEEFens 2000 ensemble energies
             -0.604142622910204E+02
             -0.360625774596446E+01
             -0.157920625205574E+02
              0.427712149937856E+02
             -0.220407959624570E+02
             -0.204837708671162E+02
             -0.350191833663357E+02
             -0.861048404113541E+02
             -0.464216533422238E+02
             -0.471747608599046E+02
             -0.367868183306491E+02
              0.223519515783008E+01
              0.405027687756839E+01
              0.767928875536174E+01
              0.263967478676062E+01
              0.473105889824886E+02
             -0.208212901024321E+02
             -0.230307516217679E+02
              0.191894126895702E+02
             -0.111970818230501E+03
              0.534121764218118E+02
             -0.289332817017854E+02
             -0.331678448480140E+01
             -0.113874155787709E+02
             -0.888139723503252E+01
             -0.463481396810380E+01
              0.879498599737302E+02
             -0.185838240113789E+02
             -0.898405880271264E+01
             -0.516113472966431E+02
              0.813453091109518E+02
             -0.187625032665645E+02
             -0.373353480338907E+02
              0.248837239416560E+02
             -0.283441293788297E+01
              0.162549191134250E+02
             -0.488280882286529E+01
              0.108452881794148E+02
              0.286422737088416E+02
             -0.102919798440134E+03
              0.556301207158828E+02
              0.141890989234703E+02
             -0.163634280489856E+01
             -0.360582988584111E+02
              0.122704528746685E+02
             -0.145905540243348E+02
              0.396231471132273E+02
              0.363604505418942E+02
             -0.307765804384693E+02
             -0.273806698215793E+02
             -0.327177156314798E+02
             -0.350609945860514E+02
              0.135069542833864E+02
             -0.488868276270991E+02
              0.114819866874140E+02
              0.620754658595601E+02
              0.632089269796697E+02
              0.354763588273426E+02
              0.153558655224556E+02
              0.269021312460725E+02
              0.887909969059456E+02
              0.212330900846858E+02
             -0.546521159202943E+02
             -0.156937736567418E+02
             -0.234661285757082E+02
              0.627502554912665E+02
             -0.771017402180960E+02
             -0.669677376303606E+02
             -0.257835556804026E+02
             -0.634900747354186E+01
             -0.469700789372438E+02
              0.269646419532926E+02
              0.795252443597724E+01
              0.859996890779786E+01
             -0.395750408484840E+02
             -0.345469007925778E+02
             -0.539441341520186E+02
              0.389469756208954E+02
             -0.294525162067962E+02
              0.263763159072278E+02
             -0.711106917342960E+01
             -0.317103718880493E+02
             -0.574703064861863E+02
             -0.176158473897360E+02
             -0.897469234401683E+01
             -0.124268970918216E+02
              0.410781520717841E+02
              0.679398315946165E+02
             -0.383680513849703E+02
             -0.791682064115516E+02
             -0.218997702582409E+02
              0.111111286749339E+03
             -0.590309056514320E+02
              0.355072575110079E+02
             -0.951681269182927E+01
             -0.661226380995965E+02
              0.253368822344685E+02
              0.397228760804920E+02
             -0.198265130306800E+02
              0.399435032163658E+02
             -0.295233492853672E+02
             -0.475395719518922E+02
              0.861598050092233E+02
              0.452242299325122E+02
              0.336055373871205E+02
              0.145991904692213E+02
              0.204525996200459E+02
              0.853515753169594E+02
             -0.255694975300287E+02
              0.787547571672475E+01
             -0.141892973929967E+03
              0.180630473784417E+02
             -0.713865251808585E+02
              0.150519314284540E+02
              0.203742922865110E+02
             -0.331291798574997E+02
             -0.555476403314444E+02
              0.654589590170281E+01
             -0.302941469610794E+02
              0.305886543854384E+02
             -0.528257266112954E+02
              0.177201048397353E+01
             -0.355447081729635E+02
             -0.422421755650589E+01
             -0.108720041729001E+01
              0.179950505560205E+02
              0.143375953587554E+01
             -0.650112702210129E+01
              0.587530011663392E+02
              0.904707498191959E+02
              0.482180768691437E+02
              0.828448343545914E+02
             -0.114621374007203E+02
              0.142934567729390E+02
              0.539227231831403E+02
             -0.111582033672855E+02
             -0.732820656894763E+02
             -0.382167088409985E+02
             -0.519940810850390E+02
             -0.275573823066536E+02
              0.326347824956633E+02
             -0.116305668784079E+03
             -0.186869862415248E+02
              0.412113748239649E+02
             -0.384697353326378E+02
             -0.364569705071902E+02
              0.541615495734634E+02
              0.398749833596740E+02
             -0.353051862691740E+02
              0.135795182878448E+02
             -0.272251580900325E+02
              0.341672323951984E+02
              0.443255609986392E+01
              0.211035590295210E+02
             -0.881838785355947E+02
             -0.478422109024097E+02
             -0.992288036347986E+01
              0.324913188067683E+01
             -0.364936220711879E+02
              0.105581025883332E+03
             -0.230782407018522E+02
             -0.397917391988788E+02
              0.387414233934953E+02
             -0.492665810931012E+02
             -0.361700107193800E+02
              0.323504998473134E+02
              0.123940359070072E+02
              0.164183753018574E+02
              0.115677179828564E+02
             -0.132464871417195E+02
              0.225133037124421E+02
              0.587972202690616E+02
             -0.310789352955889E+02
              0.161455448087378E+02
              0.931142520555215E+02
              0.339532122338211E+02
             -0.728322068947557E+01
             -0.187688676136737E+02
              0.152741484499551E+03
             -0.162856553968301E+02
              0.361644542144064E+02
              0.192940140739519E+02
              0.360886393697229E+02
              0.888455603237495E+02
              0.541315877833131E+02
             -0.237476969179882E+01
              0.226620985345663E+02
              0.482755609082053E+02
              0.362005391277604E+02
             -0.522981118856497E+02
              0.932353221890049E+02
             -0.822322409913409E+02
             -0.197994505275881E+02
              0.580761605993629E+02
              0.665142091043423E+01
              0.787280747147702E+01
              0.340060224227910E+02
              0.298868583012368E+02
              0.352460371783654E+02
             -0.635252537076043E+02
              0.286499372185324E+01
             -0.296787271641937E+02
             -0.869515250638823E+01
             -0.144021430849352E+01
             -0.715891414095399E+01
             -0.411983415931388E+01
              0.856211628361133E+02
             -0.101003919796756E+02
             -0.275299480533171E+02
             -0.497042840229568E+01
              0.139318238060056E+02
             -0.561345932090978E+02
             -0.404610299765413E+02
             -0.380843419351989E+02
             -0.627819151255060E+02
             -0.168882535467375E+02
             -0.445982789508556E+02
              0.162700226657231E+02
             -0.242107907250700E+01
             -0.103828800309907E+02
             -0.931451742784213E+01
              0.806629952150246E+01
             -0.242687624640390E+02
              0.686859393189886E+02
             -0.803564047496519E+02
             -0.140565436759540E+02
             -0.173658474422053E+02
              0.181452050025262E+02
              0.213407693414616E+02
             -0.461698487005751E+02
             -0.201652447991722E+02
              0.439124821648414E+02
             -0.275613273781729E+02
              0.186497539714574E+02
              0.381733165172249E+02
             -0.322360058820016E+01
              0.113698889962875E+03
             -0.230031618042907E+02
             -0.339737984373421E+02
              0.579917940697959E+01
             -0.226993256470097E+02
              0.525386990876190E+02
             -0.334970992882439E+02
              0.105850030458822E+02
              0.639071537808206E+02
             -0.125838802163024E+02
              0.119787111332432E+03
              0.125376947841963E+03
             -0.647054143379933E+02
              0.588364394093823E+02
              0.165325033106931E+02
             -0.515462190361604E+02
              0.215650439991827E+02
              0.351937027831301E+02
              0.360584248744728E+02
              0.132992042000652E+01
              0.158822660647537E+02
              0.692672507079221E+02
             -0.246062679974022E+02
              0.181121989435052E+02
              0.736651592634511E+02
             -0.371218026401633E+02
             -0.128398351063719E+02
              0.506034204486156E+02
              0.296160275339721E+02
              0.777417126369123E+02
              0.221087128218894E+02
              0.617273604000923E+01
              0.279484713452683E+02
              0.381536239356280E+02
             -0.469435260750348E+02
              0.326609435937496E+01
              0.128253810176330E+02
              0.113228482696885E+02
              0.219497935409399E+02
             -0.572327673481770E+02
              0.364994390309363E+02
             -0.442280694387641E+02
             -0.346227545024022E+02
              0.177099391462322E+02
             -0.181347211158239E+02
              0.552527776339723E+02
             -0.256021022819006E+02
              0.265552578575755E+02
              0.367181728500041E+02
              0.826348568575326E+02
              0.572792331868774E+02
              0.459669730720231E+02
             -0.105892640188183E+02
             -0.384501176497980E+01
             -0.331011389724604E+02
              0.747257630456640E+02
              0.793913946150372E+02
              0.360252126772734E+02
             -0.190652201658515E+02
              0.509982371342440E+02
             -0.163228139108820E+02
              0.214399336095644E+02
              0.611570302587420E+02
              0.215729285085467E+01
             -0.103978463582714E+02
             -0.282445070282637E+02
             -0.508911851100912E+02
              0.941627698154394E+02
              0.437462081252611E+02
             -0.556320342955624E+02
             -0.952208262734223E+01
              0.248985194938443E+02
             -0.993256217900722E+01
              0.589433976730437E+02
              0.151577338256439E+02
              0.796031422131095E+02
              0.278144469096000E+02
             -0.263271787581111E+02
              0.248493510600506E+02
             -0.498669887801969E+01
             -0.322926021783742E+02
              0.132547636976537E+02
              0.205278133454919E+02
              0.929286246703803E+02
              0.794521620342200E+02
              0.548696571790101E+02
              0.728404213931171E+02
              0.798090664164752E+01
             -0.272815635384422E+02
              0.162678660742755E+02
             -0.366803716512614E+02
             -0.473867362657991E+02
             -0.561499394003063E+02
             -0.265182544632853E+02
             -0.109291805630305E+03
             -0.289752304449446E+02
             -0.833863444695334E+02
              0.209216243560485E+02
             -0.475368089957061E+02
              0.394556910586615E+02
             -0.937365203055920E+02
             -0.329001815436645E+02
              0.547510557975327E+02
              0.206836796176651E+02
             -0.826936827165129E+02
              0.629298767903015E+02
             -0.255595399445490E+02
              0.510241537209318E+02
             -0.241634954766167E+02
             -0.748257470063973E+02
              0.111178900733707E+02
             -0.608668131186570E+02
             -0.168454038396180E+02
             -0.147294074108101E+01
              0.416749330294764E+02
              0.126525562436123E+03
             -0.460200804499976E+02
             -0.361140888078462E+02
             -0.940599680957348E+00
             -0.130183259434694E+02
             -0.819523585925436E+02
             -0.594724888348704E+02
              0.515431546975818E+02
             -0.288552875200849E+02
              0.168174594773200E+02
             -0.487518659825320E+02
             -0.131156602147252E+02
             -0.435703181777017E+02
              0.563850717128991E+02
              0.150772732099730E+02
             -0.230684096007602E+02
             -0.126035732352037E+02
              0.660769445339449E+01
             -0.616466684024635E+01
              0.440125882101886E+02
             -0.251018348034414E+02
              0.269574890372292E+01
              0.338006857010127E+02
              0.170992791783323E+02
             -0.158640686195594E+02
              0.155685202545044E+03
              0.535495356336121E+02
              0.110796400332458E+01
              0.161554771753414E+02
             -0.612471532938285E+02
              0.313662890665285E+02
             -0.718602753624415E+02
             -0.250574925692312E+02
             -0.520263059524823E+02
             -0.219403143208045E+02
              0.566832002968957E+02
             -0.534748244319879E+02
              0.159555454520839E+02
             -0.406568061357154E+01
              0.387743742839848E+01
             -0.432924492317774E+02
             -0.476875904909633E+02
             -0.396885397718665E+01
             -0.424084326483977E+02
             -0.216364154882761E+02
             -0.436941089248380E+02
             -0.119220706867843E+02
             -0.357832658837621E+02
             -0.514747137773667E+02
              0.212054412474570E+02
             -0.209039612065830E+02
              0.186761230163188E+02
              0.972599206110644E+01
             -0.735055717663473E+02
             -0.546313932922071E+02
             -0.395934466502141E+02
              0.353155047860566E+02
              0.275544549272638E+01
             -0.624412655892164E+02
              0.583528734282472E+02
             -0.399495154015108E+02
              0.542383027015093E+02
             -0.288303726771718E+02
             -0.444101988079847E+02
              0.297717490329125E+02
             -0.654784478432961E+02
             -0.378927267624724E+02
              0.670738698556875E+02
              0.203237725853601E+02
             -0.358181728284812E+02
              0.487222010062959E+02
             -0.173391794378374E+02
             -0.321318384527758E+02
             -0.300697721617627E+02
             -0.498635650999482E+02
              0.248329436308171E+02
             -0.929865166579046E+02
             -0.837572804341360E+02
             -0.730783125792721E+01
             -0.305723612147331E+02
             -0.573211899257729E+02
              0.718826486677273E+02
              0.130990127296527E+03
             -0.360521011355059E+02
             -0.253146195617069E+01
             -0.634947739452886E+02
              0.648020158788235E+02
              0.169782558775962E+02
             -0.180701443072870E+02
             -0.408768486923033E+02
              0.148108861596951E+02
             -0.583912815688419E+02
             -0.197503705652468E+02
             -0.901565173068161E+02
              0.335624512788430E+02
              0.168733891584460E+02
              0.188293787579357E+01
             -0.699539985929641E+01
             -0.327742732478614E+02
             -0.752121736412727E+01
              0.124978068336839E+03
             -0.198505225573784E+02
             -0.435427312219646E+02
             -0.681230762296625E+02
              0.108640902952259E+02
             -0.340549157561977E+02
              0.585402641058508E+01
              0.260078224263739E+02
              0.102015577066424E+02
              0.276357961791282E+02
              0.119030363473389E+02
              0.627466559514341E+02
              0.316076718147919E+02
             -0.325056147873331E+02
              0.353031724769289E+02
              0.378296848318595E+02
              0.120396864385407E+02
              0.485872676978287E+02
             -0.223283815798798E+02
              0.763125412582959E+02
              0.171093346982442E+02
             -0.270701681869555E+02
             -0.721736645089243E+01
             -0.185795654545147E+02
              0.261546803831790E+02
             -0.233588640744470E+02
             -0.481688263225806E-01
             -0.843413190689625E+01
              0.806677821719753E+02
              0.497713535278491E+02
             -0.684893578869206E+02
             -0.471670698430898E+01
             -0.553738829813664E+02
             -0.159147388973759E+02
             -0.267568562029041E+02
              0.369995784393404E+01
              0.604216615316092E+00
             -0.256410084627520E+02
              0.805071642228575E+01
             -0.598694836031569E+01
             -0.128456448367868E+02
              0.855643321894686E+02
              0.181395767818752E+02
             -0.803697452677350E+02
             -0.457170715385440E+02
              0.941154339443747E+02
              0.276964209065117E+02
             -0.106536232422433E+02
              0.104133185280845E+03
             -0.194375286857722E+02
             -0.122872703361350E+02
             -0.533116662537498E+01
              0.106721411649916E+02
              0.270956264060784E+02
              0.780486750710443E+01
              0.304309811747013E+02
             -0.187739783680009E+02
             -0.301941558193330E+02
             -0.416392996769223E+02
             -0.475063429631208E+02
              0.462679708128690E+02
              0.126269543454711E+02
              0.386179627075880E+02
              0.132851162044087E+02
              0.852100773779871E+02
              0.155535792574715E+02
             -0.843256127657713E+02
             -0.333238427142684E+02
              0.133917826490759E+02
             -0.301808843526562E+02
              0.624067998653097E+02
             -0.878885984826184E+01
              0.148096454539612E+02
              0.494961823802290E+02
             -0.704057774154705E+02
              0.149184659376837E+03
              0.207967304577908E+02
              0.270454480740823E+02
              0.346086867645772E+02
              0.103735753956487E+02
             -0.156593113222078E+01
              0.357335914566130E+02
             -0.355789219437328E+02
              0.769767442266660E+02
              0.681800387153842E+02
             -0.404546594437649E+02
              0.148849950111908E+02
              0.667336194525107E+02
             -0.223157073792296E+02
              0.153430847383528E+02
              0.434187696902575E+02
              0.420776510240427E+02
             -0.782074137425625E+02
             -0.152709351427010E+02
             -0.355388400319833E+02
             -0.145783601420550E+01
             -0.762732582395495E+01
             -0.550310927249177E+01
             -0.180456019231708E+02
             -0.292538869120119E+02
              0.624665341608106E+01
              0.111670743944367E+02
              0.533644218943378E+02
             -0.388355759569257E+02
              0.372368739477484E+02
              0.436496900250782E+02
             -0.186573712338987E+02
              0.869744902325843E+02
             -0.695366584206294E+02
             -0.102796173353740E+03
             -0.655202016964158E+01
             -0.265777364797043E+01
              0.387278982480052E+01
              0.786520645165253E+02
             -0.107239784790869E+02
              0.415000564333615E+02
              0.441026599669475E+02
              0.383885263443151E+02
             -0.992763963097877E+01
              0.625536043989140E+02
             -0.132976908699354E+02
             -0.305730341360824E+02
             -0.478448741601454E+02
              0.582055368168263E+01
              0.368423675766357E+02
             -0.603031984533516E+01
              0.391958887413807E+02
             -0.176537274644915E+01
              0.653382333211397E+02
              0.186902105929540E+02
              0.995797744556174E+01
             -0.122093959392319E+02
              0.331177040324146E+02
              0.361002022439758E+02
              0.232360760427075E+02
             -0.492719566860870E+00
             -0.548454861723215E+02
              0.259528673592419E+02
              0.174344910220159E+02
              0.401582323048490E+02
              0.271094051817199E+02
              0.371080829208764E+02
             -0.599813395483025E+01
              0.249516224664941E+02
             -0.297461690612240E+02
             -0.196842110332977E+01
             -0.567384623764539E+02
             -0.306589263339095E+02
              0.377070564502802E+02
             -0.932445996247469E+02
              0.293693324943432E+02
              0.183604962380742E+02
              0.836909528654128E+02
             -0.300492141580693E+02
              0.328145255616331E+02
             -0.137393847340105E+02
             -0.462082521518127E+02
             -0.759457902668803E+02
             -0.517853562333183E+01
             -0.856457625293472E+02
              0.199748750032754E+02
             -0.246766642687549E+02
              0.304498190987115E+02
              0.235948738448742E+02
             -0.239892463101839E+02
             -0.264109320146412E+02
              0.389306770553654E+02
             -0.586053426861572E+02
             -0.116122857714625E+02
             -0.195559554297845E+02
              0.211502150311373E+02
             -0.896902254707010E+01
              0.361460499489056E+01
             -0.200238769513975E+02
              0.556846750427710E+02
             -0.436886453044979E+02
              0.786084723566887E+01
              0.583082838723970E+02
             -0.321831915720681E+02
              0.358524885950143E+01
             -0.885067116313508E+01
             -0.667156325176999E+02
             -0.481512571432562E+02
             -0.862294414667137E+01
              0.239474889839796E+02
              0.300927057896226E+02
              0.858329423450800E+01
             -0.408681798071802E+01
              0.151349479671253E+02
             -0.438564584843746E+02
              0.336609065728419E+01
             -0.529125677783457E+02
             -0.323860662702377E+02
              0.472768986020077E+02
             -0.294000685702683E+02
              0.619619761555535E+02
             -0.213717324771461E+02
              0.352551159315274E+02
              0.240785779715469E+02
             -0.641898502162604E+02
             -0.279623084540497E+02
              0.928436333108607E+01
             -0.370055141860330E+02
             -0.338002416278152E+02
             -0.826521087568399E+02
             -0.537297026646850E+02
             -0.508664570342387E+02
             -0.413780359225681E+02
             -0.984594133013758E+00
              0.983510638788039E+01
              0.967325776247662E+00
              0.151911531891566E+02
             -0.547149111668641E+02
              0.141329952005550E+02
              0.255473401358061E+02
             -0.664192970854492E+02
             -0.700108955805885E+02
             -0.429886752602542E+02
             -0.170408007704204E+02
              0.178104232737093E+02
              0.458340160440150E+01
             -0.424459959531211E+02
              0.365466986517025E+02
             -0.215182440911431E+02
              0.515528793687336E+02
             -0.883927099892701E+02
              0.595133321710937E+02
             -0.205427384448704E+01
             -0.366707180095521E+02
             -0.215299747134518E+02
              0.472359416849213E+01
              0.372553974423880E+02
             -0.753821873122786E+02
             -0.120319539775699E+02
             -0.216136662742148E+02
              0.509811533132395E+02
              0.861891037678944E+02
             -0.961411731030603E+02
              0.940697627425922E+02
              0.466486822152009E+02
             -0.722586314318991E+02
             -0.365570261225474E+02
              0.748891291533066E+02
              0.630020763492300E+02
             -0.180259251783348E+02
             -0.460306554590596E+01
              0.723330393428132E+01
              0.645925244484510E+02
             -0.506017543191786E+02
              0.158075377545613E+02
             -0.468806115396050E+01
              0.346972727715274E+02
             -0.744470205058992E+02
             -0.648448584500626E+01
             -0.350315931062941E+02
              0.458815485627042E+02
              0.467467577611583E+02
             -0.858494540396881E+02
             -0.485371549766505E+02
             -0.255574996256136E+02
             -0.337517094951471E+02
             -0.108886618122262E+02
             -0.242324316070246E+02
              0.425642966103968E+02
              0.399469488353768E+02
             -0.566078910021429E+01
             -0.414580648307568E+02
             -0.847206851226051E+02
              0.441079206646243E+02
             -0.521722651769543E+02
             -0.311453877327092E+02
              0.543799132543469E+01
             -0.321071487662354E+02
             -0.396465858229192E+02
             -0.238876338350888E+02
             -0.383246825202476E+02
             -0.269984903187437E+02
             -0.480695188816074E+02
              0.561958760587365E+02
              0.636138854760850E+02
             -0.165368682725932E+01
             -0.260576353594502E+02
             -0.629074967186386E+01
              0.439655176926238E+02
             -0.864867916751966E+02
             -0.145299886947359E+02
              0.521943764963603E+02
              0.660859789364106E+02
             -0.244412311256217E+02
              0.910912399576682E+01
              0.521584426193039E+02
              0.197657254628122E+02
             -0.830957193238339E+01
             -0.451820927492237E+02
              0.280210920432535E+02
             -0.351401240023563E+02
             -0.164729178340811E+02
             -0.152060350956643E+02
             -0.199815052801917E+02
              0.193844221445463E+02
              0.797346556825955E+02
              0.191836766232436E+01
              0.534297647781929E+01
             -0.884071635756131E+02
             -0.175156881808313E+02
             -0.351328831980559E+02
              0.276990739197373E+01
             -0.407758561080985E+02
              0.726813087826088E+02
              0.781416529325450E+02
              0.123271603301852E+02
             -0.140447341031083E+02
              0.143219433757792E+02
              0.259869452800649E+02
             -0.480309831178199E+02
             -0.870380151324275E+01
              0.137185791838880E+02
              0.164271647959517E+02
              0.561661072218361E+02
              0.420429273275171E+02
             -0.197129292986739E+02
              0.330346973763929E+02
             -0.964661455722972E+02
             -0.541995193521430E+00
              0.844194590709995E+02
              0.906198376183573E+01
              0.141796366496965E+01
              0.334517661630351E+02
             -0.297385258773091E+02
              0.955651968497353E+02
             -0.119774963273080E+02
              0.867114754640331E+02
              0.378837230864589E+02
[...]
              0.282807740172062E+02
              0.141303764352241E+03
              0.240974194401213E+02
              0.121790367144254E+02
             -0.462619735739966E+02
             -0.635709151171530E+02
             -0.188589395603041E+02
              0.328535304610539E+02
             -0.424833452266319E+01
              0.188788778300944E+02
              0.334769521249565E+02
             -0.584182343330817E+02
              0.221288498643395E+02
              0.581304321715802E+02
              0.550807750058242E+02
             -0.414864918568350E+01
             -0.141098842632982E+01
             -0.991481190907803E+01
             -0.480759496208531E+02
             -0.671978462621410E+02
              0.782679513303983E+02
             -0.518073023735764E+01
             -0.585950692707973E+02
              0.165978626185750E+01
             -0.203914565715592E+02
              0.935300523305149E+02
             -0.215609210402221E+02
             -0.352019400089860E+02
              0.333644450525417E+02
             -0.145059370079233E+02
              0.387655479973774E+02
             -0.240352573032595E+01
              0.100744445101210E+03
              0.487405216972954E+02
             -0.519350205915106E+01
             -0.320284159438763E+02
              0.231029244846666E+02
             -0.526396019854759E+02
             -0.127905952703623E+02
              0.583134353682249E+02
             -0.286744076983551E+02
             -0.436719651102334E+02
             -0.222249470344556E+02
              0.516726943863874E+02
              0.124408284124808E+02
             -0.845738276476688E+02
              0.302492260686890E+02
              0.152070208870576E+02
              0.571256426713703E+01
             -0.511620921823462E+02
             -0.383448999934598E+01
              0.321788412569965E+02
              0.511198072660198E+02
              0.629909733702214E+02
              0.227401719927745E+02
              0.726065227777468E+00
             -0.495674829268067E+02
             -0.508473282883242E+02
             -0.745627889984732E+02
             -0.607338452476608E+01
              0.307594495996739E+02
             -0.379670990406038E+01
              0.544926019606253E+02
             -0.316688172775397E+02
              0.165823178902937E+02
             -0.101447082568488E+02
             -0.288488335445321E+02
              0.583273598196142E+02
              0.790882686371128E+01
              0.601664627170994E+02
              0.506294315456148E+01
              0.264430115552489E+02
             -0.192107415593122E+02
              0.583778995706160E+02
             -0.110603825903760E+02
             -0.129225819308711E+00
             -0.787066424787249E+02
             -0.128197845872370E+02
              0.716415752796104E+02
              0.670784473014562E+02
              0.250779910599686E+02
             -0.129625304212164E+02
              0.340635668093290E+01
             -0.172404385096219E+02
             -0.193533647281743E+01
              0.904139158571477E+02
              0.120032268780187E+01
             -0.189039566790188E+02
             -0.110345112834714E+03
             -0.551295060874174E+02
             -0.373465801317540E+02
             -0.656291367069461E+02
             -0.553083733201655E+02
             -0.679824657724254E+02
             -0.445327502810272E+02
             -0.410088992199187E+02
             -0.449875113058212E+02
              0.481804487589656E+02
             -0.293799613297602E+02
             -0.992604175783955E+02
              0.417278997038734E+02
             -0.258541222190349E+02
             -0.787741982604954E+02
              0.939798780262091E+02
             -0.218595975129008E+02
              0.227664143520856E+02
              0.453810182076128E+02
             -0.143640716643574E+01
              0.253250598491853E+02
              0.469695579934228E+01
              0.407315524361447E+00
             -0.150095071479255E+02
             -0.712691945641041E+02
              0.132770044487507E+02
             -0.128939981829436E+03
              0.620960815816938E+02
             -0.439054082955319E+02
             -0.162030294605389E+02
             -0.157206646878267E+02
              0.702452797624945E+01
             -0.227241442660500E+02
              0.296053710902996E+02
             -0.518051406644464E+02
              0.365889071170722E+02
              0.368978355330316E+02
              0.168325130975209E+02
              0.100140973688571E+02
              0.196917028443405E+02
              0.616441107276563E+01
              0.309267347126779E+02
             -0.798525553008585E+01
             -0.588811492255526E+02
              0.753557062946857E+01
             -0.150965140829107E+02
             -0.191439847475129E+01
              0.503755674689475E+02
             -0.823783617316252E+02
             -0.151040374432409E+01
              0.552672387886957E+00
              0.991549767484696E+01
              0.317299118818135E+02
             -0.123136719546468E+02
              0.832373837085216E+02
              0.486553563030253E+02
             -0.182748189675279E+02
             -0.953841717156433E+01
              0.102246136240376E+01
              0.766444890427418E+02
             -0.584457572635964E+02
             -0.105373792530988E+03
              0.308065663381392E+02
             -0.162845588635176E+02
             -0.138760371370927E+02
              0.129672834710049E+02
              0.765537086225453E+02
              0.462608417918564E+02
             -0.152815944235114E+02
             -0.500712917434891E+02
             -0.542454561985123E+01
              0.305362446028712E+02
             -0.110695145798101E+02
             -0.752671223525699E+02
             -0.265591768555825E+01
             -0.885774806336393E+02
             -0.473362548715788E+02
              0.764754837535758E+02
             -0.481351945216009E+02
             -0.633461245274368E+02
             -0.512239935916187E+02
             -0.348035368571153E+02
              0.339495030176783E+02
              0.818049953020026E+02
             -0.351255233089756E+01
              0.275528921918264E+02
             -0.182831889112324E+02
             -0.691184048574348E+02
              0.462926835278232E+02
             -0.442937685185323E+02
              0.320944551424180E+02
              0.375290588112684E+02
             -0.646923417797836E+01
              0.389157492631402E+02
              0.436939872583184E+02
              0.100128753064659E+03
             -0.155817789998194E+02
             -0.453422059323535E+02
             -0.610054075724015E+02
             -0.122969877363402E+02
             -0.230827390731951E+02
              0.102672938738731E+03
             -0.447213532893919E+02
              0.104715547860802E+02
              0.972714546215224E+01
             -0.264037597537233E+02
             -0.795098574375240E+02
             -0.696502083884167E+01
              0.975730069844475E+02
              0.925743209540121E+01
              0.805953297308673E+01
             -0.524337381330926E+02
             -0.603319311488162E+02
             -0.552886637392318E+01
              0.498689294878725E+02
             -0.220715348950102E+02
              0.107580727904255E+03
             -0.433429528959619E+02
              0.145431261875028E+02
             -0.223912836080440E+02
             -0.716137662612327E+02
              0.164122770745945E+01
             -0.499226200055141E+02
             -0.757641762984103E+02
              0.609555018717106E+01
              0.235969590175242E+01
              0.512148921477892E+02
              0.185969440706813E+02
             -0.322118605428399E+02
              0.229158199919156E+02
             -0.807063379405660E+02
             -0.519987927608863E+02
              0.897949025149492E+02
              0.142441371509497E+02
             -0.188135190159202E+02
             -0.351586855900740E+02
             -0.269708366670375E+01
             -0.580634846440398E+01
              0.826163779092488E+02
              0.416010279005628E+02
             -0.165933662906901E+02
             -0.122178589839355E+02
             -0.426172392681800E+02
             -0.200332299756384E+02
             -0.667633572183215E+02
              0.457497195749061E+02
              0.543719869785667E+01
              0.144753686434024E+02
              0.155188578668102E+02
             -0.486768733212582E+00
             -0.167354393579070E+02
             -0.315446302385623E+01
             -0.999481810559989E+02
             -0.229690279815446E+02
             -0.759970272772085E+01
             -0.946528959041885E+01
              0.544663170036656E+02
              0.621065918636670E+02
              0.164030286782906E+02
             -0.966828627984475E+02
              0.644962110153689E+02
             -0.213968877679261E+02
             -0.375503286026924E+02
             -0.860584814241134E+02
             -0.386110990203306E+02
              0.561684874503361E+02
              0.242661194001849E+02
              0.505474404295700E+01
              0.290662560467651E+02
             -0.562628675714876E+02
             -0.420070499007737E+02
              0.512548389506480E+02
              0.385429654067329E+02
              0.517092090391304E+02
             -0.128366944717348E+01
              0.680075593189025E+01
              0.567344897822830E+02
              0.958649775892734E+02
             -0.299780232971557E+02
              0.321005158588314E+02
             -0.116823850747930E+02
             -0.410284278802861E+02
             -0.312782711703721E+02
             -0.298636370382957E+02
             -0.130782468005191E+02
             -0.521528861936031E+02
             -0.216559913558085E+02
             -0.140655660714501E+03
              0.367740761702278E+02
              0.205443992315758E+02
             -0.392188224508212E+01
             -0.378541194794709E+02
             -0.203549180049174E+02
             -0.524375272936101E+02
              0.151178950354570E+02
              0.816848557987720E+02
             -0.251491586048878E+02
             -0.162184521137878E+02
              0.237305710948349E+02
             -0.487214210519105E+02
              0.877039446682499E+02
              0.153839362419958E+02
              0.226369632095410E+02
              0.488117355581027E+02
              0.325398032117596E+01
              0.539586228572294E+02
              0.142061073491095E+02
             -0.106706021243106E+02
              0.725540855238444E+01
              0.852442224221477E+00
              0.724641139257341E+02
              0.100857956553068E+02
              0.119434016601765E+02
             -0.129718015894446E+02
              0.131914434975262E+02
             -0.907275497716627E+02
             -0.324394273331645E+02
             -0.455199041783478E+02
              0.483259048057431E+02
             -0.289499488886866E+02
             -0.656419681865091E+02
              0.535853381035582E+02
             -0.121457661985983E+02
              0.438460421061494E+02
             -0.895037780024453E+02
              0.231547461620482E+02
              0.856720161930002E+01
              0.579570678949131E+01
             -0.825346927886653E+01
             -0.900961003063662E+01
              0.477317065918392E+02
              0.198456088439229E+01
             -0.472710667287848E+02
             -0.175136759050930E+02
              0.276066654365766E+02
             -0.117462923611310E+03
             -0.926368310296129E+02
              0.396727005566470E+01
              0.116800395760934E+02
             -0.410895151101423E+02
             -0.390679915397510E+01
              0.111709273226140E+03
              0.305439028616979E+02
             -0.569452136966893E+02
              0.922028623869079E+01
             -0.959382087409564E+01
              0.105053656374520E+02
             -0.336079653527697E+02
              0.194292703658113E+02
              0.283715038409681E+02
             -0.295052227487787E+01
              0.107699206511960E+03
             -0.140342392542969E+02
             -0.314691027146750E+02
              0.141293776288046E+02
              0.464854973442257E+02
             -0.354657229977772E+02
             -0.317829518016160E+01
              0.960699844171910E+02
             -0.464832119049856E+01
              0.619600734297834E+02
              0.134727082028659E+02
             -0.900458228843924E+01
             -0.304986667727245E+02
              0.564822093084252E+02
             -0.511589865186114E+02
             -0.220568365819230E+01
             -0.169096010751652E+02
             -0.403627609359301E+02
              0.184540745972513E+02
              0.238123224870534E+02
              0.116413554676921E+02
              0.729926411293377E+00
             -0.382670543729425E+02
              0.214892912182287E+02
             -0.674948597624288E+01
             -0.245706150527619E+02
             -0.209847385996394E+02
              0.202804265218811E+02
             -0.598382978007112E+01
             -0.347515780485837E+02
             -0.106177571134212E+03
              0.102634002639312E+02
              0.248439107715998E+02
             -0.385046185712405E+02
             -0.209837683355631E+02
              0.803602179989138E+02
              0.643916960461786E+01
              0.308647799330948E+02
              0.384562944787956E+01
              0.320035881543492E+02
              0.645995166397711E+01
             -0.371290799406717E+02
             -0.224119943257989E+01
              0.875097900925891E+01
              0.272375188969369E+02
              0.778994510390095E+02
              0.505404208894276E+02
              0.159943983754829E+00
              0.168712253159961E+02
              0.610687257601641E+02
              0.234625245077344E+02
             -0.750176425228515E+02
             -0.272552638333989E+02
              0.150749827514679E+02
              0.557097780552442E+01
              0.254008945019468E+02
             -0.545762416659690E+02
              0.898473499501652E+01
              0.384108242391761E+02
              0.496009402146582E+02
             -0.433209364989897E+02
             -0.694784069694231E+01
             -0.206554575753961E+01
             -0.132759060149418E+02
             -0.364765793911569E+02
             -0.215008649673089E+02
             -0.194042331737151E+01
              0.787383623188038E+01
              0.419605052528808E+02
             -0.306894622085202E+02
              0.822841168441349E+02
              0.326110894410561E+02
              0.218569148430558E+02
              0.331389975859311E+02
              0.322369095567067E+02
              0.344566680776679E+02
              0.534870643941311E+02
             -0.431854913974826E+02
              0.617002547999502E+02
             -0.111783900256254E+03
              0.306084740499331E+02
             -0.106099767620867E+03
              0.851445569963572E+02
              0.687252616988454E+02
             -0.109592450601572E+02
             -0.491404145576474E+02
             -0.427728596933246E+02
             -0.621491556430514E+02
             -0.625919563779366E+02
              0.549539140331951E+02
              0.403730335269986E+02
              0.235817507236201E+02
              0.373063741583634E+02
              0.401095207771487E+02
             -0.380371644077675E+02
             -0.197371290952365E+02
              0.584463250033443E+02
             -0.115546066836134E+02
              0.549788255491794E+02
              0.696044842395840E+02
             -0.552728007317279E+01
             -0.703078152996150E+02
             -0.936190414802695E+00
             -0.247449280017385E+01
             -0.877899354663623E+01
             -0.181975430022857E+01
             -0.650388623612749E+02
             -0.210785224407780E+02
              0.531719535681254E+01
              0.891181615498317E+01
              0.466736195275323E+02
             -0.395904075346072E+02
              0.655740104417566E+02
             -0.423812538185594E+02
              0.209056176531773E+02
              0.348412350027594E+02
 
 BEEF-vdW xc energy contributions
           1 :   -780.163313963178     
           2 :    717.090498803323     
           3 :   -607.727784087637     
           4 :    478.747959835035     
           5 :   -357.411600761624     
           6 :    263.482288419662     
           7 :   -204.683853062267     
           8 :    176.619316980350     
           9 :   -166.734055558908     
          10 :    160.436540331046     
          11 :   -146.873916173389     
          12 :    122.189388435392     
          13 :   -89.4075480346676     
          14 :    55.5504677857602     
          15 :   -27.6533428694767     
          16 :    9.49108731679382     
          17 :  -0.282802656312811     
          18 :   -4.36147321799353     
          19 :    9.95224778840986     
          20 :   -20.4043035666861     
          21 :    36.3425036950921     
          22 :   -55.0998238633426     
          23 :    72.2423220753484     
          24 :   -83.7883342788718     
          25 :    88.0274508566812     
          26 :   -86.1342400408159     
          27 :    81.3950091597777     
          28 :   -77.5160243781312     
          29 :    76.8619443353017     
          30 :   -79.4577068154210     
          31 :   -85.3998185377060     
          32 :   -65.5191037053065     

     Writing output data file ./pwscf.save/
 
     init_run     :    295.64s CPU    299.91s WALL (       1 calls)
     electrons    :  10014.03s CPU  10115.80s WALL (       1 calls)
     forces       :     93.63s CPU     94.82s WALL (       1 calls)

     Called by init_run:
     wfcinit      :    247.66s CPU    250.94s WALL (       1 calls)
     potinit      :     44.73s CPU     45.04s WALL (       1 calls)
     hinit0       :      1.44s CPU      1.46s WALL (       1 calls)

     Called by electrons:
     c_bands      :   8339.03s CPU   8416.77s WALL (      17 calls)
     sum_band     :   1097.73s CPU   1108.47s WALL (      17 calls)
     v_of_rho     :     92.51s CPU     95.85s WALL (      17 calls)
     newd         :     25.67s CPU     36.00s WALL (      17 calls)
     PAW_pot      :    118.11s CPU    118.11s WALL (      17 calls)
     mix_rho      :    386.39s CPU    386.87s WALL (      17 calls)
     vdW_kernel   :     33.86s CPU     33.86s WALL (       1 calls)

     Called by c_bands:
     init_us_2    :     65.20s CPU     65.41s WALL (     468 calls)
     cegterg      :   7675.34s CPU   7752.89s WALL (     221 calls)

     Called by *egterg:
     cdiaghg      :     78.99s CPU     79.03s WALL (    1152 calls)
     h_psi        :   4797.14s CPU   4824.46s WALL (    1178 calls)
     s_psi        :    858.08s CPU    858.08s WALL (    1178 calls)
     g_psi        :     14.13s CPU     14.14s WALL (     944 calls)

     Called by h_psi:
     h_psi:calbec :    813.82s CPU    813.91s WALL (    1178 calls)
     vloc_psi     :   3102.04s CPU   3102.82s WALL (    1178 calls)
     add_vuspsi   :    858.61s CPU    858.64s WALL (    1178 calls)

     General routines
     calbec       :   1198.63s CPU   1198.75s WALL (    1451 calls)
     fft          :     42.68s CPU     42.70s WALL (    3037 calls)
     ffts         :    119.51s CPU    119.52s WALL (    9726 calls)
     fftw         :   3207.89s CPU   3208.36s WALL (  289725 calls)
 
     Parallel routines
 
     PWSCF        :      2h55m CPU      2h57m WALL

 
   This run was terminated on:  18:51:31  20Dec2022            

=------------------------------------------------------------------------------=
   JOB DONE.
=------------------------------------------------------------------------------=
