
     Program PWSCF v.6.7MaX starts on 20May2022 at 15:46:12 

     This program is part of the open-source Quantum ESPRESSO suite
     for quantum simulation of materials; please cite
         "P. Giannozzi et al., J. Phys.:Condens. Matter 21 395502 (2009);
         "P. Giannozzi et al., J. Phys.:Condens. Matter 29 465901 (2017);
          URL http://www.quantum-espresso.org", 
     in publications or presentations arising from this work. More details at
     http://www.quantum-espresso.org/quote

     Parallel version (MPI), running on     1 processors

     MPI processes distributed on     1 nodes
     Reading input from hco3-ensemble.in
Warning: card &CELL ignored
Warning: card / ignored

     Current dimensions of program PWSCF are:
     Max number of different atomic species (ntypx) = 10
     Max number of k-points (npk) =  40000
     Max angular momentum in pseudopotentials (lmaxx) =  3
     file Pt.pbe-n-kjpaw_psl.1.0.0.UPF: wavefunction(s)  6S 5D renormalized
     file O.pbe-nl-kjpaw_psl.1.0.0.UPF: wavefunction(s)  2S 2P renormalized
     file C.pbe-n-kjpaw_psl.1.0.0.UPF: wavefunction(s)  2S 2P renormalized
     file H.pbe-kjpaw_psl.1.0.0.UPF: wavefunction(s)  1S renormalized

     **************************************************************************
     Initializing libbeef V0.1.2 with the BEEF-vdW functional.
     Citation: Wellendorff et al., PRB 85, 235149 (2012).
     **************************************************************************


     IMPORTANT: XC functional enforced from input :
     Exchange-correlation= BEEF-VDW
                           (   1   4  43  14   2   0   0)
     Any further DFT definition will be discarded
     Please, verify this is what you really want


     Subspace diagonalization in iterative solution of the eigenvalue problem:
     a serial algorithm will be used

 
     G-vector sticks info
     --------------------
     sticks:   dense  smooth     PW     G-vecs:    dense   smooth      PW
     Sum        4267    4267   1159               748457   748457  105431
 


     bravais-lattice index     =            0
     lattice parameter (alat)  =      16.0349  a.u.
     unit-cell volume          =   11915.3978 (a.u.)^3
     number of atoms/cell      =           41
     number of atomic types    =            4
     number of electrons       =       383.00
     number of Kohn-Sham states=          230
     kinetic-energy cutoff     =      60.0000  Ry
     charge density cutoff     =     240.0000  Ry
     scf convergence threshold =      1.0E-06
     mixing beta               =       0.7000
     number of iterations used =            8  local-TF  mixing
     Exchange-correlation= BEEF-VDW
                           (   1   4  43  14   2   0   0)

     celldm(1)=  16.034858  celldm(2)=   0.000000  celldm(3)=   0.000000
     celldm(4)=   0.000000  celldm(5)=   0.000000  celldm(6)=   0.000000

     crystal axes: (cart. coord. in units of alat)
               a(1) = (   1.000000   0.000000   0.000000 )  
               a(2) = (   0.500000   0.866025   0.000000 )  
               a(3) = (   0.000000   0.000000   3.337203 )  

     reciprocal axes: (cart. coord. in units 2 pi/alat)
               b(1) = (  1.000000 -0.577350  0.000000 )  
               b(2) = (  0.000000  1.154701  0.000000 )  
               b(3) = (  0.000000  0.000000  0.299652 )  


     PseudoPot. # 1 for Pt read from file:
     /users/bkreitz1/quantum-espresso/potentials/Pt.pbe-n-kjpaw_psl.1.0.0.UPF
     MD5 check sum: 04dc8a03c51ece93fc7b5889c2958091
     Pseudo is Projector augmented-wave + core cor, Zval = 10.0
     Generated using 'atomic' code by A. Dal Corso  v.6.7MaX
     Shape of augmentation charge: PSQ
     Using radial grid of 1277 points,  6 beta functions with: 
                l(1) =   0
                l(2) =   0
                l(3) =   1
                l(4) =   1
                l(5) =   2
                l(6) =   2
     Q(r) pseudized with 0 coefficients 


     PseudoPot. # 2 for O  read from file:
     /users/bkreitz1/quantum-espresso/potentials/O.pbe-nl-kjpaw_psl.1.0.0.UPF
     MD5 check sum: eef08af8b58d9ec80f8fdb78829eb7cf
     Pseudo is Projector augmented-wave + core cor, Zval =  6.0
     Generated using 'atomic' code by A. Dal Corso  v.6.7MaX
     Shape of augmentation charge: PSQ
     Using radial grid of 1095 points,  4 beta functions with: 
                l(1) =   0
                l(2) =   0
                l(3) =   1
                l(4) =   1
     Q(r) pseudized with 0 coefficients 


     PseudoPot. # 3 for C  read from file:
     /users/bkreitz1/quantum-espresso/potentials/C.pbe-n-kjpaw_psl.1.0.0.UPF
     MD5 check sum: a169b0ebad56f5ec0d79c4633f80bf22
     Pseudo is Projector augmented-wave + core cor, Zval =  4.0
     Generated using 'atomic' code by A. Dal Corso  v.6.7MaX
     Shape of augmentation charge: PSQ
     Using radial grid of 1073 points,  4 beta functions with: 
                l(1) =   0
                l(2) =   0
                l(3) =   1
                l(4) =   1
     Q(r) pseudized with 0 coefficients 


     PseudoPot. # 4 for H  read from file:
     /users/bkreitz1/quantum-espresso/potentials/H.pbe-kjpaw_psl.1.0.0.UPF
     MD5 check sum: ae98473e6dc62675f0d0baffdab24f65
     Pseudo is Projector augmented-wave, Zval =  1.0
     Generated using 'atomic' code by A. Dal Corso  v.6.7MaX
     Shape of augmentation charge: PSQ
     Using radial grid of  929 points,  2 beta functions with: 
                l(1) =   0
                l(2) =   0
     Q(r) pseudized with 0 coefficients 


     atomic species   valence    mass     pseudopotential
        Pt            10.00   195.08400     Pt( 1.00)
        O              6.00    15.99900     O ( 1.00)
        C              4.00    12.01100     C ( 1.00)
        H              1.00     1.00800     H ( 1.00)

     No symmetry found



   Cartesian axes

     site n.     atom                  positions (alat units)
         1           Pt  tau(   1) = (   0.0000000   0.0000000   1.0017346  )
         2           Pt  tau(   2) = (   0.3333333   0.0000000   1.0017346  )
         3           Pt  tau(   3) = (   0.6666667   0.0000000   1.0017346  )
         4           Pt  tau(   4) = (   0.1666667   0.2886751   1.0017346  )
         5           Pt  tau(   5) = (   0.5000000   0.2886751   1.0017346  )
         6           Pt  tau(   6) = (   0.8333333   0.2886751   1.0017346  )
         7           Pt  tau(   7) = (   0.3333333   0.5773503   1.0017346  )
         8           Pt  tau(   8) = (   0.6666667   0.5773503   1.0017346  )
         9           Pt  tau(   9) = (   1.0000000   0.5773503   1.0017346  )
        10           Pt  tau(  10) = (   0.1666667   0.0962250   1.2739001  )
        11           Pt  tau(  11) = (   0.5000000   0.0962250   1.2739001  )
        12           Pt  tau(  12) = (   0.8333333   0.0962250   1.2739001  )
        13           Pt  tau(  13) = (   0.3333333   0.3849002   1.2739001  )
        14           Pt  tau(  14) = (   0.6666667   0.3849002   1.2739001  )
        15           Pt  tau(  15) = (   1.0000000   0.3849002   1.2739001  )
        16           Pt  tau(  16) = (   0.5000000   0.6735753   1.2739001  )
        17           Pt  tau(  17) = (   0.8333333   0.6735753   1.2739001  )
        18           Pt  tau(  18) = (   1.1666667   0.6735753   1.2739001  )
        19           Pt  tau(  19) = (  -0.0026353   0.1937735   1.5462436  )
        20           Pt  tau(  20) = (   0.3319911   0.1917906   1.5394191  )
        21           Pt  tau(  21) = (   0.6676526   0.1930422   1.5441777  )
        22           Pt  tau(  22) = (   0.1674696   0.4807652   1.5405931  )
        23           Pt  tau(  23) = (   0.5009976   0.4817862   1.5441655  )
        24           Pt  tau(  24) = (   0.8333119   0.4812696   1.5435845  )
        25           Pt  tau(  25) = (   0.3333420   0.7698405   1.5422655  )
        26           Pt  tau(  26) = (   0.6663574   0.7672897   1.5458609  )
        27           Pt  tau(  27) = (   1.0000856   0.7707400   1.5406014  )
        28           Pt  tau(  28) = (  -0.0000520   0.0004177   1.8162523  )
        29           Pt  tau(  29) = (   0.3345846   0.0021225   1.8158917  )
        30           Pt  tau(  30) = (   0.6663987  -0.0011886   1.8159111  )
        31           Pt  tau(  31) = (   0.1688539   0.2889592   1.8161420  )
        32           Pt  tau(  32) = (   0.4954515   0.2862250   1.8118525  )
        33           Pt  tau(  33) = (   0.8343489   0.2886336   1.8227578  )
        34           Pt  tau(  34) = (   0.3318241   0.5779471   1.8158479  )
        35           Pt  tau(  35) = (   0.6665629   0.5791795   1.8220740  )
        36           Pt  tau(  36) = (   1.0041791   0.5799285   1.8115299  )
        37           O   tau(  37) = (   0.6798507   0.5538118   2.0753657  )
        38           C   tau(  38) = (   0.7462675   0.4361145   2.1391256  )
        39           O   tau(  39) = (   0.8145837   0.3175875   2.0760356  )
        40           O   tau(  40) = (   0.7424754   0.4378054   2.2987834  )
        41           H   tau(  41) = (   0.7948479   0.3429581   2.3366465  )

     number of k points=    13  Marzari-Vanderbilt smearing, width (Ry)=  0.0200
                       cart. coord. in units 2pi/alat
        k(    1) = (   0.0000000   0.0000000   0.0000000), wk =   0.0800000
        k(    2) = (   0.0000000   0.2309401   0.0000000), wk =   0.1600000
        k(    3) = (   0.0000000   0.4618802   0.0000000), wk =   0.1600000
        k(    4) = (   0.2000000  -0.1154701   0.0000000), wk =   0.1600000
        k(    5) = (   0.2000000   0.1154701   0.0000000), wk =   0.1600000
        k(    6) = (   0.2000000   0.3464102   0.0000000), wk =   0.1600000
        k(    7) = (   0.2000000  -0.5773503   0.0000000), wk =   0.1600000
        k(    8) = (   0.2000000  -0.3464102   0.0000000), wk =   0.1600000
        k(    9) = (   0.4000000  -0.2309401   0.0000000), wk =   0.1600000
        k(   10) = (   0.4000000  -0.0000000   0.0000000), wk =   0.1600000
        k(   11) = (   0.4000000   0.2309401   0.0000000), wk =   0.1600000
        k(   12) = (   0.4000000  -0.6928203   0.0000000), wk =   0.1600000
        k(   13) = (   0.4000000  -0.4618802   0.0000000), wk =   0.1600000

     Dense  grid:   748457 G-vectors     FFT dimensions: (  80,  80, 270)

     Estimated max dynamical RAM per process >       9.19 GB

     Check: negative core charge=   -0.000002

     Initial potential from superposition of free atoms

     starting charge  382.99384, renormalised to  383.00000

     negative rho (up, down):  1.331E-02 0.000E+00


     %%%%%%%%%%%%%%%%%%%%%%%%%%%%%%%%%%%%%%%%%%%%%%%%%%%%%%%%%%%%%%%%%%%%%%%%
     %                                                                      %
     % You are using vdW-DF, which was implemented by the Thonhauser group. %
     % Please cite the following two papers that made this development      %
     % possible and the two reviews that describe the various versions:     %
     %                                                                      %
     %   T. Thonhauser et al., PRL 115, 136402 (2015).                      %
     %   T. Thonhauser et al., PRB 76, 125112 (2007).                       %
     %   K. Berland et al., Rep. Prog. Phys. 78, 066501 (2015).             %
     %   D.C. Langreth et al., J. Phys.: Condens. Matter 21, 084203 (2009). %
     %                                                                      %
     %                                                                      %
     % If you are calculating the stress with vdW-DF, please also cite:     %
     %                                                                      %
     %   R. Sabatini et al., J. Phys.: Condens. Matter 24, 424209 (2012).   %
     %                                                                      %
     %%%%%%%%%%%%%%%%%%%%%%%%%%%%%%%%%%%%%%%%%%%%%%%%%%%%%%%%%%%%%%%%%%%%%%%%


     Starting wfcs are  341 randomized atomic wfcs
     Checking if some PAW data can be deallocated... 

     total cpu time spent up to now is      392.5 secs

     Self-consistent Calculation

     iteration #  1     ecut=    60.00 Ry     beta= 0.70
     Davidson diagonalization with overlap
     ethr =  1.00E-02,  avg # of iterations =  2.8

     Threshold (ethr) on eigenvalues was too large:
     Diagonalizing with lowered threshold

     Davidson diagonalization with overlap
     ethr =  6.59E-04,  avg # of iterations =  3.4

     negative rho (up, down):  1.348E-02 0.000E+00

     total cpu time spent up to now is     1963.8 secs

     total energy              =  -27901.60981953 Ry
     estimated scf accuracy    <       2.68436855 Ry

     iteration #  2     ecut=    60.00 Ry     beta= 0.70
     Davidson diagonalization with overlap
     ethr =  7.01E-04,  avg # of iterations =  3.7

     negative rho (up, down):  1.201E-02 0.000E+00

     total cpu time spent up to now is     2711.9 secs

     total energy              =  -27901.86022257 Ry
     estimated scf accuracy    <       1.03293276 Ry

     iteration #  3     ecut=    60.00 Ry     beta= 0.70
     Davidson diagonalization with overlap
     ethr =  2.70E-04,  avg # of iterations =  3.5

     negative rho (up, down):  9.363E-03 0.000E+00

     total cpu time spent up to now is     3446.8 secs

     total energy              =  -27901.92367350 Ry
     estimated scf accuracy    <       0.27469071 Ry

     iteration #  4     ecut=    60.00 Ry     beta= 0.70
     Davidson diagonalization with overlap
     c_bands:  1 eigenvalues not converged
     c_bands:  1 eigenvalues not converged
     ethr =  7.17E-05,  avg # of iterations = 11.3

     negative rho (up, down):  7.636E-03 0.000E+00

     total cpu time spent up to now is     4423.9 secs

     total energy              =  -27901.97128987 Ry
     estimated scf accuracy    <       0.15656373 Ry

     iteration #  5     ecut=    60.00 Ry     beta= 0.70
     Davidson diagonalization with overlap
     ethr =  4.09E-05,  avg # of iterations =  2.0

     negative rho (up, down):  6.007E-03 0.000E+00

     total cpu time spent up to now is     5129.8 secs

     total energy              =  -27901.97595518 Ry
     estimated scf accuracy    <       0.03729246 Ry

     iteration #  6     ecut=    60.00 Ry     beta= 0.70
     Davidson diagonalization with overlap
     c_bands:  1 eigenvalues not converged
     ethr =  9.74E-06,  avg # of iterations =  8.5

     negative rho (up, down):  5.601E-03 0.000E+00

     total cpu time spent up to now is     6053.1 secs

     total energy              =  -27901.98156314 Ry
     estimated scf accuracy    <       0.02853990 Ry

     iteration #  7     ecut=    60.00 Ry     beta= 0.70
     Davidson diagonalization with overlap
     ethr =  7.45E-06,  avg # of iterations =  3.8

     negative rho (up, down):  6.127E-03 0.000E+00

     total cpu time spent up to now is     6759.2 secs

     total energy              =  -27901.98192378 Ry
     estimated scf accuracy    <       0.01308846 Ry

     iteration #  8     ecut=    60.00 Ry     beta= 0.70
     Davidson diagonalization with overlap
     ethr =  3.42E-06,  avg # of iterations =  9.2

     negative rho (up, down):  7.182E-03 0.000E+00

     total cpu time spent up to now is     7528.5 secs

     total energy              =  -27901.98238863 Ry
     estimated scf accuracy    <       0.00609289 Ry

     iteration #  9     ecut=    60.00 Ry     beta= 0.70
     Davidson diagonalization with overlap
     c_bands:  1 eigenvalues not converged
     ethr =  1.59E-06,  avg # of iterations =  7.6

     negative rho (up, down):  1.030E-02 0.000E+00

     total cpu time spent up to now is     8279.4 secs

     total energy              =  -27901.98251991 Ry
     estimated scf accuracy    <       0.00289281 Ry

     iteration # 10     ecut=    60.00 Ry     beta= 0.70
     Davidson diagonalization with overlap
     c_bands:  3 eigenvalues not converged
     ethr =  7.55E-07,  avg # of iterations =  4.6

     negative rho (up, down):  1.179E-02 0.000E+00

     total cpu time spent up to now is     9003.4 secs

     total energy              =  -27901.98268367 Ry
     estimated scf accuracy    <       0.00088373 Ry

     iteration # 11     ecut=    60.00 Ry     beta= 0.70
     Davidson diagonalization with overlap
     ethr =  2.31E-07,  avg # of iterations =  4.5

     negative rho (up, down):  1.245E-02 0.000E+00

     total cpu time spent up to now is     9762.9 secs

     total energy              =  -27901.98278239 Ry
     estimated scf accuracy    <       0.00034252 Ry

     iteration # 12     ecut=    60.00 Ry     beta= 0.70
     Davidson diagonalization with overlap
     ethr =  8.94E-08,  avg # of iterations =  4.0

     negative rho (up, down):  1.273E-02 0.000E+00

     total cpu time spent up to now is    10541.0 secs

     total energy              =  -27901.98283416 Ry
     estimated scf accuracy    <       0.00020306 Ry

     iteration # 13     ecut=    60.00 Ry     beta= 0.70
     Davidson diagonalization with overlap
     ethr =  5.30E-08,  avg # of iterations =  2.0

     negative rho (up, down):  1.316E-02 0.000E+00

     total cpu time spent up to now is    11276.6 secs

     total energy              =  -27901.98285061 Ry
     estimated scf accuracy    <       0.00003848 Ry

     iteration # 14     ecut=    60.00 Ry     beta= 0.70
     Davidson diagonalization with overlap
     ethr =  1.00E-08,  avg # of iterations =  4.1

     negative rho (up, down):  1.334E-02 0.000E+00

     total cpu time spent up to now is    12328.6 secs

     total energy              =  -27901.98286488 Ry
     estimated scf accuracy    <       0.00003175 Ry

     iteration # 15     ecut=    60.00 Ry     beta= 0.70
     Davidson diagonalization with overlap
     ethr =  8.29E-09,  avg # of iterations =  1.0

     negative rho (up, down):  1.342E-02 0.000E+00

     total cpu time spent up to now is    12965.8 secs

     total energy              =  -27901.98286524 Ry
     estimated scf accuracy    <       0.00001663 Ry

     iteration # 16     ecut=    60.00 Ry     beta= 0.70
     Davidson diagonalization with overlap
     ethr =  4.34E-09,  avg # of iterations =  1.2

     negative rho (up, down):  1.363E-02 0.000E+00

     total cpu time spent up to now is    13611.0 secs

     total energy              =  -27901.98286441 Ry
     estimated scf accuracy    <       0.00000750 Ry

     iteration # 17     ecut=    60.00 Ry     beta= 0.70
     Davidson diagonalization with overlap
     ethr =  1.96E-09,  avg # of iterations =  1.1

     negative rho (up, down):  1.408E-02 0.000E+00

     total cpu time spent up to now is    14256.7 secs

     total energy              =  -27901.98286268 Ry
     estimated scf accuracy    <       0.00000494 Ry

     iteration # 18     ecut=    60.00 Ry     beta= 0.70
     Davidson diagonalization with overlap
     ethr =  1.29E-09,  avg # of iterations =  1.2

     negative rho (up, down):  1.436E-02 0.000E+00

     total cpu time spent up to now is    14904.9 secs

     total energy              =  -27901.98286193 Ry
     estimated scf accuracy    <       0.00000273 Ry

     iteration # 19     ecut=    60.00 Ry     beta= 0.70
     Davidson diagonalization with overlap
     ethr =  7.13E-10,  avg # of iterations =  1.8

     negative rho (up, down):  1.487E-02 0.000E+00

     total cpu time spent up to now is    15554.7 secs

     End of self-consistent calculation

          k = 0.0000 0.0000 0.0000 ( 93455 PWs)   bands (ev):

   -22.2315 -19.5583 -19.1021  -9.3445  -7.3124  -6.8510  -6.1900  -5.9824
    -5.3389  -4.9438  -4.9025  -4.8918  -4.8879  -4.8750  -4.8672  -4.8638
    -4.8541  -4.3613  -4.3359  -4.3280  -4.3234  -4.3190  -4.3130  -4.0994
    -3.8753  -3.8624  -3.8605  -3.8491  -3.8457  -3.8321  -3.6528  -3.6448
    -3.6389  -3.6339  -3.6313  -3.5901  -3.4254  -3.4202  -3.4140  -3.4119
    -3.4065  -3.4042  -3.4028  -3.3915  -3.3883  -3.3856  -3.3647  -3.3464
    -2.9447  -2.8241  -2.7889  -2.7858  -2.7786  -2.7588  -2.7375  -2.7233
    -2.7113  -2.7084  -2.6257  -2.5547  -2.5342  -2.4719  -2.4322  -2.0808
    -2.0762  -2.0173  -1.9808  -1.9641  -1.9441  -1.8833  -1.8745  -1.8353
    -1.7988  -1.7981  -1.7868  -1.7823  -1.7620  -1.7611  -1.7443  -1.7295
    -1.7262  -1.7212  -1.7142  -1.6994  -1.6869  -1.6642  -1.6412  -1.5692
    -1.5575  -1.5324  -1.5309  -1.5192  -1.4792  -1.4162  -1.4030  -1.3928
    -1.3762  -1.3718  -1.3493  -1.3174  -1.3094  -1.2941  -1.2089  -1.2085
    -1.1713  -1.1280  -1.1121  -1.1059  -1.0750  -1.0675  -1.0639  -0.9366
    -0.9226  -0.9172  -0.9040  -0.8740  -0.8724  -0.7406  -0.6768  -0.4626
    -0.4498  -0.4435  -0.4428  -0.4229  -0.4153  -0.3922  -0.3499  -0.3221
    -0.3099  -0.2895  -0.2833  -0.2637  -0.2579  -0.1398  -0.1059  -0.0989
    -0.0496  -0.0383  -0.0052   0.0195   0.0506   0.0589   0.0607   0.0706
     0.0709   0.2796   0.2993   0.3057   0.3136   0.3154   0.3199   0.3782
     0.3827   0.5708   0.5711   0.5844   0.5877   0.6133   0.6223   0.7008
     0.7126   0.7436   0.7502   0.7597   0.7631   0.7825   0.7948   0.8070
     0.8125   0.8481   0.8735   0.8874   0.9062   0.9206   0.9224   0.9282
     0.9410   0.9845   0.9902   0.9995   1.0177   1.0187   1.0331   1.0399
     1.0744   1.0851   1.1230   1.1377   1.1421   1.1441   1.1601   1.1743
     1.1843   1.2494   1.2575   1.2584   1.2806   1.2829   1.3772   1.4657
     1.4910   1.5604   1.5841   1.5856   1.6007   1.6029   1.6089   1.6672
     2.4267   2.4793   2.5015   2.5035   2.5259   2.8421   3.2744   4.7910
     4.8129   4.8337   4.8468   5.1506   5.2655   5.7924   6.0875   6.3522
     6.3591   6.3960   6.3996   6.4050   6.4184   6.4221

          k = 0.0000 0.2309 0.0000 ( 93490 PWs)   bands (ev):

   -22.2315 -19.5583 -19.1021  -9.3442  -7.1707  -6.8460  -6.1868  -5.8441
    -5.3916  -5.3370  -5.0021  -4.9891  -4.7971  -4.7376  -4.6873  -4.6474
    -4.6428  -4.4513  -4.4196  -4.2941  -4.2642  -4.2509  -4.2461  -4.0760
    -3.9485  -3.8382  -3.8268  -3.8100  -3.8016  -3.7429  -3.7294  -3.6828
    -3.6684  -3.6572  -3.6487  -3.5947  -3.5596  -3.5435  -3.4495  -3.4384
    -3.4192  -3.3924  -3.3873  -3.2210  -3.2114  -3.2028  -3.1910  -3.1634
    -2.9849  -2.9282  -2.9060  -2.8691  -2.8559  -2.8265  -2.8092  -2.7212
    -2.6244  -2.6101  -2.5585  -2.5345  -2.4973  -2.4755  -2.4381  -2.2458
    -2.1817  -2.1589  -2.1329  -2.1079  -2.0676  -2.0185  -1.9967  -1.9628
    -1.9453  -1.9399  -1.9177  -1.8751  -1.8614  -1.8310  -1.7922  -1.7768
    -1.7593  -1.7235  -1.6927  -1.6764  -1.6602  -1.6139  -1.6012  -1.5790
    -1.5472  -1.5150  -1.4948  -1.4854  -1.4708  -1.4494  -1.3941  -1.3827
    -1.3744  -1.3703  -1.3282  -1.2743  -1.2662  -1.2524  -1.2403  -1.2127
    -1.1971  -1.1703  -1.1434  -1.1263  -1.1059  -1.0972  -1.0216  -0.9765
    -0.9570  -0.9192  -0.9100  -0.8954  -0.8818  -0.8553  -0.8343  -0.8169
    -0.8072  -0.7711  -0.6800  -0.6477  -0.5317  -0.5055  -0.4524  -0.4128
    -0.3946  -0.3881  -0.3713  -0.3583  -0.3317  -0.2099  -0.1921  -0.1558
    -0.0669  -0.0398  -0.0283  -0.0129   0.0008   0.0676   0.0809   0.0952
     0.1215   0.1539   0.1844   0.1948   0.2202   0.2250   0.3849   0.3946
     0.4189   0.4393   0.4498   0.4875   0.5091   0.5738   0.5906   0.5962
     0.6124   0.6565   0.6700   0.6883   0.7079   0.7378   0.8150   0.8305
     0.8638   0.8907   0.9473   0.9640   0.9790   0.9876   0.9974   1.0188
     1.0424   1.1072   1.1228   1.1399   1.1814   1.1935   1.2109   1.2223
     1.2427   1.2500   1.2531   1.2903   1.3036   1.3653   1.3883   1.4682
     1.4845   1.4897   1.4948   1.5174   1.5424   1.5604   1.5805   1.6036
     1.6146   1.7021   1.7072   1.7350   1.8798   1.8945   1.9053   2.0434
     2.1287   2.4282   2.6228   3.0837   3.1281   3.2682   3.5847   4.1911
     4.5995   4.8102   5.2133   5.2170   5.4359   5.5204   5.7585   5.9016
     6.0770   6.2112   6.2357   6.5371   6.5853   6.6006

          k = 0.0000 0.4619 0.0000 ( 93540 PWs)   bands (ev):

   -22.2315 -19.5583 -19.1022  -9.3436  -6.8896  -6.7090  -6.2054  -6.0624
    -5.4482  -5.3371  -5.0366  -5.0218  -4.8945  -4.6585  -4.5122  -4.4090
    -4.3535  -4.3187  -4.3051  -4.2032  -4.1338  -4.0987  -4.0839  -4.0771
    -4.0139  -3.9511  -3.9217  -3.9049  -3.8761  -3.8573  -3.8220  -3.7845
    -3.7349  -3.7259  -3.7169  -3.4780  -3.4657  -3.4562  -3.4494  -3.4471
    -3.4305  -3.2434  -3.2075  -3.1863  -3.1764  -3.1658  -3.1524  -3.0267
    -2.9304  -2.8858  -2.8665  -2.8595  -2.8325  -2.8136  -2.7747  -2.7357
    -2.7126  -2.6854  -2.6663  -2.6016  -2.5322  -2.5047  -2.4766  -2.4676
    -2.3544  -2.3250  -2.3162  -2.2823  -2.2463  -2.1375  -2.1293  -2.0780
    -2.0571  -2.0366  -1.9911  -1.9756  -1.9515  -1.9329  -1.8795  -1.8546
    -1.8090  -1.7966  -1.7587  -1.7142  -1.6863  -1.6696  -1.6509  -1.6433
    -1.6229  -1.5871  -1.5650  -1.5616  -1.5505  -1.5408  -1.5158  -1.4911
    -1.4687  -1.4385  -1.4102  -1.3953  -1.3828  -1.3518  -1.3182  -1.2726
    -1.2497  -1.2329  -1.1860  -1.1317  -1.1008  -1.0895  -1.0750  -1.0626
    -1.0048  -0.9661  -0.9448  -0.9244  -0.8641  -0.8497  -0.8154  -0.7717
    -0.6791  -0.6634  -0.5989  -0.5882  -0.5359  -0.4978  -0.4829  -0.4649
    -0.4494  -0.4397  -0.4158  -0.3824  -0.3522  -0.3445  -0.3211  -0.2837
    -0.2723  -0.2587  -0.2321  -0.2036  -0.1470  -0.1245  -0.0916  -0.0487
    -0.0251   0.0702   0.0767   0.1021   0.2062   0.2176   0.3123   0.3444
     0.3810   0.3886   0.4145   0.4319   0.4699   0.4772   0.5373   0.5549
     0.5846   0.6131   0.6246   0.7075   0.7262   0.7359   0.7483   0.7684
     0.7913   0.8890   0.9660   0.9701   1.0056   1.0127   1.0320   1.0421
     1.1337   1.1490   1.1836   1.2512   1.2585   1.2960   1.3154   1.3422
     1.3506   1.3653   1.4308   1.4669   1.4867   1.4971   1.5012   1.5165
     1.5271   1.5928   1.6991   1.7001   1.7403   1.7564   1.8115   1.8564
     1.9100   1.9719   2.4092   2.4475   2.5126   2.7786   2.7940   2.9112
     3.1864   3.2075   3.5183   3.5551   3.9961   4.0044   4.0548   4.2074
     4.3156   4.3561   4.5169   4.6621   4.6859   4.8164   5.3320   5.4160
     5.8726   5.8976   6.0447   6.1252   6.4067   6.5003

          k = 0.2000-0.1155 0.0000 ( 93490 PWs)   bands (ev):

   -22.2315 -19.5583 -19.1021  -9.3442  -7.1706  -6.8460  -6.1867  -5.8441
    -5.3925  -5.3369  -5.0028  -4.9869  -4.7973  -4.7376  -4.6920  -4.6477
    -4.6380  -4.4505  -4.4191  -4.2932  -4.2666  -4.2536  -4.2447  -4.0676
    -3.9616  -3.8366  -3.8276  -3.8077  -3.8047  -3.7387  -3.7325  -3.6771
    -3.6701  -3.6553  -3.6485  -3.5932  -3.5584  -3.5461  -3.4490  -3.4354
    -3.4222  -3.3926  -3.3887  -3.2220  -3.2122  -3.2024  -3.1896  -3.1623
    -2.9905  -2.9317  -2.9054  -2.8670  -2.8539  -2.8256  -2.8097  -2.7195
    -2.6249  -2.6055  -2.5583  -2.5344  -2.4979  -2.4751  -2.4406  -2.2457
    -2.1809  -2.1581  -2.1324  -2.1085  -2.0676  -2.0185  -1.9964  -1.9630
    -1.9462  -1.9404  -1.9191  -1.8747  -1.8616  -1.8271  -1.7926  -1.7760
    -1.7596  -1.7234  -1.6931  -1.6771  -1.6624  -1.6132  -1.6015  -1.5794
    -1.5471  -1.5159  -1.4957  -1.4841  -1.4694  -1.4498  -1.3941  -1.3830
    -1.3758  -1.3702  -1.3281  -1.2751  -1.2657  -1.2528  -1.2398  -1.2126
    -1.1961  -1.1703  -1.1437  -1.1261  -1.1055  -1.0976  -1.0210  -0.9765
    -0.9577  -0.9205  -0.9102  -0.8955  -0.8813  -0.8554  -0.8341  -0.8171
    -0.8071  -0.7718  -0.6766  -0.6485  -0.5320  -0.5057  -0.4524  -0.4123
    -0.3951  -0.3866  -0.3711  -0.3587  -0.3321  -0.2104  -0.1928  -0.1567
    -0.0671  -0.0406  -0.0264  -0.0140  -0.0000   0.0679   0.0798   0.0945
     0.1204   0.1540   0.1847   0.1948   0.2200   0.2256   0.3837   0.3944
     0.4189   0.4391   0.4498   0.4872   0.5100   0.5740   0.5904   0.5965
     0.6126   0.6574   0.6697   0.6889   0.7078   0.7379   0.8150   0.8307
     0.8641   0.8906   0.9469   0.9646   0.9786   0.9879   0.9973   1.0186
     1.0412   1.1073   1.1231   1.1395   1.1812   1.1935   1.2104   1.2230
     1.2427   1.2499   1.2523   1.2905   1.3036   1.3652   1.3888   1.4686
     1.4843   1.4902   1.4950   1.5182   1.5427   1.5614   1.5805   1.6041
     1.6153   1.7019   1.7071   1.7346   1.8801   1.8948   1.9054   2.0427
     2.1291   2.4291   2.6224   3.0831   3.1286   3.2682   3.5840   4.1904
     4.6005   4.8104   5.2133   5.2169   5.4365   5.5204   5.7576   5.9020
     6.0762   6.2116   6.2360   6.5356   6.5850   6.6007

          k = 0.2000 0.1155 0.0000 ( 93490 PWs)   bands (ev):

   -22.2315 -19.5583 -19.1021  -9.3444  -7.1699  -6.8462  -6.1840  -5.8472
    -5.3979  -5.3378  -4.9934  -4.9916  -4.7965  -4.7381  -4.6905  -4.6454
    -4.6414  -4.4678  -4.4178  -4.2748  -4.2630  -4.2520  -4.2410  -4.0830
    -3.9586  -3.8346  -3.8297  -3.8097  -3.7980  -3.7398  -3.7315  -3.6786
    -3.6735  -3.6567  -3.6473  -3.5951  -3.5533  -3.5485  -3.4507  -3.4382
    -3.4131  -3.3886  -3.3863  -3.2271  -3.2036  -3.2012  -3.1880  -3.1660
    -2.9859  -2.9261  -2.9119  -2.8882  -2.8526  -2.8264  -2.8173  -2.7210
    -2.6338  -2.5919  -2.5610  -2.5304  -2.5026  -2.4717  -2.4388  -2.2487
    -2.1740  -2.1595  -2.1516  -2.1124  -2.0637  -2.0053  -1.9874  -1.9542
    -1.9505  -1.9404  -1.9242  -1.8780  -1.8604  -1.8475  -1.7870  -1.7738
    -1.7625  -1.6982  -1.6850  -1.6808  -1.6630  -1.6224  -1.5881  -1.5815
    -1.5213  -1.5178  -1.4905  -1.4857  -1.4758  -1.4495  -1.3963  -1.3873
    -1.3712  -1.3584  -1.3133  -1.3038  -1.2659  -1.2500  -1.2250  -1.2030
    -1.2025  -1.1774  -1.1321  -1.1199  -1.1082  -1.0966  -1.0469  -0.9848
    -0.9492  -0.9367  -0.9024  -0.8858  -0.8676  -0.8515  -0.8391  -0.8314
    -0.8127  -0.8043  -0.6886  -0.6455  -0.5175  -0.5095  -0.4492  -0.4168
    -0.4010  -0.3846  -0.3666  -0.3585  -0.3303  -0.2115  -0.1780  -0.1608
    -0.0688  -0.0295  -0.0258  -0.0161  -0.0103   0.0678   0.0767   0.1091
     0.1107   0.1599   0.1832   0.1860   0.2201   0.2293   0.3881   0.3899
     0.4129   0.4435   0.4447   0.4804   0.5199   0.5685   0.5935   0.6005
     0.6155   0.6629   0.6644   0.6846   0.7082   0.7261   0.8145   0.8257
     0.8711   0.8790   0.9381   0.9560   0.9748   0.9757   1.0075   1.0296
     1.0550   1.1057   1.1224   1.1404   1.1879   1.1909   1.2002   1.2337
     1.2394   1.2455   1.2518   1.2933   1.3108   1.3718   1.3921   1.4573
     1.4743   1.4907   1.5007   1.5279   1.5450   1.5660   1.5938   1.5946
     1.6358   1.7026   1.7163   1.7390   1.8814   1.8946   1.9031   1.9321
     2.2149   2.5147   2.5169   3.0901   3.1814   3.2360   3.5219   4.2694
     4.6407   4.7211   5.2136   5.2193   5.4219   5.5507   5.7428   5.8966
     6.1022   6.2085   6.2197   6.5056   6.5742   6.5771

          k = 0.2000 0.3464 0.0000 ( 93518 PWs)   bands (ev):

   -22.2315 -19.5583 -19.1021  -9.3439  -6.9302  -6.8020  -6.1850  -5.6435
    -5.6313  -5.5777  -5.3372  -4.5812  -4.5652  -4.5596  -4.5441  -4.5230
    -4.4960  -4.4832  -4.4758  -4.3818  -4.3734  -4.1001  -4.0015  -3.9902
    -3.9790  -3.9558  -3.9170  -3.8806  -3.7566  -3.7371  -3.7306  -3.7216
    -3.7091  -3.6376  -3.5840  -3.5808  -3.5616  -3.5544  -3.4933  -3.4595
    -3.4583  -3.4203  -3.3919  -3.3347  -3.0958  -3.0371  -2.9813  -2.9673
    -2.9510  -2.9367  -2.9269  -2.9162  -2.8628  -2.8562  -2.7858  -2.6883
    -2.6851  -2.6467  -2.6002  -2.5665  -2.5080  -2.4976  -2.4653  -2.4148
    -2.3871  -2.2678  -2.2413  -2.2065  -2.1784  -2.1514  -2.1052  -2.0954
    -2.0681  -2.0336  -2.0171  -1.9425  -1.8996  -1.8850  -1.8459  -1.8274
    -1.8107  -1.7922  -1.7549  -1.7375  -1.6977  -1.6778  -1.6566  -1.6136
    -1.5661  -1.5516  -1.5255  -1.5188  -1.5088  -1.4947  -1.4666  -1.4476
    -1.4375  -1.3879  -1.3521  -1.3325  -1.3035  -1.2773  -1.2694  -1.2262
    -1.1941  -1.1747  -1.1514  -1.1351  -1.1151  -1.0987  -1.0771  -1.0664
    -1.0467  -1.0372  -1.0264  -1.0060  -0.9572  -0.9093  -0.8938  -0.8397
    -0.7828  -0.7647  -0.7367  -0.7140  -0.6741  -0.5726  -0.5557  -0.4352
    -0.4151  -0.3887  -0.3707  -0.3558  -0.3312  -0.3152  -0.2920  -0.2707
    -0.2537  -0.2244  -0.1858  -0.1694  -0.0661   0.0196   0.0360   0.0468
     0.0620   0.1097   0.1210   0.1469   0.2481   0.2607   0.2777   0.3200
     0.3263   0.3850   0.4557   0.4734   0.4902   0.5064   0.5505   0.5666
     0.5754   0.5799   0.6026   0.6052   0.6194   0.6463   0.6908   0.7906
     0.8174   0.8869   0.9452   0.9845   1.0167   1.1269   1.1321   1.1596
     1.1932   1.2518   1.2662   1.2799   1.2973   1.3078   1.3282   1.3321
     1.3588   1.3826   1.3903   1.4094   1.4400   1.4917   1.5179   1.5363
     1.5536   1.5736   1.5915   1.6309   1.7539   1.7953   1.8099   1.8618
     1.8799   1.9622   2.0106   2.0430   2.1177   2.5463   2.5583   2.7055
     3.0873   3.0978   3.2145   3.2517   3.8171   3.9118   4.0138   4.0469
     4.1259   4.3922   4.7465   5.1982   5.3421   5.4088   5.4573   5.8993
     5.9459   5.9988   6.0322   6.0638   6.1737   6.2045

          k = 0.2000-0.5774 0.0000 ( 93544 PWs)   bands (ev):

   -22.2315 -19.5583 -19.1022  -9.3435  -6.8720  -6.3699  -6.3165  -6.1498
    -5.7200  -5.3431  -5.0930  -5.0708  -4.5838  -4.5578  -4.4320  -4.3957
    -4.3052  -4.2823  -4.1894  -4.1743  -4.1392  -4.0666  -4.0548  -4.0316
    -4.0111  -4.0003  -3.9888  -3.9493  -3.8524  -3.8409  -3.8360  -3.8003
    -3.7914  -3.7158  -3.6268  -3.5903  -3.5350  -3.4481  -3.4388  -3.4330
    -3.4144  -3.3955  -3.3127  -3.2952  -3.2032  -3.1859  -3.0631  -3.0050
    -2.9903  -2.9214  -2.8785  -2.8306  -2.8028  -2.7587  -2.6657  -2.6279
    -2.6144  -2.5935  -2.5665  -2.5156  -2.5048  -2.4817  -2.4110  -2.3982
    -2.3743  -2.3585  -2.3519  -2.3392  -2.2893  -2.2751  -2.2632  -2.1718
    -2.1287  -2.0912  -2.0722  -1.9974  -1.9716  -1.9441  -1.9347  -1.8982
    -1.8769  -1.8529  -1.8386  -1.7990  -1.7739  -1.7472  -1.7194  -1.6848
    -1.6752  -1.6447  -1.5989  -1.5851  -1.5304  -1.5012  -1.4774  -1.4618
    -1.4372  -1.3903  -1.3419  -1.3020  -1.2971  -1.2654  -1.2515  -1.2204
    -1.2117  -1.2001  -1.1732  -1.1709  -1.1393  -1.1114  -1.1024  -1.0865
    -1.0697  -1.0593  -1.0356  -1.0287  -1.0195  -0.9943  -0.9415  -0.9006
    -0.8050  -0.7194  -0.6977  -0.6564  -0.6442  -0.5481  -0.5334  -0.5181
    -0.4821  -0.4370  -0.4314  -0.4156  -0.3953  -0.3794  -0.3156  -0.2832
    -0.2638  -0.2074  -0.1927  -0.1638  -0.1325  -0.0947  -0.0128   0.0387
     0.1111   0.1323   0.1456   0.1622   0.2221   0.2317   0.2488   0.2718
     0.2901   0.3263   0.3444   0.3603   0.4350   0.4620   0.4774   0.5065
     0.5250   0.5330   0.5569   0.5858   0.6313   0.6988   0.7994   0.8240
     0.8853   0.9222   0.9607   0.9725   1.0471   1.1008   1.1181   1.1545
     1.2420   1.2489   1.2702   1.3020   1.3178   1.3438   1.3571   1.3694
     1.4215   1.4485   1.4782   1.4878   1.5116   1.5334   1.5411   1.5935
     1.6544   1.7042   1.7196   1.7495   1.7562   1.7861   1.8044   1.8890
     1.9485   2.0643   2.1527   2.8934   2.8952   3.1587   3.2108   3.2826
     3.2958   3.3415   3.4481   3.8934   3.9141   3.9594   4.3747   4.4576
     4.4830   4.5091   4.5245   4.7337   4.8201   4.9734   5.0470   5.3302
     5.3740   5.4792   5.9179   5.9685   5.9992   6.1462

          k = 0.2000-0.3464 0.0000 ( 93518 PWs)   bands (ev):

   -22.2315 -19.5583 -19.1021  -9.3437  -6.9341  -6.7994  -6.1863  -5.6574
    -5.6160  -5.5705  -5.3383  -4.5858  -4.5621  -4.5502  -4.5468  -4.5179
    -4.5106  -4.4780  -4.4720  -4.3850  -4.3714  -4.1184  -3.9962  -3.9866
    -3.9789  -3.9474  -3.9174  -3.8913  -3.7535  -3.7417  -3.7261  -3.7209
    -3.7151  -3.6299  -3.5964  -3.5691  -3.5594  -3.5506  -3.4969  -3.4665
    -3.4513  -3.4200  -3.4094  -3.3322  -3.0859  -3.0578  -2.9769  -2.9740
    -2.9605  -2.9367  -2.9214  -2.9144  -2.8584  -2.8358  -2.7507  -2.7047
    -2.6872  -2.6481  -2.5930  -2.5565  -2.5107  -2.4993  -2.4729  -2.4180
    -2.3858  -2.2921  -2.2511  -2.1980  -2.1698  -2.1307  -2.1113  -2.0936
    -2.0481  -2.0281  -2.0151  -1.9445  -1.8976  -1.8906  -1.8616  -1.8399
    -1.8229  -1.7949  -1.7599  -1.7446  -1.6977  -1.6912  -1.6670  -1.6095
    -1.5597  -1.5518  -1.5332  -1.5146  -1.5102  -1.5006  -1.4710  -1.4690
    -1.4424  -1.3838  -1.3669  -1.3205  -1.3062  -1.2787  -1.2512  -1.2146
    -1.1903  -1.1615  -1.1473  -1.1415  -1.1204  -1.0933  -1.0769  -1.0742
    -1.0366  -1.0269  -0.9931  -0.9873  -0.9696  -0.9478  -0.8961  -0.8546
    -0.7794  -0.7664  -0.7443  -0.6984  -0.6584  -0.5790  -0.5469  -0.4396
    -0.4103  -0.3799  -0.3580  -0.3526  -0.3398  -0.3257  -0.2943  -0.2823
    -0.2603  -0.2152  -0.1910  -0.1631  -0.0606   0.0113   0.0286   0.0374
     0.0829   0.1198   0.1289   0.1461   0.2288   0.2584   0.2863   0.3157
     0.3293   0.3970   0.4517   0.4719   0.4966   0.5274   0.5486   0.5619
     0.5688   0.5788   0.5967   0.6002   0.6314   0.6652   0.6707   0.7964
     0.8357   0.8822   0.9398   0.9540   1.0453   1.1250   1.1440   1.1582
     1.1725   1.2510   1.2581   1.2764   1.2902   1.3163   1.3324   1.3404
     1.3477   1.3829   1.3987   1.4149   1.4373   1.4834   1.5087   1.5423
     1.5495   1.5620   1.6208   1.6238   1.7538   1.7960   1.8112   1.8593
     1.8804   1.8995   2.0128   2.0366   2.2028   2.5397   2.5748   2.6558
     3.0742   3.1087   3.1508   3.3346   3.8203   3.9147   4.0085   4.0826
     4.2116   4.2578   4.7381   5.1977   5.2975   5.4421   5.5190   5.9070
     5.9208   5.9492   6.0313   6.0625   6.2090   6.2392

          k = 0.4000-0.2309 0.0000 ( 93540 PWs)   bands (ev):

   -22.2315 -19.5583 -19.1022  -9.3436  -6.8896  -6.7091  -6.2061  -6.0619
    -5.4481  -5.3371  -5.0374  -5.0205  -4.8944  -4.6646  -4.5111  -4.4074
    -4.3538  -4.3112  -4.3018  -4.2049  -4.1342  -4.0971  -4.0861  -4.0743
    -4.0227  -3.9528  -3.9188  -3.9154  -3.8687  -3.8604  -3.8235  -3.7870
    -3.7322  -3.7257  -3.7100  -3.4717  -3.4669  -3.4591  -3.4502  -3.4443
    -3.4322  -3.2432  -3.2104  -3.1868  -3.1763  -3.1635  -3.1558  -3.0343
    -2.9261  -2.8848  -2.8667  -2.8595  -2.8291  -2.8128  -2.7719  -2.7348
    -2.7140  -2.6865  -2.6644  -2.6028  -2.5309  -2.5055  -2.4788  -2.4638
    -2.3525  -2.3240  -2.3165  -2.2830  -2.2490  -2.1359  -2.1282  -2.0787
    -2.0593  -2.0360  -1.9913  -1.9746  -1.9500  -1.9316  -1.8739  -1.8572
    -1.8111  -1.7968  -1.7586  -1.7172  -1.6872  -1.6692  -1.6509  -1.6426
    -1.6235  -1.5870  -1.5656  -1.5619  -1.5506  -1.5413  -1.5168  -1.4904
    -1.4687  -1.4418  -1.4103  -1.3948  -1.3829  -1.3503  -1.3169  -1.2734
    -1.2473  -1.2339  -1.1861  -1.1322  -1.1011  -1.0897  -1.0757  -1.0632
    -1.0073  -0.9673  -0.9448  -0.9241  -0.8633  -0.8493  -0.8150  -0.7729
    -0.6791  -0.6629  -0.5982  -0.5882  -0.5364  -0.4978  -0.4828  -0.4642
    -0.4490  -0.4388  -0.4119  -0.3825  -0.3527  -0.3446  -0.3209  -0.2849
    -0.2732  -0.2592  -0.2306  -0.2037  -0.1488  -0.1253  -0.0923  -0.0508
    -0.0256   0.0697   0.0759   0.1017   0.2059   0.2182   0.3141   0.3443
     0.3800   0.3886   0.4138   0.4313   0.4703   0.4776   0.5371   0.5556
     0.5849   0.6139   0.6245   0.7079   0.7262   0.7357   0.7481   0.7684
     0.7895   0.8902   0.9664   0.9701   1.0063   1.0119   1.0322   1.0418
     1.1338   1.1492   1.1830   1.2514   1.2580   1.2977   1.3149   1.3415
     1.3503   1.3650   1.4300   1.4676   1.4866   1.4976   1.5018   1.5169
     1.5281   1.5923   1.6988   1.7003   1.7412   1.7563   1.8115   1.8566
     1.9100   1.9719   2.4088   2.4479   2.5149   2.7786   2.7937   2.9111
     3.1865   3.2076   3.5184   3.5553   3.9962   4.0044   4.0560   4.2069
     4.3149   4.3552   4.5180   4.6616   4.6856   4.8171   5.3335   5.4147
     5.8714   5.8953   6.0486   6.1237   6.4067   6.5002

          k = 0.4000-0.0000 0.0000 ( 93518 PWs)   bands (ev):

   -22.2315 -19.5583 -19.1021  -9.3439  -6.9301  -6.8021  -6.1849  -5.6434
    -5.6318  -5.5778  -5.3372  -4.5882  -4.5670  -4.5581  -4.5425  -4.5171
    -4.4931  -4.4847  -4.4759  -4.3812  -4.3734  -4.1006  -3.9968  -3.9891
    -3.9797  -3.9683  -3.9046  -3.8899  -3.7590  -3.7371  -3.7298  -3.7187
    -3.7113  -3.6371  -3.5845  -3.5781  -3.5610  -3.5541  -3.4925  -3.4632
    -3.4537  -3.4169  -3.3963  -3.3354  -3.0932  -3.0442  -2.9804  -2.9686
    -2.9511  -2.9357  -2.9281  -2.9168  -2.8626  -2.8549  -2.7847  -2.6882
    -2.6829  -2.6443  -2.5990  -2.5658  -2.5083  -2.4970  -2.4647  -2.4140
    -2.3912  -2.2660  -2.2401  -2.2061  -2.1774  -2.1513  -2.1059  -2.0943
    -2.0686  -2.0353  -2.0172  -1.9419  -1.9005  -1.8830  -1.8457  -1.8275
    -1.8121  -1.7922  -1.7542  -1.7377  -1.6995  -1.6789  -1.6548  -1.6146
    -1.5659  -1.5521  -1.5273  -1.5187  -1.5089  -1.4941  -1.4665  -1.4480
    -1.4379  -1.3894  -1.3528  -1.3313  -1.3024  -1.2771  -1.2686  -1.2271
    -1.1942  -1.1753  -1.1525  -1.1341  -1.1153  -1.0987  -1.0765  -1.0656
    -1.0472  -1.0367  -1.0264  -1.0067  -0.9575  -0.9077  -0.8927  -0.8403
    -0.7836  -0.7658  -0.7359  -0.7133  -0.6760  -0.5720  -0.5554  -0.4363
    -0.4150  -0.3895  -0.3698  -0.3555  -0.3311  -0.3159  -0.2915  -0.2705
    -0.2543  -0.2233  -0.1875  -0.1693  -0.0671   0.0190   0.0362   0.0467
     0.0618   0.1103   0.1198   0.1469   0.2487   0.2601   0.2769   0.3201
     0.3269   0.3846   0.4561   0.4734   0.4907   0.5068   0.5505   0.5663
     0.5750   0.5808   0.6027   0.6046   0.6200   0.6467   0.6911   0.7901
     0.8173   0.8880   0.9447   0.9848   1.0163   1.1269   1.1321   1.1598
     1.1920   1.2518   1.2665   1.2801   1.2978   1.3075   1.3282   1.3322
     1.3586   1.3828   1.3905   1.4099   1.4400   1.4921   1.5170   1.5361
     1.5540   1.5738   1.5914   1.6310   1.7548   1.7958   1.8106   1.8622
     1.8801   1.9607   2.0109   2.0433   2.1171   2.5464   2.5580   2.7058
     3.0878   3.0983   3.2138   3.2528   3.8170   3.9123   4.0139   4.0460
     4.1261   4.3918   4.7470   5.1982   5.3424   5.4098   5.4567   5.8983
     5.9496   5.9914   6.0362   6.0642   6.1762   6.2038

          k = 0.4000 0.2309 0.0000 ( 93540 PWs)   bands (ev):

   -22.2315 -19.5583 -19.1021  -9.3440  -6.8853  -6.7107  -6.1917  -6.0796
    -5.4608  -5.3334  -5.0261  -5.0253  -4.9012  -4.6661  -4.5094  -4.4094
    -4.3520  -4.3110  -4.3021  -4.1853  -4.1303  -4.1042  -4.0882  -4.0720
    -4.0281  -3.9555  -3.9234  -3.9072  -3.8717  -3.8625  -3.8201  -3.7873
    -3.7317  -3.7253  -3.7139  -3.4705  -3.4667  -3.4577  -3.4551  -3.4368
    -3.4302  -3.2298  -3.2042  -3.1813  -3.1780  -3.1604  -3.1511  -3.0240
    -2.9599  -2.8829  -2.8698  -2.8596  -2.8418  -2.8182  -2.7795  -2.7288
    -2.7192  -2.6886  -2.6633  -2.6145  -2.5439  -2.4930  -2.4829  -2.4534
    -2.3587  -2.3305  -2.3160  -2.2928  -2.2475  -2.1557  -2.1187  -2.0691
    -2.0620  -2.0404  -2.0247  -1.9782  -1.9377  -1.9347  -1.8348  -1.8340
    -1.7894  -1.7463  -1.7323  -1.7057  -1.6831  -1.6716  -1.6688  -1.6589
    -1.5940  -1.5916  -1.5703  -1.5619  -1.5489  -1.5479  -1.5385  -1.5102
    -1.4742  -1.4281  -1.4041  -1.4017  -1.3811  -1.3306  -1.3052  -1.2730
    -1.2361  -1.2043  -1.1873  -1.1289  -1.1147  -1.1078  -1.0704  -1.0642
    -1.0396  -0.9751  -0.9437  -0.9201  -0.8920  -0.8465  -0.8230  -0.8138
    -0.6642  -0.6277  -0.6269  -0.5876  -0.5156  -0.4926  -0.4887  -0.4650
    -0.4493  -0.4265  -0.3899  -0.3685  -0.3535  -0.3385  -0.3279  -0.2987
    -0.2901  -0.2602  -0.2430  -0.2241  -0.1610  -0.1228  -0.0948  -0.0819
    -0.0268   0.0715   0.0809   0.1021   0.2048   0.2272   0.3002   0.3735
     0.3775   0.3977   0.4280   0.4397   0.4585   0.4748   0.5353   0.5506
     0.5749   0.6023   0.6255   0.7181   0.7197   0.7248   0.7479   0.7730
     0.7778   0.8715   0.9542   0.9903   1.0075   1.0255   1.0307   1.0507
     1.1334   1.1484   1.1771   1.2577   1.2644   1.2966   1.3188   1.3378
     1.3443   1.3837   1.4085   1.4758   1.4848   1.4936   1.4982   1.5175
     1.5417   1.6061   1.7016   1.7052   1.7403   1.7481   1.8385   1.8402
     1.9119   1.9728   2.4055   2.4470   2.5401   2.7845   2.7909   2.8488
     3.1921   3.1991   3.5189   3.5578   3.9969   4.0022   4.0526   4.2388
     4.3331   4.3514   4.5656   4.6340   4.7118   4.7274   5.3157   5.4435
     5.8814   5.9089   6.1047   6.1124   6.4449   6.4532

          k = 0.4000-0.6928 0.0000 ( 93544 PWs)   bands (ev):

   -22.2315 -19.5583 -19.1021  -9.3438  -6.8701  -6.3491  -6.3317  -6.1612
    -5.7135  -5.3507  -5.0885  -5.0795  -4.5769  -4.5636  -4.4289  -4.3955
    -4.2952  -4.2806  -4.2022  -4.1751  -4.1252  -4.0742  -4.0467  -4.0293
    -4.0197  -3.9995  -3.9943  -3.9506  -3.8580  -3.8405  -3.8212  -3.8036
    -3.7953  -3.7169  -3.6277  -3.5885  -3.5339  -3.4511  -3.4306  -3.4276
    -3.4204  -3.3910  -3.3096  -3.2903  -3.2033  -3.1962  -3.0424  -3.0038
    -2.9926  -2.9490  -2.8809  -2.8296  -2.8000  -2.7643  -2.6670  -2.6374
    -2.6082  -2.5949  -2.5582  -2.5092  -2.5041  -2.4749  -2.4382  -2.3909
    -2.3761  -2.3637  -2.3587  -2.3381  -2.2933  -2.2824  -2.2495  -2.1863
    -2.1323  -2.1000  -2.0697  -1.9941  -1.9825  -1.9392  -1.9115  -1.9069
    -1.8623  -1.8449  -1.8215  -1.7672  -1.7568  -1.7281  -1.7090  -1.6916
    -1.6728  -1.6467  -1.6196  -1.5867  -1.5490  -1.4978  -1.4846  -1.4796
    -1.4296  -1.3722  -1.3318  -1.3129  -1.3013  -1.2760  -1.2560  -1.2237
    -1.2108  -1.1883  -1.1802  -1.1604  -1.1437  -1.1052  -1.0943  -1.0839
    -1.0715  -1.0662  -1.0491  -1.0279  -1.0161  -0.9773  -0.9504  -0.8982
    -0.8152  -0.7354  -0.7022  -0.6672  -0.6417  -0.5485  -0.5340  -0.5151
    -0.4684  -0.4350  -0.4206  -0.4104  -0.4032  -0.3802  -0.3115  -0.2990
    -0.2699  -0.2246  -0.1940  -0.1602  -0.1294  -0.0829  -0.0224   0.0512
     0.0941   0.1229   0.1315   0.1599   0.2173   0.2497   0.2595   0.2698
     0.2872   0.3236   0.3365   0.3720   0.4371   0.4681   0.4824   0.5011
     0.5122   0.5271   0.5604   0.5846   0.6308   0.7033   0.7925   0.8213
     0.8747   0.9521   0.9693   0.9719   1.0492   1.0946   1.0968   1.1569
     1.2245   1.2645   1.2818   1.3050   1.3166   1.3382   1.3465   1.3906
     1.4177   1.4635   1.4806   1.4939   1.5146   1.5278   1.5306   1.6007
     1.6250   1.7156   1.7292   1.7393   1.7504   1.7861   1.8079   1.9093
     1.9408   2.0862   2.1385   2.8921   2.8977   3.1015   3.2049   3.2954
     3.3051   3.3129   3.5416   3.8764   3.9125   3.9259   4.3668   4.4167
     4.5047   4.5309   4.5511   4.7292   4.8131   4.9130   5.1568   5.3046
     5.3774   5.4700   5.9189   5.9899   6.0124   6.1149

          k = 0.4000-0.4619 0.0000 ( 93544 PWs)   bands (ev):

   -22.2315 -19.5583 -19.1022  -9.3436  -6.8719  -6.3662  -6.3218  -6.1482
    -5.7200  -5.3431  -5.0914  -5.0725  -4.5871  -4.5602  -4.4307  -4.3948
    -4.2944  -4.2826  -4.1998  -4.1750  -4.1220  -4.0659  -4.0505  -4.0371
    -4.0119  -4.0045  -3.9919  -3.9650  -3.8525  -3.8418  -3.8322  -3.7997
    -3.7848  -3.7177  -3.6228  -3.5896  -3.5351  -3.4488  -3.4392  -3.4298
    -3.4135  -3.3960  -3.3175  -3.2949  -3.2039  -3.1850  -3.0661  -3.0056
    -2.9941  -2.9139  -2.8783  -2.8325  -2.8016  -2.7584  -2.6653  -2.6270
    -2.6144  -2.5929  -2.5644  -2.5153  -2.5048  -2.4845  -2.4105  -2.3975
    -2.3747  -2.3589  -2.3529  -2.3369  -2.2877  -2.2742  -2.2667  -2.1703
    -2.1286  -2.0916  -2.0694  -1.9977  -1.9721  -1.9454  -1.9328  -1.9002
    -1.8788  -1.8503  -1.8386  -1.7995  -1.7756  -1.7461  -1.7179  -1.6841
    -1.6796  -1.6448  -1.5985  -1.5849  -1.5301  -1.5022  -1.4770  -1.4604
    -1.4359  -1.3915  -1.3425  -1.3025  -1.2977  -1.2658  -1.2509  -1.2199
    -1.2129  -1.2009  -1.1738  -1.1706  -1.1390  -1.1118  -1.1024  -1.0847
    -1.0694  -1.0599  -1.0378  -1.0298  -1.0186  -0.9947  -0.9433  -0.8984
    -0.8026  -0.7193  -0.7010  -0.6571  -0.6438  -0.5482  -0.5327  -0.5187
    -0.4806  -0.4379  -0.4312  -0.4154  -0.3936  -0.3803  -0.3151  -0.2831
    -0.2636  -0.2081  -0.1911  -0.1638  -0.1323  -0.0959  -0.0144   0.0380
     0.1106   0.1320   0.1459   0.1628   0.2226   0.2316   0.2497   0.2714
     0.2915   0.3265   0.3435   0.3594   0.4349   0.4627   0.4776   0.5066
     0.5245   0.5324   0.5575   0.5838   0.6300   0.6991   0.7999   0.8241
     0.8861   0.9225   0.9608   0.9725   1.0472   1.1013   1.1177   1.1540
     1.2424   1.2486   1.2702   1.3017   1.3176   1.3435   1.3578   1.3700
     1.4218   1.4481   1.4783   1.4878   1.5111   1.5334   1.5412   1.5935
     1.6551   1.7044   1.7196   1.7504   1.7562   1.7867   1.8044   1.8892
     1.9480   2.0645   2.1526   2.8932   2.8952   3.1585   3.2105   3.2822
     3.2936   3.3449   3.4483   3.8934   3.9139   3.9592   4.3746   4.4592
     4.4829   4.5087   4.5246   4.7362   4.8210   4.9720   5.0462   5.3282
     5.3730   5.4805   5.9162   5.9678   5.9986   6.1479

     the Fermi energy is     1.5241 ev

!    total energy              =  -27901.98286037 Ry

     total all-electron energy =  -1327173.053059 Ry
     estimated scf accuracy    <       0.00000096 Ry
     smearing contrib. (-TS)   =      -0.00195975 Ry
     internal energy E=F+TS    =  -27901.98090062 Ry

     The total energy is F=E-TS. E is the sum of the following terms:
     one-electron contribution =  -30120.20858091 Ry
     hartree contribution      =   15364.22851641 Ry
     xc contribution           =    -918.81781465 Ry
     ewald contribution        =   13283.74657039 Ry
     one-center paw contrib.   =  -25510.92959186 Ry

     convergence has been achieved in  19 iterations

     negative rho (up, down):  1.487E-02 0.000E+00

     Forces acting on atoms (cartesian axes, Ry/au):

     atom    1 type  1   force =     0.00105531    0.00064802   -0.00255742
     atom    2 type  1   force =     0.00032761   -0.00043037   -0.00752966
     atom    3 type  1   force =    -0.00077236   -0.00008693   -0.00331830
     atom    4 type  1   force =    -0.00026997    0.00048851   -0.00748483
     atom    5 type  1   force =    -0.00089338   -0.00049142   -0.00264515
     atom    6 type  1   force =     0.00097476   -0.00010267   -0.00391673
     atom    7 type  1   force =    -0.00047347   -0.00059037   -0.00331658
     atom    8 type  1   force =     0.00037945    0.00088657   -0.00396285
     atom    9 type  1   force =     0.00008895    0.00006842   -0.00370627
     atom   10 type  1   force =    -0.00301424   -0.00143731    0.00776488
     atom   11 type  1   force =     0.00070025    0.00048690    0.00065045
     atom   12 type  1   force =     0.00064804    0.00160948    0.00640616
     atom   13 type  1   force =     0.00074329    0.00044570    0.00078925
     atom   14 type  1   force =     0.00025618    0.00016542    0.00673491
     atom   15 type  1   force =    -0.00037122   -0.00286306    0.00361921
     atom   16 type  1   force =     0.00156305   -0.00020090    0.00616199
     atom   17 type  1   force =    -0.00258408    0.00122286    0.00320373
     atom   18 type  1   force =     0.00073846    0.00047762    0.00032843
     atom   19 type  1   force =    -0.00003948    0.00020002    0.00024516
     atom   20 type  1   force =     0.00006050    0.00014321   -0.00004251
     atom   21 type  1   force =     0.00006691    0.00016410    0.00005718
     atom   22 type  1   force =    -0.00006394    0.00007153   -0.00011377
     atom   23 type  1   force =     0.00006583    0.00010698    0.00005060
     atom   24 type  1   force =     0.00006379    0.00011379    0.00002202
     atom   25 type  1   force =     0.00005118    0.00017298   -0.00007164
     atom   26 type  1   force =     0.00005544    0.00003776    0.00021214
     atom   27 type  1   force =    -0.00004988    0.00006996   -0.00011832
     atom   28 type  1   force =     0.00018975    0.00023873    0.00033063
     atom   29 type  1   force =    -0.00021701   -0.00005724    0.00018918
     atom   30 type  1   force =     0.00006640    0.00033267    0.00026571
     atom   31 type  1   force =    -0.00026031    0.00006040    0.00018097
     atom   32 type  1   force =     0.00018959    0.00027360    0.00024661
     atom   33 type  1   force =    -0.00008654    0.00030520    0.00044322
     atom   34 type  1   force =     0.00023852    0.00011797    0.00023519
     atom   35 type  1   force =     0.00008925   -0.00002697    0.00033849
     atom   36 type  1   force =    -0.00010163    0.00006333    0.00005787
     atom   37 type  2   force =     0.00024001   -0.00014016    0.00071561
     atom   38 type  3   force =     0.00049440   -0.00466418    0.00087381
     atom   39 type  2   force =     0.00016241    0.00011800    0.00022586
     atom   40 type  2   force =     0.00221116   -0.00340275    0.00270160
     atom   41 type  4   force =    -0.00252300    0.00540457   -0.00426679

     Total force =     0.010131     Total SCF correction =     0.002117
     SCF correction compared to forces is large: reduce conv_thr to get better values

     negative rho (up, down):  1.487E-02 0.000E+00

     negative rho (up, down):  1.487E-02 0.000E+00

     negative rho (up, down):  1.487E-02 0.000E+00

     negative rho (up, down):  1.487E-02 0.000E+00

     negative rho (up, down):  1.487E-02 0.000E+00

     negative rho (up, down):  1.487E-02 0.000E+00

     negative rho (up, down):  1.487E-02 0.000E+00

     negative rho (up, down):  1.487E-02 0.000E+00

     negative rho (up, down):  1.487E-02 0.000E+00

     negative rho (up, down):  1.487E-02 0.000E+00

     negative rho (up, down):  1.487E-02 0.000E+00

     negative rho (up, down):  1.487E-02 0.000E+00

     negative rho (up, down):  1.487E-02 0.000E+00

     negative rho (up, down):  1.487E-02 0.000E+00

     negative rho (up, down):  1.487E-02 0.000E+00

     negative rho (up, down):  1.487E-02 0.000E+00

     negative rho (up, down):  1.487E-02 0.000E+00

     negative rho (up, down):  1.487E-02 0.000E+00

     negative rho (up, down):  1.487E-02 0.000E+00

     negative rho (up, down):  1.487E-02 0.000E+00

     negative rho (up, down):  1.487E-02 0.000E+00

     negative rho (up, down):  1.487E-02 0.000E+00

     negative rho (up, down):  1.487E-02 0.000E+00

     negative rho (up, down):  1.487E-02 0.000E+00

     negative rho (up, down):  1.487E-02 0.000E+00

     negative rho (up, down):  1.487E-02 0.000E+00

     negative rho (up, down):  1.487E-02 0.000E+00

     negative rho (up, down):  1.487E-02 0.000E+00

     negative rho (up, down):  1.487E-02 0.000E+00

     negative rho (up, down):  1.487E-02 0.000E+00

     negative rho (up, down):  1.487E-02 0.000E+00

     negative rho (up, down):  1.487E-02 0.000E+00

     negative rho (up, down):  1.487E-02 0.000E+00

     negative rho (up, down):  1.487E-02 0.000E+00
 BEEFens 2000 ensemble energies
             -0.615408500613663E+02
             -0.365983700686294E+01
             -0.160415865630933E+02
              0.435542598914355E+02
             -0.224088514924932E+02
             -0.207935436554790E+02
             -0.358379027900099E+02
             -0.878130895834871E+02
             -0.471205394268769E+02
             -0.478969094216063E+02
             -0.374323236931731E+02
              0.232856531166940E+01
              0.411355502109944E+01
              0.763150740069014E+01
              0.271285764585829E+01
              0.481520618926403E+02
             -0.211972881675528E+02
             -0.232823700140694E+02
              0.195551548447515E+02
             -0.113967832056373E+03
              0.544337070019709E+02
             -0.292937255998038E+02
             -0.341850416493281E+01
             -0.115610844009975E+02
             -0.888418865162885E+01
             -0.476617732547811E+01
              0.895300792713639E+02
             -0.189466913532677E+02
             -0.916357416822484E+01
             -0.526035565167531E+02
              0.826384027775403E+02
             -0.189148991416116E+02
             -0.380678212287245E+02
              0.252642691588922E+02
             -0.288153826066468E+01
              0.166985967200937E+02
             -0.487721633835156E+01
              0.108863688514389E+02
              0.292240127447862E+02
             -0.104751322299133E+03
              0.566061544634973E+02
              0.144124365637134E+02
             -0.179939856539329E+01
             -0.366446543097067E+02
              0.124720836472642E+02
             -0.148861851038671E+02
              0.404864771057680E+02
              0.370035136215654E+02
             -0.311662412905820E+02
             -0.279359228585004E+02
             -0.332325862338092E+02
             -0.357038925361814E+02
              0.138183025081460E+02
             -0.498363910523301E+02
              0.117587360316836E+02
              0.631775242263184E+02
              0.645083877710420E+02
              0.360552253441860E+02
              0.156834355530943E+02
              0.274532566723163E+02
              0.903959884740449E+02
              0.215741932290472E+02
             -0.556434382406184E+02
             -0.158914409397828E+02
             -0.239571250618300E+02
              0.638781278341969E+02
             -0.784502421961850E+02
             -0.680171693392934E+02
             -0.263179372171420E+02
             -0.662067582092675E+01
             -0.477383845707982E+02
              0.274473066444968E+02
              0.816247750102923E+01
              0.887211410949311E+01
             -0.402408372563577E+02
             -0.351839741246945E+02
             -0.549759590698377E+02
              0.395475895815720E+02
             -0.300371709861617E+02
              0.268871327166546E+02
             -0.722560318142529E+01
             -0.322314560136970E+02
             -0.584421308091792E+02
             -0.178964816446465E+02
             -0.925000120030984E+01
             -0.127260150476822E+02
              0.417715388369125E+02
              0.692698957401701E+02
             -0.391747735739358E+02
             -0.806276792917782E+02
             -0.222438987608660E+02
              0.113090211219513E+03
             -0.600081190458024E+02
              0.360589996987568E+02
             -0.973461655194865E+01
             -0.672244978106412E+02
              0.258333758398181E+02
              0.403311586447222E+02
             -0.200835425736932E+02
              0.404769984378242E+02
             -0.299807284002900E+02
             -0.485770181295195E+02
              0.878771014297822E+02
              0.460501212230512E+02
              0.340502567127759E+02
              0.148438358524380E+02
              0.208594454333314E+02
              0.868265296767008E+02
             -0.260384645080776E+02
              0.793141763697271E+01
             -0.144393291705266E+03
              0.184090081626985E+02
             -0.725855491463937E+02
              0.152786090894384E+02
              0.207619988096820E+02
             -0.337811623476243E+02
             -0.564613937096172E+02
              0.660801702356571E+01
             -0.308183254027504E+02
              0.313357768890575E+02
             -0.536591972927835E+02
              0.167128314185436E+01
             -0.362220035108442E+02
             -0.430481608452521E+01
             -0.104228115247133E+01
              0.183491832586775E+02
              0.141128795335283E+01
             -0.662129974955178E+01
              0.599018833006268E+02
              0.921083717617350E+02
              0.490819799593679E+02
              0.841065773217322E+02
             -0.117036768258633E+02
              0.144698101776002E+02
              0.548784849973185E+02
             -0.111517986884015E+02
             -0.746372491664073E+02
             -0.389473861795864E+02
             -0.528524196712493E+02
             -0.280804230420327E+02
              0.330900827746545E+02
             -0.118468160578019E+03
             -0.189151440622729E+02
              0.420268516891377E+02
             -0.391788601857999E+02
             -0.369810758535680E+02
              0.551661699872205E+02
              0.407295662800159E+02
             -0.358237695718038E+02
              0.140681870837155E+02
             -0.276554198805692E+02
              0.348325773776804E+02
              0.457230121129595E+01
              0.213422145174789E+02
             -0.896733044940067E+02
             -0.487159257199514E+02
             -0.100772849214845E+02
              0.324482938540393E+01
             -0.372548412808907E+02
              0.107523805108023E+03
             -0.233520289937371E+02
             -0.402934567281285E+02
              0.394634086016122E+02
             -0.501035375765878E+02
             -0.368131107977226E+02
              0.329185939468819E+02
              0.126000582287069E+02
              0.166235170611617E+02
              0.118165917639871E+02
             -0.134379826530749E+02
              0.227436318118199E+02
              0.598681589768834E+02
             -0.315988297279620E+02
              0.165280551419743E+02
              0.947087629368168E+02
              0.345084974324481E+02
             -0.739589326715702E+01
             -0.191084487813788E+02
              0.155519996709311E+03
             -0.166801107033423E+02
              0.368254364427643E+02
              0.197948130798299E+02
              0.366405968340397E+02
              0.905068429120628E+02
              0.549805869710636E+02
             -0.248853758969092E+01
              0.230883786022396E+02
              0.491593169632611E+02
              0.369065183586369E+02
             -0.533756917384638E+02
              0.949049686420241E+02
             -0.837501977308386E+02
             -0.200356903823146E+02
              0.591045947325552E+02
              0.687974355355753E+01
              0.797164630952818E+01
              0.345493200449543E+02
              0.301940153596504E+02
              0.358600987101652E+02
             -0.646575231059355E+02
              0.293284500854588E+01
             -0.301115364440562E+02
             -0.884314847560552E+01
             -0.147207420573022E+01
             -0.734628084547203E+01
             -0.422369469115097E+01
              0.871056875986365E+02
             -0.102128331621122E+02
             -0.280442614166439E+02
             -0.499791856461464E+01
              0.141755755029495E+02
             -0.572544147234167E+02
             -0.413648637951737E+02
             -0.387117515233871E+02
             -0.638877259654680E+02
             -0.172176101987439E+02
             -0.453318058495112E+02
              0.166193691937914E+02
             -0.239982681193408E+01
             -0.106112290088312E+02
             -0.946857098048099E+01
              0.816415304703037E+01
             -0.245703187209218E+02
              0.698381291039703E+02
             -0.818883037425145E+02
             -0.143066004381673E+02
             -0.176388926051249E+02
              0.184315798925227E+02
              0.216757163927383E+02
             -0.470574247823890E+02
             -0.204170998317899E+02
              0.447028359612118E+02
             -0.279329919617904E+02
              0.188848562347227E+02
              0.388027612896981E+02
             -0.324007348016380E+01
              0.115754659785904E+03
             -0.232728101321336E+02
             -0.345825060147575E+02
              0.585319577237442E+01
             -0.231590033998169E+02
              0.535244489167695E+02
             -0.342771134524551E+02
              0.107910944849111E+02
              0.648975128710602E+02
             -0.128360601628449E+02
              0.121886651944691E+03
              0.127667053041801E+03
             -0.659268046675211E+02
              0.598482010677828E+02
              0.169089339490087E+02
             -0.525351029117262E+02
              0.218984313439951E+02
              0.359004037045854E+02
              0.368520862552613E+02
              0.140775860037706E+01
              0.161377108280567E+02
              0.705724587577845E+02
             -0.250142904639771E+02
              0.183017948517684E+02
              0.749463578102967E+02
             -0.377915391596865E+02
             -0.132085000580387E+02
              0.516065198573296E+02
              0.301440228045809E+02
              0.791339527740688E+02
              0.226599322011598E+02
              0.637338891868706E+01
              0.284256852096372E+02
              0.388855649830587E+02
             -0.478240058241177E+02
              0.337686678510681E+01
              0.132223547211869E+02
              0.115170372778341E+02
              0.223578023618090E+02
             -0.583054051047744E+02
              0.370813127520962E+02
             -0.450079439576074E+02
             -0.351662418909778E+02
              0.180178208128388E+02
             -0.183310808919127E+02
              0.562738086631574E+02
             -0.259207807493590E+02
              0.270765077426992E+02
              0.372655199323239E+02
              0.840303383521909E+02
              0.582220232001265E+02
              0.468643721344802E+02
             -0.107069499029898E+02
             -0.400596059059910E+01
             -0.336377713829133E+02
              0.761478548055675E+02
              0.808547993631878E+02
              0.367190861294423E+02
             -0.195392379126261E+02
              0.518872964992207E+02
             -0.163902456604297E+02
              0.217861464527353E+02
              0.623579442235632E+02
              0.212004593158261E+01
             -0.105814360496710E+02
             -0.286434235135575E+02
             -0.519095937017722E+02
              0.958703059042295E+02
              0.446063930350008E+02
             -0.567325803203665E+02
             -0.987346424914460E+01
              0.253845060220005E+02
             -0.101365716745265E+02
              0.601022766456597E+02
              0.154280794052185E+02
              0.810476275275050E+02
              0.283370498524158E+02
             -0.267938854360586E+02
              0.252232018900891E+02
             -0.510627876104189E+01
             -0.327932327420608E+02
              0.135590085478859E+02
              0.208378799706271E+02
              0.945097134214903E+02
              0.808349160234174E+02
              0.558569940634945E+02
              0.740550167235233E+02
              0.808655464578811E+01
             -0.277293332104884E+02
              0.165078728602226E+02
             -0.373011689837940E+02
             -0.483545365415980E+02
             -0.571962482364117E+02
             -0.270771287669469E+02
             -0.111220616429220E+03
             -0.295877533569500E+02
             -0.849261803360274E+02
              0.212763265230761E+02
             -0.483545449002582E+02
              0.403039758250660E+02
             -0.954671155232543E+02
             -0.334269397006482E+02
              0.555320170847436E+02
              0.210762138392774E+02
             -0.842720802833886E+02
              0.639351592064183E+02
             -0.260528905794422E+02
              0.520084083002821E+02
             -0.246888583842098E+02
             -0.762418093890369E+02
              0.114356542558519E+02
             -0.620614210434786E+02
             -0.169837517058151E+02
             -0.147284771220433E+01
              0.424494992915445E+02
              0.128765464431175E+03
             -0.468081309853869E+02
             -0.367897443880816E+02
             -0.101600381888244E+01
             -0.132036646815507E+02
             -0.833907153098740E+02
             -0.604951086622450E+02
              0.524396902851725E+02
             -0.292400936573158E+02
              0.171640714217008E+02
             -0.496440366494124E+02
             -0.133980030783612E+02
             -0.443161739819720E+02
              0.572704821781685E+02
              0.153383471918515E+02
             -0.234821175713562E+02
             -0.128887892971533E+02
              0.681253680084963E+01
             -0.632829203626670E+01
              0.447703819619042E+02
             -0.255747820530590E+02
              0.284208171056900E+01
              0.343727259699579E+02
              0.173665605877355E+02
             -0.162374708145850E+02
              0.158453048603275E+03
              0.545607051891295E+02
              0.125800612500306E+01
              0.162971025929133E+02
             -0.623322362860959E+02
              0.319429032700266E+02
             -0.732353935805935E+02
             -0.256256700608687E+02
             -0.530507808538391E+02
             -0.222528020586847E+02
              0.576992832092851E+02
             -0.544963769572251E+02
              0.163730650447903E+02
             -0.410666862243750E+01
              0.392573779266328E+01
             -0.438930655370746E+02
             -0.484374807180819E+02
             -0.401138788250103E+01
             -0.430835132649649E+02
             -0.220665802025379E+02
             -0.444139273139255E+02
             -0.120527913554589E+02
             -0.363788266590572E+02
             -0.523708377546861E+02
              0.216217886411940E+02
             -0.211883780032901E+02
              0.190715081646614E+02
              0.989332940442932E+01
             -0.748367513035033E+02
             -0.555736280381745E+02
             -0.404102438790499E+02
              0.359485338247146E+02
              0.267947666458298E+01
             -0.635886344927097E+02
              0.593518250250240E+02
             -0.406957199904270E+02
              0.552448336499039E+02
             -0.293747608117845E+02
             -0.452941057891806E+02
              0.302506008244103E+02
             -0.667664911030004E+02
             -0.384968766983894E+02
              0.681599331818157E+02
              0.206550929395053E+02
             -0.365487830681845E+02
              0.496850115305203E+02
             -0.176405210567661E+02
             -0.327833234982461E+02
             -0.306231214301393E+02
             -0.507703765029692E+02
              0.252600543497176E+02
             -0.945408887771257E+02
             -0.851726934082634E+02
             -0.745391338030549E+01
             -0.310881394484421E+02
             -0.583697572790536E+02
              0.732298372951018E+02
              0.133414418849327E+03
             -0.365190660476898E+02
             -0.258195146682215E+01
             -0.646005736064807E+02
              0.659665953889948E+02
              0.173655330528781E+02
             -0.184265972154226E+02
             -0.415399515575615E+02
              0.150953452004988E+02
             -0.594892949070144E+02
             -0.199891922700688E+02
             -0.917503505175022E+02
              0.341892612530557E+02
              0.171057761694734E+02
              0.179776692519715E+01
             -0.714459961845171E+01
             -0.334735082374780E+02
             -0.770552766840007E+01
              0.127351332782890E+03
             -0.201446013358541E+02
             -0.443729037057054E+02
             -0.693433684935868E+02
              0.110952048527324E+02
             -0.347063839761620E+02
              0.601508830190105E+01
              0.265860132487919E+02
              0.102820962952339E+02
              0.282300395196727E+02
              0.121819381528048E+02
              0.637921096791199E+02
              0.321011599370788E+02
             -0.331272543754914E+02
              0.361820887473791E+02
              0.384559694089334E+02
              0.122693204973220E+02
              0.492851493844865E+02
             -0.228286204197840E+02
              0.776082635169315E+02
              0.175272574640290E+02
             -0.276683224635190E+02
             -0.731355707672904E+01
             -0.188744736290665E+02
              0.264797534362432E+02
             -0.238496374631144E+02
             -0.192235681364309E+00
             -0.866604199834740E+01
              0.821225114657283E+02
              0.507894235048693E+02
             -0.697084020587604E+02
             -0.483089122171086E+01
             -0.563139111443891E+02
             -0.161813233486149E+02
             -0.271467214508515E+02
              0.388139428070031E+01
              0.531989772984392E+00
             -0.261251241241642E+02
              0.831648825279404E+01
             -0.614038290524581E+01
             -0.130124802696717E+02
              0.871303106908474E+02
              0.184383521953241E+02
             -0.818077749993369E+02
             -0.464221271853094E+02
              0.957881034254248E+02
              0.281360984535151E+02
             -0.108012697548976E+02
              0.106088142957226E+03
             -0.197826756341512E+02
             -0.124393971125243E+02
             -0.549204381605887E+01
              0.109474833495098E+02
              0.276347963007773E+02
              0.785994647440714E+01
              0.309415526851183E+02
             -0.190017015313618E+02
             -0.308361179652055E+02
             -0.423321890520604E+02
             -0.483867737263216E+02
              0.470033226266200E+02
              0.128912378168388E+02
              0.392967356303466E+02
              0.135529942007150E+02
              0.868057258709460E+02
              0.159091085106750E+02
             -0.857024255406413E+02
             -0.339145657783062E+02
              0.135104179855475E+02
             -0.306895613615150E+02
              0.635358093153924E+02
             -0.908645305168238E+01
              0.151404357025131E+02
              0.504639355444824E+02
             -0.718158241273520E+02
              0.151848776438486E+03
              0.211389244276411E+02
              0.274763626175411E+02
              0.352685645111169E+02
              0.104922035841411E+02
             -0.160479078289336E+01
              0.363492388024401E+02
             -0.361918598195577E+02
              0.784754250215066E+02
              0.694861771830671E+02
             -0.411583990542109E+02
              0.151961071872057E+02
              0.680306421967657E+02
             -0.227200201906565E+02
              0.156621031327670E+02
              0.440836073173528E+02
              0.428466068039655E+02
             -0.795715887473131E+02
             -0.154241372359745E+02
             -0.360994063751171E+02
             -0.156277315071816E+01
             -0.773118148622172E+01
             -0.546091411671250E+01
             -0.183156388869122E+02
             -0.297825935945480E+02
              0.647752459890150E+01
              0.113089361247985E+02
              0.543265815778544E+02
             -0.396276748938192E+02
              0.379911932858188E+02
              0.445049369963863E+02
             -0.189069290892789E+02
              0.884141052813753E+02
             -0.707462727079592E+02
             -0.104650011746417E+03
             -0.666300068863493E+01
             -0.278941655145240E+01
              0.388054621245726E+01
              0.800223410476081E+02
             -0.107972150124467E+02
              0.422473358587757E+02
              0.450986382220823E+02
              0.390727216543576E+02
             -0.100329376596795E+02
              0.636639227776161E+02
             -0.135889458640747E+02
             -0.312403565752861E+02
             -0.485767955003557E+02
              0.597993982837382E+01
              0.375355265474545E+02
             -0.609254018922024E+01
              0.398467654374738E+02
             -0.175891045368229E+01
              0.663998311779996E+02
              0.190344593033730E+02
              0.100905697463162E+02
             -0.122230736446253E+02
              0.336791715909473E+02
              0.368250023504937E+02
              0.235461543593528E+02
             -0.547459534594850E+00
             -0.558129310714299E+02
              0.264863865956934E+02
              0.178011708784450E+02
              0.407999354097011E+02
              0.276728640848799E+02
              0.377514646519411E+02
             -0.616180642333643E+01
              0.255033747086740E+02
             -0.302214169616566E+02
             -0.200495717869728E+01
             -0.577005799536805E+02
             -0.312766163078891E+02
              0.384702452323589E+02
             -0.948384954139023E+02
              0.298454322083066E+02
              0.186178242108916E+02
              0.851886502678049E+02
             -0.304014267010810E+02
              0.333721345418279E+02
             -0.139393275270936E+02
             -0.470804087745014E+02
             -0.771893102244558E+02
             -0.538628009204855E+01
             -0.872551660536159E+02
              0.201782476726411E+02
             -0.250596786160930E+02
              0.310167112011870E+02
              0.239578124409146E+02
             -0.244740138295968E+02
             -0.269085693871547E+02
              0.396844220869077E+02
             -0.596139574470730E+02
             -0.118264813378750E+02
             -0.198718453898596E+02
              0.216010093312173E+02
             -0.896452571770175E+01
              0.368389339015039E+01
             -0.203399438750840E+02
              0.566514108975021E+02
             -0.446289221002587E+02
              0.801579238100021E+01
              0.593647905143188E+02
             -0.328195392802357E+02
              0.363024731588115E+01
             -0.886051504168722E+01
             -0.679279395027030E+02
             -0.489161779173575E+02
             -0.870600126196009E+01
              0.244552721905390E+02
              0.306711458562284E+02
              0.866651100288959E+01
             -0.425968668041310E+01
              0.154825506859493E+02
             -0.446266305810112E+02
              0.331339539349085E+01
             -0.538455036014855E+02
             -0.328429450573151E+02
              0.481567943707111E+02
             -0.299379365958603E+02
              0.631659167607624E+02
             -0.217538086775230E+02
              0.358996723151409E+02
              0.245277963540954E+02
             -0.652747692300844E+02
             -0.284631842350841E+02
              0.943306207752860E+01
             -0.376967844032775E+02
             -0.345176974941259E+02
             -0.841956540481749E+02
             -0.547387188188603E+02
             -0.517750568042391E+02
             -0.421873842210962E+02
             -0.960188604646021E+00
              0.101973138024168E+02
              0.108212615792820E+01
              0.156219133225693E+02
             -0.557475548376440E+02
              0.143636789485791E+02
              0.259656624189693E+02
             -0.676533315223227E+02
             -0.710842751337789E+02
             -0.436645527086135E+02
             -0.175483234336243E+02
              0.181193924754619E+02
              0.453919157166706E+01
             -0.432629769922795E+02
              0.371151559104809E+02
             -0.219031685950265E+02
              0.524804101385708E+02
             -0.899606806988260E+02
              0.606031812619970E+02
             -0.218055837911598E+01
             -0.374129680423908E+02
             -0.220381197962457E+02
              0.473589132768754E+01
              0.381123096039733E+02
             -0.766636002832811E+02
             -0.122711035834414E+02
             -0.219202472389176E+02
              0.517662392669294E+02
              0.876280739447755E+02
             -0.978872553796461E+02
              0.957321608007237E+02
              0.474187177788897E+02
             -0.736215966075214E+02
             -0.371557114623469E+02
              0.762776964337774E+02
              0.640350142036191E+02
             -0.183730486328778E+02
             -0.473248489244401E+01
              0.751576435918804E+01
              0.659373488214088E+02
             -0.516338482127138E+02
              0.160679048481857E+02
             -0.481360052455501E+01
              0.352235652700114E+02
             -0.757195367638871E+02
             -0.656114347447503E+01
             -0.355713122820677E+02
              0.467496523858496E+02
              0.474745270045941E+02
             -0.873933565909661E+02
             -0.493957162705491E+02
             -0.259458669238880E+02
             -0.344855161743383E+02
             -0.111330013579046E+02
             -0.246267148180874E+02
              0.433595603447468E+02
              0.407411082491709E+02
[...]
              0.286782107819401E+02
              0.143753231560683E+03
              0.246268536549039E+02
              0.124946778395765E+02
             -0.471445867761589E+02
             -0.646667095375905E+02
             -0.191036598659772E+02
              0.333623418578824E+02
             -0.435644812181215E+01
              0.192703598497148E+02
              0.340787178944190E+02
             -0.595577015378196E+02
              0.226088780458056E+02
              0.588754040035732E+02
              0.561386982041413E+02
             -0.430486585597714E+01
             -0.135483871989402E+01
             -0.100520485854264E+02
             -0.489092440744868E+02
             -0.684821460917068E+02
              0.796926950078814E+02
             -0.535749001952021E+01
             -0.596022409085880E+02
              0.174885067429423E+01
             -0.208900407350841E+02
              0.950888180729727E+02
             -0.219390374690879E+02
             -0.358513104611624E+02
              0.339663905417157E+02
             -0.147756170826745E+02
              0.395887769907022E+02
             -0.245212827224020E+01
              0.102468606444212E+03
              0.496509064683645E+02
             -0.509207061465706E+01
             -0.327058619250981E+02
              0.236036409236538E+02
             -0.536206158612383E+02
             -0.129094017356894E+02
              0.594372397773994E+02
             -0.291359280649585E+02
             -0.444701652150598E+02
             -0.226141417557594E+02
              0.525975286269669E+02
              0.126862117619399E+02
             -0.860691930135759E+02
              0.308529884678397E+02
              0.153932703041717E+02
              0.588251806835129E+01
             -0.520213059208776E+02
             -0.370494312331004E+01
              0.327988904744113E+02
              0.520055059332330E+02
              0.641146728757770E+02
              0.233053433258764E+02
              0.862456636580362E+00
             -0.505073143930567E+02
             -0.516177743399743E+02
             -0.758098298120920E+02
             -0.626472177314508E+01
              0.313456375869027E+02
             -0.383285499874697E+01
              0.554169454525420E+02
             -0.322425980817065E+02
              0.168976923081549E+02
             -0.104650182083328E+02
             -0.293341012586961E+02
              0.593688885201555E+02
              0.801187206216832E+01
              0.612588955342809E+02
              0.516881018925187E+01
              0.268331848674893E+02
             -0.194987270989332E+02
              0.594783114320435E+02
             -0.112991962663512E+02
             -0.159811687962247E+00
             -0.800991130233096E+02
             -0.129719232743521E+02
              0.729125412441717E+02
              0.682775648004724E+02
              0.255000552321192E+02
             -0.132452694510001E+02
              0.344917575901144E+01
             -0.176023199194310E+02
             -0.217295137012121E+01
              0.919965976957640E+02
              0.127352997818730E+01
             -0.193889887516629E+02
             -0.112292549950213E+03
             -0.560030990640580E+02
             -0.380108813301206E+02
             -0.667955958928047E+02
             -0.563486770424956E+02
             -0.692707867430689E+02
             -0.453351292471292E+02
             -0.415604805619482E+02
             -0.458375129714002E+02
              0.489868565349232E+02
             -0.297542271930948E+02
             -0.100932530263081E+03
              0.424830889268911E+02
             -0.264128652731772E+02
             -0.802018490264915E+02
              0.957756481781876E+02
             -0.222964921530316E+02
              0.230711298686073E+02
              0.460987105825789E+02
             -0.130211673164069E+01
              0.257580954657893E+02
              0.472381948359265E+01
              0.416529325092725E+00
             -0.152188214382347E+02
             -0.725606630011595E+02
              0.134862866012855E+02
             -0.131158792223009E+03
              0.633062603432233E+02
             -0.446385265274563E+02
             -0.164937021325015E+02
             -0.160566618856071E+02
              0.733532639071692E+01
             -0.230300320837054E+02
              0.301501641951700E+02
             -0.528284754514797E+02
              0.372599509152377E+02
              0.376216229106181E+02
              0.170629726975383E+02
              0.101614675923099E+02
              0.200704489945887E+02
              0.631891112874655E+01
              0.314852632217492E+02
             -0.811077295686937E+01
             -0.601014117301599E+02
              0.771610835662506E+01
             -0.156443475801621E+02
             -0.197697759035270E+01
              0.513060059018316E+02
             -0.838199786464224E+02
             -0.150412970005476E+01
              0.585612362659674E+00
              0.100728681998289E+02
              0.322964272988982E+02
             -0.125406023466281E+02
              0.847413515098159E+02
              0.494203854624631E+02
             -0.185800236445171E+02
             -0.974106637210969E+01
              0.111432119489561E+01
              0.780612520080699E+02
             -0.593652840073898E+02
             -0.107208841012342E+03
              0.313135201528396E+02
             -0.164260186240108E+02
             -0.141242527976621E+02
              0.132944324585174E+02
              0.779508943471561E+02
              0.470521039048751E+02
             -0.155853133997101E+02
             -0.510034053974435E+02
             -0.560270939719302E+01
              0.310463994050635E+02
             -0.113616026829208E+02
             -0.765977058143919E+02
             -0.276538685570361E+01
             -0.902765788141546E+02
             -0.482338350307239E+02
              0.779579273261461E+02
             -0.490464453812816E+02
             -0.645994191435161E+02
             -0.521713496511590E+02
             -0.354761079915304E+02
              0.345386337321906E+02
              0.833161507438724E+02
             -0.362412135115136E+01
              0.280321382801307E+02
             -0.186184294994121E+02
             -0.703299598926108E+02
              0.471896607172750E+02
             -0.451397918454326E+02
              0.325904179645636E+02
              0.381083485979159E+02
             -0.671601947377025E+01
              0.396536718397070E+02
              0.444364156207401E+02
              0.102177443245133E+03
             -0.158080128351939E+02
             -0.462467937890141E+02
             -0.621756681390846E+02
             -0.126017091666052E+02
             -0.237241333332945E+02
              0.104403263220587E+03
             -0.455133911223091E+02
              0.106541258918550E+02
              0.980877040661784E+01
             -0.267875218460141E+02
             -0.809990133662045E+02
             -0.708457062669726E+01
              0.993493782613448E+02
              0.957998939064788E+01
              0.821210751869648E+01
             -0.534176706300218E+02
             -0.613185100320020E+02
             -0.578861972685515E+01
              0.506776573229815E+02
             -0.225295953801321E+02
              0.109417616865075E+03
             -0.441333343664794E+02
              0.148797174862948E+02
             -0.226971828558646E+02
             -0.727357083794113E+02
              0.174636822362777E+01
             -0.508989729734817E+02
             -0.770840669350296E+02
              0.626309943082902E+01
              0.238536341184894E+01
              0.520998546954598E+02
              0.190498955537639E+02
             -0.328155978027921E+02
              0.233442879381810E+02
             -0.822228972877948E+02
             -0.528827849309273E+02
              0.914560860649938E+02
              0.143903347340901E+02
             -0.189624961216674E+02
             -0.356619089404890E+02
             -0.271762346850880E+01
             -0.597838838604844E+01
              0.841940124995251E+02
              0.423255511236323E+02
             -0.167940399842744E+02
             -0.122855277329419E+02
             -0.433341204959873E+02
             -0.203406293627639E+02
             -0.679132399621946E+02
              0.466418420104454E+02
              0.554900736058420E+01
              0.146447067160685E+02
              0.158097684713366E+02
             -0.672685948749479E+00
             -0.171111690994724E+02
             -0.310326140854992E+01
             -0.101898135064069E+03
             -0.232021485587610E+02
             -0.773510333506641E+01
             -0.958678627725982E+01
              0.554066878748255E+02
              0.632344143377998E+02
              0.166985411612387E+02
             -0.983657367631173E+02
              0.656428601694829E+02
             -0.218188873014527E+02
             -0.382226194849529E+02
             -0.876327934038437E+02
             -0.391583795684679E+02
              0.572343249129973E+02
              0.248206548094971E+02
              0.531253662609799E+01
              0.296750945599206E+02
             -0.572651681069570E+02
             -0.428603543664627E+02
              0.523250726129055E+02
              0.392813177076214E+02
              0.525904838332179E+02
             -0.124440045516405E+01
              0.695947700168557E+01
              0.576929669002179E+02
              0.976559028057013E+02
             -0.303499583231545E+02
              0.328019683493646E+02
             -0.120784966092851E+02
             -0.418167133677310E+02
             -0.318855109954904E+02
             -0.304226756198580E+02
             -0.133167195894281E+02
             -0.530353686309499E+02
             -0.220427290169726E+02
             -0.143032398564936E+03
              0.373379025715319E+02
              0.210101521332115E+02
             -0.396880620908647E+01
             -0.385500993576908E+02
             -0.207329342405505E+02
             -0.534124221298277E+02
              0.152623138936691E+02
              0.831221863558912E+02
             -0.254853798795683E+02
             -0.165356227527539E+02
              0.240735155404905E+02
             -0.495944907172969E+02
              0.892762181828055E+02
              0.156845198446526E+02
              0.228260702465763E+02
              0.497551963243964E+02
              0.321091563334284E+01
              0.550028489928628E+02
              0.145281503706191E+02
             -0.107530974728364E+02
              0.747261462952358E+01
              0.737885001243342E+00
              0.737115391829534E+02
              0.102246790678446E+02
              0.122741823978863E+02
             -0.131246044141816E+02
              0.133967597890531E+02
             -0.924135988969444E+02
             -0.331114865475627E+02
             -0.463779306612457E+02
              0.492699680840907E+02
             -0.295512631564519E+02
             -0.667122905897171E+02
              0.546542725490372E+02
             -0.124059200294698E+02
              0.446023657545664E+02
             -0.911509458794592E+02
              0.235326090135278E+02
              0.867757970456353E+01
              0.587246622412260E+01
             -0.845283184593853E+01
             -0.912505697028882E+01
              0.486342894687029E+02
              0.203870490920031E+01
             -0.481703107986962E+02
             -0.178596480941787E+02
              0.280166297433039E+02
             -0.119545306063041E+03
             -0.942474293348862E+02
              0.399487698082083E+01
              0.119337948261256E+02
             -0.419242125296644E+02
             -0.393037508778332E+01
              0.113597570084392E+03
              0.311383996572473E+02
             -0.579143850558734E+02
              0.937617784366793E+01
             -0.978307423232461E+01
              0.107128460468781E+02
             -0.342116233928539E+02
              0.197991863584181E+02
              0.288123517340266E+02
             -0.310175799713238E+01
              0.109706706435836E+03
             -0.141514348610418E+02
             -0.320596574040949E+02
              0.146354023929733E+02
              0.472564014149793E+02
             -0.360830314059454E+02
             -0.320224741801966E+01
              0.978052808949558E+02
             -0.469714542116094E+01
              0.629162993266169E+02
              0.137612936312092E+02
             -0.916135958797409E+01
             -0.308211420333253E+02
              0.574112515038145E+02
             -0.522258843818836E+02
             -0.226009861121651E+01
             -0.172465882636186E+02
             -0.411092683874839E+02
              0.186668787314796E+02
              0.242168656749855E+02
              0.116820897167538E+02
              0.693126761040276E+00
             -0.389759947058415E+02
              0.218032834435709E+02
             -0.677622992257966E+01
             -0.249945660853462E+02
             -0.213672731114760E+02
              0.206396842777570E+02
             -0.601719955065857E+01
             -0.354315282452717E+02
             -0.108092123896524E+03
              0.103683100214119E+02
              0.251880486575105E+02
             -0.393470382477976E+02
             -0.213950932111640E+02
              0.818253217573445E+02
              0.661976491275735E+01
              0.316060967871332E+02
              0.399738607520817E+01
              0.326993131934397E+02
              0.651995808331299E+01
             -0.378506184679316E+02
             -0.237286004361783E+01
              0.886042479963402E+01
              0.277784917503290E+02
              0.793112517244009E+02
              0.514249438659277E+02
              0.209380801490511E+00
              0.170769751169201E+02
              0.621451178818906E+02
              0.239524817589158E+02
             -0.763065300534421E+02
             -0.277609306535746E+02
              0.153115845874988E+02
              0.573962124545415E+01
              0.258611302055146E+02
             -0.555217949006179E+02
              0.912028069965713E+01
              0.391227016013502E+02
              0.504917210720141E+02
             -0.441004981813754E+02
             -0.694636846703139E+01
             -0.212029949761859E+01
             -0.136347180232825E+02
             -0.369919879184101E+02
             -0.217582767946026E+02
             -0.207161645740389E+01
              0.805308485213897E+01
              0.427101182463856E+02
             -0.312670425813203E+02
              0.837236785617692E+02
              0.332399902907671E+02
              0.223111724436852E+02
              0.337704221228350E+02
              0.327413559780121E+02
              0.350366704340626E+02
              0.544806647372239E+02
             -0.440289193259379E+02
              0.628206609752512E+02
             -0.113805187122936E+03
              0.311873154846183E+02
             -0.108013725608859E+03
              0.866080484631009E+02
              0.701117017011520E+02
             -0.111246736103616E+02
             -0.500146512904117E+02
             -0.435231776560358E+02
             -0.631570883126104E+02
             -0.637428470711464E+02
              0.559345416392775E+02
              0.411413546876727E+02
              0.240218344997356E+02
              0.378277436963598E+02
              0.408587342902454E+02
             -0.387545807454787E+02
             -0.200248037808426E+02
              0.594067156746002E+02
             -0.117559401124846E+02
              0.558635587829472E+02
              0.709537589558937E+02
             -0.557075732784693E+01
             -0.716324199452988E+02
             -0.897534323438094E+00
             -0.244547756336411E+01
             -0.896893245139449E+01
             -0.175654800173697E+01
             -0.662137580433449E+02
             -0.213102134842363E+02
              0.551781652690446E+01
              0.911094032755523E+01
              0.475546474736621E+02
             -0.403277071736761E+02
              0.665953580010732E+02
             -0.430841403754437E+02
              0.213565335939522E+02
              0.355992050786961E+02
 
 BEEF-vdW xc energy contributions
           1 :   -793.367156487750     
           2 :    728.481068400368     
           3 :   -616.339222102130     
           4 :    484.554786874391     
           5 :   -360.927718285400     
           6 :    265.365411812209     
           7 :   -205.519284810502     
           8 :    176.844656777478     
           9 :   -166.634520941431     
          10 :    160.173227716060     
          11 :   -146.531310980012     
          12 :    121.818052761807     
          13 :   -89.0385885846138     
          14 :    55.1905374317632     
          15 :   -27.2886885139877     
          16 :    9.11140920515959     
          17 :   9.462123119453736E-002
          18 :   -4.69071057939595     
          19 :    10.1796479533875     
          20 :   -20.4958091421825     
          21 :    36.3021280463889     
          22 :   -54.9693418286777     
          23 :    72.0796583513220     
          24 :   -83.6339363629066     
          25 :    87.8785339894584     
          26 :   -85.9475135781768     
          27 :    81.1113161409023     
          28 :   -77.0927435992471     
          29 :    76.3045949266964     
          30 :   -78.8374195799951     
          31 :   -86.9321927234203     
          32 :   -66.5223957036376     

     Writing output data file ./pwscf.save/
 
     init_run     :    387.60s CPU    392.31s WALL (       1 calls)
     electrons    :  15029.72s CPU  15162.19s WALL (       1 calls)
     forces       :    115.12s CPU    116.47s WALL (       1 calls)

     Called by init_run:
     wfcinit      :    336.73s CPU    340.33s WALL (       1 calls)
     potinit      :     47.30s CPU     47.65s WALL (       1 calls)
     hinit0       :      1.59s CPU      1.63s WALL (       1 calls)

     Called by electrons:
     c_bands      :  12425.31s CPU  12526.48s WALL (      20 calls)
     sum_band     :   1833.96s CPU   1848.07s WALL (      20 calls)
     v_of_rho     :    114.00s CPU    118.30s WALL (      20 calls)
     newd         :     33.63s CPU     46.72s WALL (      20 calls)
     PAW_pot      :    142.94s CPU    142.94s WALL (      20 calls)
     mix_rho      :    527.87s CPU    528.65s WALL (      20 calls)
     vdW_kernel   :     35.66s CPU     35.66s WALL (       1 calls)

     Called by c_bands:
     init_us_2    :     83.59s CPU     83.81s WALL (     546 calls)
     cegterg      :  11588.92s CPU  11689.81s WALL (     260 calls)

     Called by *egterg:
     cdiaghg      :     95.78s CPU     95.80s WALL (    1306 calls)
     h_psi        :   7673.12s CPU   7708.90s WALL (    1332 calls)
     s_psi        :   1203.26s CPU   1203.27s WALL (    1332 calls)
     g_psi        :     16.74s CPU     16.79s WALL (    1059 calls)

     Called by h_psi:
     h_psi:calbec :   1143.67s CPU   1143.80s WALL (    1332 calls)
     vloc_psi     :   5301.43s CPU   5303.25s WALL (    1332 calls)
     add_vuspsi   :   1201.89s CPU   1201.99s WALL (    1332 calls)

     General routines
     calbec       :   1697.51s CPU   1697.68s WALL (    1644 calls)
     fft          :     54.82s CPU     54.84s WALL (    3220 calls)
     ffts         :    182.30s CPU    182.32s WALL (   11058 calls)
     fftw         :   5458.68s CPU   5459.80s WALL (  338674 calls)
 
     Parallel routines
 
     PWSCF        :      4h20m CPU      4h23m WALL

 
   This run was terminated on:  20: 9:30  20May2022            

=------------------------------------------------------------------------------=
   JOB DONE.
=------------------------------------------------------------------------------=
