
     Program PWSCF v.6.7MaX starts on 26Sep2022 at 14:16: 8 

     This program is part of the open-source Quantum ESPRESSO suite
     for quantum simulation of materials; please cite
         "P. Giannozzi et al., J. Phys.:Condens. Matter 21 395502 (2009);
         "P. Giannozzi et al., J. Phys.:Condens. Matter 29 465901 (2017);
          URL http://www.quantum-espresso.org", 
     in publications or presentations arising from this work. More details at
     http://www.quantum-espresso.org/quote

     Parallel version (MPI), running on     1 processors

     MPI processes distributed on     1 nodes
     Reading input from hcoh-ensemble.in
Warning: card &CELL ignored
Warning: card / ignored

     Current dimensions of program PWSCF are:
     Max number of different atomic species (ntypx) = 10
     Max number of k-points (npk) =  40000
     Max angular momentum in pseudopotentials (lmaxx) =  3
     file Pt.pbe-n-kjpaw_psl.1.0.0.UPF: wavefunction(s)  6S 5D renormalized
     file C.pbe-n-kjpaw_psl.1.0.0.UPF: wavefunction(s)  2S 2P renormalized
     file H.pbe-kjpaw_psl.1.0.0.UPF: wavefunction(s)  1S renormalized
     file O.pbe-nl-kjpaw_psl.1.0.0.UPF: wavefunction(s)  2S 2P renormalized

     **************************************************************************
     Initializing libbeef V0.1.2 with the BEEF-vdW functional.
     Citation: Wellendorff et al., PRB 85, 235149 (2012).
     **************************************************************************


     IMPORTANT: XC functional enforced from input :
     Exchange-correlation= BEEF-VDW
                           (   1   4  43  14   2   0   0)
     Any further DFT definition will be discarded
     Please, verify this is what you really want


     Subspace diagonalization in iterative solution of the eigenvalue problem:
     a serial algorithm will be used

 
     G-vector sticks info
     --------------------
     sticks:   dense  smooth     PW     G-vecs:    dense   smooth      PW
     Sum        4267    4267   1159               707847   707847   99771
 


     bravais-lattice index     =            0
     lattice parameter (alat)  =      16.0349  a.u.
     unit-cell volume          =   11266.6366 (a.u.)^3
     number of atoms/cell      =           40
     number of atomic types    =            4
     number of electrons       =       372.00
     number of Kohn-Sham states=          223
     kinetic-energy cutoff     =      60.0000  Ry
     charge density cutoff     =     240.0000  Ry
     scf convergence threshold =      1.0E-06
     mixing beta               =       0.7000
     number of iterations used =            8  local-TF  mixing
     Exchange-correlation= BEEF-VDW
                           (   1   4  43  14   2   0   0)

     celldm(1)=  16.034858  celldm(2)=   0.000000  celldm(3)=   0.000000
     celldm(4)=   0.000000  celldm(5)=   0.000000  celldm(6)=   0.000000

     crystal axes: (cart. coord. in units of alat)
               a(1) = (   1.000000   0.000000   0.000000 )  
               a(2) = (   0.500000   0.866025   0.000000 )  
               a(3) = (   0.000000   0.000000   3.155501 )  

     reciprocal axes: (cart. coord. in units 2 pi/alat)
               b(1) = (  1.000000 -0.577350  0.000000 )  
               b(2) = (  0.000000  1.154701  0.000000 )  
               b(3) = (  0.000000  0.000000  0.316907 )  


     PseudoPot. # 1 for Pt read from file:
     /users/bkreitz1/quantum-espresso/potentials/Pt.pbe-n-kjpaw_psl.1.0.0.UPF
     MD5 check sum: 04dc8a03c51ece93fc7b5889c2958091
     Pseudo is Projector augmented-wave + core cor, Zval = 10.0
     Generated using 'atomic' code by A. Dal Corso  v.6.7MaX
     Shape of augmentation charge: PSQ
     Using radial grid of 1277 points,  6 beta functions with: 
                l(1) =   0
                l(2) =   0
                l(3) =   1
                l(4) =   1
                l(5) =   2
                l(6) =   2
     Q(r) pseudized with 0 coefficients 


     PseudoPot. # 2 for C  read from file:
     /users/bkreitz1/quantum-espresso/potentials/C.pbe-n-kjpaw_psl.1.0.0.UPF
     MD5 check sum: a169b0ebad56f5ec0d79c4633f80bf22
     Pseudo is Projector augmented-wave + core cor, Zval =  4.0
     Generated using 'atomic' code by A. Dal Corso  v.6.7MaX
     Shape of augmentation charge: PSQ
     Using radial grid of 1073 points,  4 beta functions with: 
                l(1) =   0
                l(2) =   0
                l(3) =   1
                l(4) =   1
     Q(r) pseudized with 0 coefficients 


     PseudoPot. # 3 for H  read from file:
     /users/bkreitz1/quantum-espresso/potentials/H.pbe-kjpaw_psl.1.0.0.UPF
     MD5 check sum: ae98473e6dc62675f0d0baffdab24f65
     Pseudo is Projector augmented-wave, Zval =  1.0
     Generated using 'atomic' code by A. Dal Corso  v.6.7MaX
     Shape of augmentation charge: PSQ
     Using radial grid of  929 points,  2 beta functions with: 
                l(1) =   0
                l(2) =   0
     Q(r) pseudized with 0 coefficients 


     PseudoPot. # 4 for O  read from file:
     /users/bkreitz1/quantum-espresso/potentials/O.pbe-nl-kjpaw_psl.1.0.0.UPF
     MD5 check sum: eef08af8b58d9ec80f8fdb78829eb7cf
     Pseudo is Projector augmented-wave + core cor, Zval =  6.0
     Generated using 'atomic' code by A. Dal Corso  v.6.7MaX
     Shape of augmentation charge: PSQ
     Using radial grid of 1095 points,  4 beta functions with: 
                l(1) =   0
                l(2) =   0
                l(3) =   1
                l(4) =   1
     Q(r) pseudized with 0 coefficients 


     atomic species   valence    mass     pseudopotential
        Pt            10.00   195.08400     Pt( 1.00)
        C              4.00    12.01100     C ( 1.00)
        H              1.00     1.00800     H ( 1.00)
        O              6.00    15.99900     O ( 1.00)

     No symmetry found



   Cartesian axes

     site n.     atom                  positions (alat units)
         1           Pt  tau(   1) = (   0.0000000   0.0000000   1.0017346  )
         2           Pt  tau(   2) = (   0.3333333   0.0000000   1.0017346  )
         3           Pt  tau(   3) = (   0.6666667   0.0000000   1.0017346  )
         4           Pt  tau(   4) = (   0.1666667   0.2886751   1.0017346  )
         5           Pt  tau(   5) = (   0.5000000   0.2886751   1.0017346  )
         6           Pt  tau(   6) = (   0.8333333   0.2886751   1.0017346  )
         7           Pt  tau(   7) = (   0.3333333   0.5773503   1.0017346  )
         8           Pt  tau(   8) = (   0.6666667   0.5773503   1.0017346  )
         9           Pt  tau(   9) = (   1.0000000   0.5773503   1.0017346  )
        10           Pt  tau(  10) = (   0.1666667   0.0962250   1.2739001  )
        11           Pt  tau(  11) = (   0.5000000   0.0962250   1.2739001  )
        12           Pt  tau(  12) = (   0.8333333   0.0962250   1.2739001  )
        13           Pt  tau(  13) = (   0.3333333   0.3849002   1.2739001  )
        14           Pt  tau(  14) = (   0.6666667   0.3849002   1.2739001  )
        15           Pt  tau(  15) = (   1.0000000   0.3849002   1.2739001  )
        16           Pt  tau(  16) = (   0.5000000   0.6735753   1.2739001  )
        17           Pt  tau(  17) = (   0.8333333   0.6735753   1.2739001  )
        18           Pt  tau(  18) = (   1.1666667   0.6735753   1.2739001  )
        19           Pt  tau(  19) = (   0.0004230   0.1925408   1.5415744  )
        20           Pt  tau(  20) = (   0.3365787   0.1941046   1.5492580  )
        21           Pt  tau(  21) = (   0.6645886   0.1938901   1.5481928  )
        22           Pt  tau(  22) = (   0.1669693   0.4811650   1.5429427  )
        23           Pt  tau(  23) = (   0.4998138   0.4791410   1.5476400  )
        24           Pt  tau(  24) = (   0.8333003   0.4810565   1.5427640  )
        25           Pt  tau(  25) = (   0.3335884   0.7702072   1.5409743  )
        26           Pt  tau(  26) = (   0.6667922   0.7701234   1.5413103  )
        27           Pt  tau(  27) = (   1.0000522   0.7698829   1.5429005  )
        28           Pt  tau(  28) = (  -0.0005158  -0.0010312   1.8172279  )
        29           Pt  tau(  29) = (   0.3312350  -0.0036722   1.8171280  )
        30           Pt  tau(  30) = (   0.6685272  -0.0036264   1.8162874  )
        31           Pt  tau(  31) = (   0.1635866   0.2881773   1.8167504  )
        32           Pt  tau(  32) = (   0.4990315   0.2854492   1.8429499  )
        33           Pt  tau(  33) = (   0.8359347   0.2875328   1.8167694  )
        34           Pt  tau(  34) = (   0.3319860   0.5790596   1.8182819  )
        35           Pt  tau(  35) = (   0.6672246   0.5788308   1.8157979  )
        36           Pt  tau(  36) = (   0.9999512   0.5766077   1.8175014  )
        37           C   tau(  37) = (   0.5015948   0.2931968   2.0671847  )
        38           H   tau(  38) = (   0.5511924   0.1993429   2.1399926  )
        39           H   tau(  39) = (   0.4021635   0.4908943   2.0871656  )
        40           O   tau(  40) = (   0.4465816   0.4067153   2.1568162  )

     number of k points=    13  Marzari-Vanderbilt smearing, width (Ry)=  0.0200
                       cart. coord. in units 2pi/alat
        k(    1) = (   0.0000000   0.0000000   0.0000000), wk =   0.0800000
        k(    2) = (   0.0000000   0.2309401   0.0000000), wk =   0.1600000
        k(    3) = (   0.0000000   0.4618802   0.0000000), wk =   0.1600000
        k(    4) = (   0.2000000  -0.1154701   0.0000000), wk =   0.1600000
        k(    5) = (   0.2000000   0.1154701   0.0000000), wk =   0.1600000
        k(    6) = (   0.2000000   0.3464102   0.0000000), wk =   0.1600000
        k(    7) = (   0.2000000  -0.5773503   0.0000000), wk =   0.1600000
        k(    8) = (   0.2000000  -0.3464102   0.0000000), wk =   0.1600000
        k(    9) = (   0.4000000  -0.2309401   0.0000000), wk =   0.1600000
        k(   10) = (   0.4000000  -0.0000000   0.0000000), wk =   0.1600000
        k(   11) = (   0.4000000   0.2309401   0.0000000), wk =   0.1600000
        k(   12) = (   0.4000000  -0.6928203   0.0000000), wk =   0.1600000
        k(   13) = (   0.4000000  -0.4618802   0.0000000), wk =   0.1600000

     Dense  grid:   707847 G-vectors     FFT dimensions: (  80,  80, 250)

     Estimated max dynamical RAM per process >       8.54 GB

     Check: negative core charge=   -0.000001

     Initial potential from superposition of free atoms

     starting charge  371.99383, renormalised to  372.00000

     negative rho (up, down):  1.225E-02 0.000E+00


     %%%%%%%%%%%%%%%%%%%%%%%%%%%%%%%%%%%%%%%%%%%%%%%%%%%%%%%%%%%%%%%%%%%%%%%%
     %                                                                      %
     % You are using vdW-DF, which was implemented by the Thonhauser group. %
     % Please cite the following two papers that made this development      %
     % possible and the two reviews that describe the various versions:     %
     %                                                                      %
     %   T. Thonhauser et al., PRL 115, 136402 (2015).                      %
     %   T. Thonhauser et al., PRB 76, 125112 (2007).                       %
     %   K. Berland et al., Rep. Prog. Phys. 78, 066501 (2015).             %
     %   D.C. Langreth et al., J. Phys.: Condens. Matter 21, 084203 (2009). %
     %                                                                      %
     %                                                                      %
     % If you are calculating the stress with vdW-DF, please also cite:     %
     %                                                                      %
     %   R. Sabatini et al., J. Phys.: Condens. Matter 24, 424209 (2012).   %
     %                                                                      %
     %%%%%%%%%%%%%%%%%%%%%%%%%%%%%%%%%%%%%%%%%%%%%%%%%%%%%%%%%%%%%%%%%%%%%%%%


     Starting wfcs are  334 randomized atomic wfcs
     Checking if some PAW data can be deallocated... 

     total cpu time spent up to now is      305.5 secs

     Self-consistent Calculation

     iteration #  1     ecut=    60.00 Ry     beta= 0.70
     Davidson diagonalization with overlap
     ethr =  1.00E-02,  avg # of iterations =  2.0

     Threshold (ethr) on eigenvalues was too large:
     Diagonalizing with lowered threshold

     Davidson diagonalization with overlap
     ethr =  5.62E-04,  avg # of iterations =  4.0

     negative rho (up, down):  1.427E-02 0.000E+00

     total cpu time spent up to now is     1538.2 secs

     total energy              =  -27817.84499473 Ry
     estimated scf accuracy    <       2.31735929 Ry

     iteration #  2     ecut=    60.00 Ry     beta= 0.70
     Davidson diagonalization with overlap
     ethr =  6.23E-04,  avg # of iterations =  2.0

     negative rho (up, down):  1.269E-02 0.000E+00

     total cpu time spent up to now is     2075.3 secs

     total energy              =  -27818.07056058 Ry
     estimated scf accuracy    <       0.98526439 Ry

     iteration #  3     ecut=    60.00 Ry     beta= 0.70
     Davidson diagonalization with overlap
     ethr =  2.65E-04,  avg # of iterations =  2.0

     negative rho (up, down):  1.076E-02 0.000E+00

     total cpu time spent up to now is     2621.2 secs

     total energy              =  -27818.13717826 Ry
     estimated scf accuracy    <       0.25828338 Ry

     iteration #  4     ecut=    60.00 Ry     beta= 0.70
     Davidson diagonalization with overlap
     c_bands:  1 eigenvalues not converged
     c_bands:  1 eigenvalues not converged
     c_bands:  1 eigenvalues not converged
     ethr =  6.94E-05,  avg # of iterations = 14.8

     negative rho (up, down):  8.388E-03 0.000E+00

     total cpu time spent up to now is     3379.9 secs

     total energy              =  -27818.17595069 Ry
     estimated scf accuracy    <       0.12131374 Ry

     iteration #  5     ecut=    60.00 Ry     beta= 0.70
     Davidson diagonalization with overlap
     ethr =  3.26E-05,  avg # of iterations =  3.8

     negative rho (up, down):  6.924E-03 0.000E+00

     total cpu time spent up to now is     3958.7 secs

     total energy              =  -27818.18574212 Ry
     estimated scf accuracy    <       0.09132610 Ry

     iteration #  6     ecut=    60.00 Ry     beta= 0.70
     Davidson diagonalization with overlap
     ethr =  2.46E-05,  avg # of iterations =  1.2

     negative rho (up, down):  5.232E-03 0.000E+00

     total cpu time spent up to now is     4456.9 secs

     total energy              =  -27818.18793401 Ry
     estimated scf accuracy    <       0.01693652 Ry

     iteration #  7     ecut=    60.00 Ry     beta= 0.70
     Davidson diagonalization with overlap
     c_bands:  1 eigenvalues not converged
     c_bands:  1 eigenvalues not converged
     ethr =  4.55E-06,  avg # of iterations = 12.2

     negative rho (up, down):  4.954E-03 0.000E+00

     total cpu time spent up to now is     5280.5 secs

     total energy              =  -27818.19155133 Ry
     estimated scf accuracy    <       0.00494036 Ry

     iteration #  8     ecut=    60.00 Ry     beta= 0.70
     Davidson diagonalization with overlap
     c_bands:  1 eigenvalues not converged
     ethr =  1.33E-06,  avg # of iterations =  4.5

     negative rho (up, down):  4.897E-03 0.000E+00

     total cpu time spent up to now is     5877.0 secs

     total energy              =  -27818.19202105 Ry
     estimated scf accuracy    <       0.00215229 Ry

     iteration #  9     ecut=    60.00 Ry     beta= 0.70
     Davidson diagonalization with overlap
     c_bands:  1 eigenvalues not converged
     ethr =  5.79E-07,  avg # of iterations =  5.4

     negative rho (up, down):  5.201E-03 0.000E+00

     total cpu time spent up to now is     6448.3 secs

     total energy              =  -27818.19213847 Ry
     estimated scf accuracy    <       0.00106634 Ry

     iteration # 10     ecut=    60.00 Ry     beta= 0.70
     Davidson diagonalization with overlap
     c_bands:  1 eigenvalues not converged
     c_bands:  2 eigenvalues not converged
     ethr =  2.87E-07,  avg # of iterations =  5.5

     negative rho (up, down):  6.056E-03 0.000E+00

     total cpu time spent up to now is     7017.3 secs

     total energy              =  -27818.19217451 Ry
     estimated scf accuracy    <       0.00076935 Ry

     iteration # 11     ecut=    60.00 Ry     beta= 0.70
     Davidson diagonalization with overlap
     ethr =  2.07E-07,  avg # of iterations =  3.9

     negative rho (up, down):  7.645E-03 0.000E+00

     total cpu time spent up to now is     7563.1 secs

     total energy              =  -27818.19220653 Ry
     estimated scf accuracy    <       0.00038619 Ry

     iteration # 12     ecut=    60.00 Ry     beta= 0.70
     Davidson diagonalization with overlap
     ethr =  1.04E-07,  avg # of iterations =  2.0

     negative rho (up, down):  8.565E-03 0.000E+00

     total cpu time spent up to now is     8103.7 secs

     total energy              =  -27818.19224088 Ry
     estimated scf accuracy    <       0.00021391 Ry

     iteration # 13     ecut=    60.00 Ry     beta= 0.70
     Davidson diagonalization with overlap
     ethr =  5.75E-08,  avg # of iterations =  2.0

     negative rho (up, down):  9.283E-03 0.000E+00

     total cpu time spent up to now is     8641.4 secs

     total energy              =  -27818.19227053 Ry
     estimated scf accuracy    <       0.00010758 Ry

     iteration # 14     ecut=    60.00 Ry     beta= 0.70
     Davidson diagonalization with overlap
     ethr =  2.89E-08,  avg # of iterations =  2.0

     negative rho (up, down):  1.013E-02 0.000E+00

     total cpu time spent up to now is     9181.2 secs

     total energy              =  -27818.19227710 Ry
     estimated scf accuracy    <       0.00005260 Ry

     iteration # 15     ecut=    60.00 Ry     beta= 0.70
     Davidson diagonalization with overlap
     ethr =  1.41E-08,  avg # of iterations =  2.0

     negative rho (up, down):  1.212E-02 0.000E+00

     total cpu time spent up to now is     9762.3 secs

     total energy              =  -27818.19227432 Ry
     estimated scf accuracy    <       0.00003900 Ry

     iteration # 16     ecut=    60.00 Ry     beta= 0.70
     Davidson diagonalization with overlap
     ethr =  1.05E-08,  avg # of iterations =  2.1

     negative rho (up, down):  1.262E-02 0.000E+00

     total cpu time spent up to now is    10291.7 secs

     total energy              =  -27818.19227609 Ry
     estimated scf accuracy    <       0.00001604 Ry

     iteration # 17     ecut=    60.00 Ry     beta= 0.70
     Davidson diagonalization with overlap
     ethr =  4.31E-09,  avg # of iterations =  2.0

     negative rho (up, down):  1.291E-02 0.000E+00

     total cpu time spent up to now is    10846.3 secs

     total energy              =  -27818.19227678 Ry
     estimated scf accuracy    <       0.00000537 Ry

     iteration # 18     ecut=    60.00 Ry     beta= 0.70
     Davidson diagonalization with overlap
     ethr =  1.44E-09,  avg # of iterations =  4.0

     negative rho (up, down):  1.308E-02 0.000E+00

     total cpu time spent up to now is    11622.7 secs

     total energy              =  -27818.19227814 Ry
     estimated scf accuracy    <       0.00000393 Ry

     iteration # 19     ecut=    60.00 Ry     beta= 0.70
     Davidson diagonalization with overlap
     ethr =  1.06E-09,  avg # of iterations =  1.9

     negative rho (up, down):  1.319E-02 0.000E+00

     total cpu time spent up to now is    12140.3 secs

     total energy              =  -27818.19227815 Ry
     estimated scf accuracy    <       0.00000223 Ry

     iteration # 20     ecut=    60.00 Ry     beta= 0.70
     Davidson diagonalization with overlap
     ethr =  5.98E-10,  avg # of iterations =  1.0

     negative rho (up, down):  1.310E-02 0.000E+00

     total cpu time spent up to now is    12600.6 secs

     End of self-consistent calculation

          k = 0.0000 0.0000 0.0000 ( 88553 PWs)   bands (ev):

   -21.7022 -11.0136  -7.2968  -6.7464  -6.0047  -5.4843  -4.4656  -4.4311
    -4.3914  -4.3804  -4.3750  -4.3719  -4.3446  -4.3391  -4.3158  -3.8559
    -3.8246  -3.8233  -3.8127  -3.8104  -3.8051  -3.4049  -3.3746  -3.3653
    -3.3550  -3.3513  -3.3400  -3.2697  -3.1381  -3.1364  -3.1319  -3.1294
    -3.1232  -3.0586  -2.9287  -2.9223  -2.9155  -2.9140  -2.9115  -2.8855
    -2.8809  -2.8765  -2.8720  -2.8659  -2.8163  -2.7421  -2.3460  -2.3118
    -2.2769  -2.2738  -2.2493  -2.2410  -2.2196  -2.2157  -2.2137  -2.1733
    -2.0530  -2.0325  -1.9737  -1.8404  -1.6472  -1.5439  -1.5036  -1.4862
    -1.4821  -1.4585  -1.3897  -1.3564  -1.3351  -1.2888  -1.2882  -1.2730
    -1.2718  -1.2557  -1.2550  -1.2514  -1.2178  -1.2175  -1.2111  -1.1833
    -1.1806  -1.1588  -1.1049  -1.0906  -1.0574  -1.0563  -1.0485  -0.9223
    -0.9131  -0.8901  -0.8849  -0.8770  -0.8668  -0.8574  -0.8379  -0.8320
    -0.7739  -0.7718  -0.7421  -0.7014  -0.6967  -0.6519  -0.6290  -0.6282
    -0.5885  -0.5871  -0.5163  -0.5006  -0.4620  -0.4330  -0.4315  -0.4238
    -0.1667  -0.0782  -0.0471  -0.0007   0.0471   0.0591   0.0686   0.0749
     0.0802   0.1130   0.1140   0.1179   0.1281   0.2018   0.2336   0.3173
     0.3236   0.3443   0.3523   0.3653   0.4194   0.4359   0.4470   0.5521
     0.5533   0.5629   0.5644   0.7126   0.7237   0.8034   0.8054   0.8082
     0.8379   0.8698   0.8805   1.0123   1.0259   1.0513   1.0613   1.0770
     1.1162   1.1542   1.1600   1.2143   1.2228   1.2372   1.2427   1.2474
     1.2599   1.2621   1.2654   1.2855   1.3144   1.3263   1.3433   1.3513
     1.3568   1.3831   1.4324   1.4597   1.4697   1.4700   1.4983   1.5008
     1.5286   1.5428   1.5529   1.5549   1.5628   1.6204   1.6210   1.6391
     1.6495   1.6515   1.6689   1.6893   1.7350   1.7425   1.7448   1.7725
     1.7736   1.9357   1.9380   2.0361   2.0382   2.0758   2.0766   2.0776
     2.0975   2.2791   2.7989   2.8092   2.8801   2.9312   2.9419   2.9526
     3.6920   4.0804   5.0639   5.2111   5.2273   5.2607   5.3001   6.0061
     6.2926   6.8132   6.8440   6.8719   6.8822   6.8946   6.9168

          k = 0.0000 0.2309 0.0000 ( 88378 PWs)   bands (ev):

   -21.7022 -11.0136  -7.2854  -6.6097  -6.0046  -5.3435  -4.8780  -4.4837
    -4.4803  -4.4054  -4.3139  -4.2420  -4.1741  -4.1285  -4.1185  -3.9545
    -3.9053  -3.7680  -3.7532  -3.7412  -3.7363  -3.4616  -3.3730  -3.3302
    -3.3221  -3.3071  -3.2578  -3.2358  -3.2174  -3.1837  -3.1645  -3.1289
    -3.1182  -3.0854  -3.0314  -2.9937  -2.9480  -2.9296  -2.9164  -2.9010
    -2.8608  -2.7079  -2.7057  -2.6810  -2.6741  -2.6261  -2.4299  -2.4059
    -2.3951  -2.3649  -2.3276  -2.3197  -2.2649  -2.1348  -2.1100  -2.0626
    -2.0338  -2.0040  -1.9836  -1.8949  -1.7414  -1.7096  -1.6410  -1.6260
    -1.6157  -1.5560  -1.5305  -1.4913  -1.4589  -1.4521  -1.4427  -1.4304
    -1.3658  -1.3305  -1.3025  -1.2965  -1.2593  -1.2212  -1.1788  -1.1730
    -1.1353  -1.1014  -1.0983  -1.0491  -1.0258  -1.0096  -0.9772  -0.9603
    -0.9501  -0.9363  -0.9029  -0.8872  -0.8692  -0.8660  -0.8446  -0.7806
    -0.7465  -0.7343  -0.7250  -0.7086  -0.6917  -0.6785  -0.6495  -0.6360
    -0.6104  -0.5534  -0.5333  -0.5047  -0.4852  -0.4643  -0.4454  -0.4212
    -0.4097  -0.3537  -0.3520  -0.3359  -0.3263  -0.2971  -0.0920  -0.0672
    -0.0098   0.0113   0.0615   0.0910   0.1068   0.1247   0.1321   0.2323
     0.2503   0.2817   0.3809   0.4103   0.4420   0.4771   0.4858   0.5049
     0.5138   0.5460   0.5555   0.6349   0.6500   0.6760   0.6994   0.7055
     0.8144   0.8417   0.8784   0.9121   0.9258   0.9380   0.9659   1.0022
     1.0413   1.0512   1.0783   1.0866   1.1335   1.1766   1.1829   1.2040
     1.2743   1.2808   1.3117   1.3280   1.3753   1.3958   1.4265   1.4486
     1.4836   1.4892   1.5219   1.5687   1.5895   1.6148   1.6558   1.6632
     1.6757   1.7109   1.7172   1.7201   1.7339   1.7437   1.7903   1.7973
     1.9161   1.9191   1.9662   1.9684   1.9746   2.0070   2.0328   2.0409
     2.0520   2.0854   2.1098   2.1746   2.1869   2.2099   2.3349   2.3554
     2.3675   2.3877   2.6574   2.7488   3.1073   3.3208   3.5185   3.6110
     3.8253   4.0927   4.6791   4.9209   5.2542   5.6902   5.7097   5.7792
     5.9548   6.1740   6.3673   6.6259   6.6616   6.8586   7.0602

          k = 0.0000 0.4619 0.0000 ( 88412 PWs)   bands (ev):

   -21.7022 -11.0137  -7.2710  -6.2042  -6.0037  -5.5722  -4.9454  -4.5133
    -4.5107  -4.4177  -4.3882  -4.1496  -3.9924  -3.9255  -3.8592  -3.7914
    -3.7827  -3.6484  -3.6318  -3.5891  -3.5702  -3.5550  -3.4752  -3.4230
    -3.3984  -3.3704  -3.3518  -3.3449  -3.3090  -3.2544  -3.2303  -3.2125
    -3.0951  -2.9697  -2.9592  -2.9505  -2.9341  -2.9221  -2.9084  -2.7112
    -2.6998  -2.6864  -2.6813  -2.6534  -2.6272  -2.4995  -2.4131  -2.3729
    -2.3671  -2.3392  -2.3238  -2.2711  -2.2261  -2.2150  -2.2057  -2.1867
    -2.1126  -2.0264  -2.0194  -1.9826  -1.9592  -1.8537  -1.8262  -1.8107
    -1.7945  -1.7638  -1.6334  -1.6161  -1.5976  -1.5530  -1.5499  -1.4881
    -1.4681  -1.4467  -1.3785  -1.3597  -1.3238  -1.3006  -1.2638  -1.2247
    -1.1964  -1.1848  -1.1543  -1.1476  -1.1174  -1.1007  -1.0745  -1.0617
    -1.0445  -1.0398  -1.0232  -0.9855  -0.9622  -0.9196  -0.8996  -0.8942
    -0.8741  -0.8686  -0.7874  -0.7484  -0.7171  -0.7143  -0.6581  -0.6411
    -0.6280  -0.6047  -0.6015  -0.5176  -0.4657  -0.4523  -0.4244  -0.4007
    -0.3446  -0.3313  -0.2779  -0.2338  -0.2119  -0.1407  -0.1046  -0.0686
    -0.0394  -0.0231   0.0065   0.0310   0.0407   0.0773   0.1037   0.1114
     0.1202   0.1534   0.1618   0.1900   0.2004   0.2237   0.3151   0.3512
     0.3613   0.3805   0.4347   0.4966   0.5601   0.5675   0.6512   0.6603
     0.7451   0.7897   0.7991   0.8517   0.8792   0.9082   0.9321   0.9637
     0.9904   1.0090   1.0584   1.0759   1.0915   1.1731   1.1801   1.2084
     1.2187   1.2431   1.2499   1.3240   1.3876   1.4161   1.4570   1.4870
     1.5182   1.5312   1.6011   1.6176   1.6416   1.6980   1.7160   1.7249
     1.7669   1.7946   1.8128   1.8381   1.8946   1.9267   1.9529   1.9704
     1.9806   1.9968   2.0190   2.0227   2.1831   2.1924   2.2083   2.2382
     2.2427   2.3716   2.4515   2.5388   2.7446   2.8457   2.9432   3.2159
     3.2638   3.4034   3.4441   3.6485   3.7651   3.9958   4.0306   4.4761
     4.4982   4.5308   4.6065   4.7253   4.7871   4.8524   5.0843   5.1792
     5.3152   5.7279   5.8671   6.2944   6.3568   6.5771   6.7333

          k = 0.2000-0.1155 0.0000 ( 88378 PWs)   bands (ev):

   -21.7022 -11.0136  -7.2855  -6.6096  -6.0046  -5.3434  -4.8777  -4.4840
    -4.4789  -4.4087  -4.3133  -4.2419  -4.1706  -4.1291  -4.1202  -3.9504
    -3.9056  -3.7764  -3.7542  -3.7416  -3.7317  -3.4646  -3.3636  -3.3297
    -3.3215  -3.3082  -3.2648  -3.2366  -3.2233  -3.1842  -3.1593  -3.1275
    -3.1192  -3.0760  -3.0332  -2.9936  -2.9445  -2.9289  -2.9163  -2.9034
    -2.8631  -2.7113  -2.7047  -2.6853  -2.6735  -2.6241  -2.4313  -2.4049
    -2.3878  -2.3631  -2.3289  -2.3193  -2.2635  -2.1335  -2.1190  -2.0668
    -2.0349  -2.0030  -1.9815  -1.8963  -1.7416  -1.7064  -1.6469  -1.6281
    -1.6122  -1.5631  -1.5277  -1.4924  -1.4598  -1.4512  -1.4394  -1.4237
    -1.3681  -1.3420  -1.3036  -1.2957  -1.2624  -1.2164  -1.1795  -1.1691
    -1.1342  -1.1100  -1.0964  -1.0447  -1.0276  -1.0160  -0.9768  -0.9601
    -0.9510  -0.9387  -0.9022  -0.8901  -0.8717  -0.8536  -0.8449  -0.7813
    -0.7445  -0.7357  -0.7233  -0.7097  -0.6884  -0.6749  -0.6478  -0.6281
    -0.6105  -0.5568  -0.5283  -0.5080  -0.4841  -0.4647  -0.4379  -0.4194
    -0.4091  -0.3546  -0.3527  -0.3350  -0.3266  -0.2904  -0.0972  -0.0847
    -0.0076   0.0133   0.0619   0.0906   0.1057   0.1252   0.1313   0.2312
     0.2508   0.2813   0.3823   0.4107   0.4400   0.4756   0.4876   0.5049
     0.5128   0.5482   0.5562   0.6332   0.6517   0.6778   0.6979   0.7043
     0.8142   0.8507   0.8802   0.9058   0.9321   0.9418   0.9666   1.0058
     1.0414   1.0488   1.0837   1.0876   1.1327   1.1717   1.1844   1.2057
     1.2664   1.2814   1.3083   1.3268   1.3731   1.3932   1.4268   1.4523
     1.4788   1.4861   1.5214   1.5659   1.5930   1.6135   1.6586   1.6631
     1.6769   1.7127   1.7148   1.7198   1.7338   1.7426   1.7905   1.7982
     1.9136   1.9188   1.9665   1.9739   1.9782   2.0044   2.0316   2.0458
     2.0511   2.0823   2.1135   2.1746   2.1806   2.2103   2.3318   2.3603
     2.3691   2.3844   2.6563   2.7445   3.0984   3.3424   3.5170   3.6056
     3.8098   4.1141   4.6730   4.9149   5.2613   5.6932   5.7072   5.7713
     5.9593   6.1824   6.3676   6.6227   6.6664   6.8565   7.0590

          k = 0.2000 0.1155 0.0000 ( 88378 PWs)   bands (ev):

   -21.7022 -11.0135  -7.2865  -6.6091  -6.0043  -5.3432  -4.8750  -4.4859
    -4.4778  -4.4168  -4.3104  -4.2415  -4.1650  -4.1298  -4.1236  -3.9414
    -3.9017  -3.7861  -3.7549  -3.7444  -3.7373  -3.4600  -3.3655  -3.3238
    -3.3216  -3.3066  -3.2657  -3.2377  -3.2284  -3.1851  -3.1578  -3.1257
    -3.1215  -3.0723  -3.0342  -2.9947  -2.9409  -2.9307  -2.9166  -2.9044
    -2.8605  -2.7144  -2.7062  -2.6901  -2.6694  -2.6181  -2.4208  -2.4121
    -2.3872  -2.3555  -2.3324  -2.3168  -2.2680  -2.1274  -2.1239  -2.0762
    -2.0355  -2.0031  -1.9783  -1.8974  -1.7459  -1.6816  -1.6723  -1.6294
    -1.6095  -1.5670  -1.5136  -1.4965  -1.4608  -1.4485  -1.4412  -1.4268
    -1.3672  -1.3485  -1.3008  -1.2876  -1.2638  -1.2036  -1.1797  -1.1747
    -1.1372  -1.1188  -1.0973  -1.0307  -1.0280  -1.0221  -0.9750  -0.9695
    -0.9441  -0.9268  -0.9022  -0.8954  -0.8799  -0.8716  -0.8439  -0.7788
    -0.7405  -0.7353  -0.7292  -0.7157  -0.6854  -0.6789  -0.6464  -0.6292
    -0.6106  -0.5705  -0.5225  -0.5041  -0.4746  -0.4596  -0.4409  -0.4122
    -0.4089  -0.3554  -0.3512  -0.3369  -0.3195  -0.2863  -0.1198  -0.0697
    -0.0257   0.0148   0.0617   0.0930   0.1065   0.1230   0.1338   0.2316
     0.2766   0.2811   0.3702   0.4111   0.4416   0.4788   0.4907   0.5063
     0.5107   0.5537   0.5602   0.6318   0.6479   0.6808   0.6966   0.7031
     0.8047   0.8543   0.8809   0.9046   0.9292   0.9393   0.9611   1.0075
     1.0412   1.0498   1.0878   1.0898   1.1371   1.1728   1.1877   1.2086
     1.2748   1.2779   1.3104   1.3214   1.3731   1.3873   1.4284   1.4563
     1.4780   1.4849   1.5240   1.5617   1.5934   1.6125   1.6515   1.6630
     1.6771   1.7123   1.7136   1.7187   1.7317   1.7426   1.7897   1.7990
     1.9136   1.9213   1.9651   1.9719   1.9780   2.0068   2.0313   2.0445
     2.0509   2.0843   2.1121   2.1735   2.1800   2.2123   2.3197   2.3675
     2.3791   2.3894   2.6113   2.7814   3.0659   3.4043   3.5165   3.5564
     3.7925   4.2133   4.5866   4.8877   5.3324   5.6948   5.7114   5.7442
     5.9820   6.2219   6.3867   6.6090   6.6786   6.8492   7.0556

          k = 0.2000 0.3464 0.0000 ( 88488 PWs)   bands (ev):

   -21.7022 -11.0136  -7.2748  -6.3356  -6.0039  -5.1374  -5.1151  -5.0629
    -4.4153  -4.0799  -4.0579  -4.0541  -4.0414  -4.0068  -3.9948  -3.9740
    -3.9548  -3.8654  -3.8532  -3.5422  -3.4890  -3.4749  -3.4595  -3.4070
    -3.3835  -3.2746  -3.2466  -3.2397  -3.2297  -3.2183  -3.1673  -3.1029
    -3.0799  -3.0732  -3.0632  -3.0431  -2.9787  -2.9652  -2.9465  -2.9068
    -2.8526  -2.7817  -2.5859  -2.5030  -2.4823  -2.4712  -2.4456  -2.4251
    -2.4151  -2.3845  -2.3524  -2.2911  -2.1952  -2.1875  -2.1702  -2.0944
    -2.0654  -2.0048  -1.9969  -1.9868  -1.9137  -1.8828  -1.7764  -1.7564
    -1.7162  -1.6827  -1.6408  -1.6058  -1.5865  -1.5633  -1.5487  -1.5152
    -1.4108  -1.3894  -1.3507  -1.3358  -1.3161  -1.3002  -1.2670  -1.2314
    -1.2236  -1.1990  -1.1317  -1.0918  -1.0753  -1.0576  -1.0303  -1.0133
    -1.0091  -0.9667  -0.9499  -0.9416  -0.9257  -0.8881  -0.8564  -0.8306
    -0.7926  -0.7714  -0.7388  -0.7222  -0.7122  -0.6920  -0.6723  -0.6571
    -0.6349  -0.6156  -0.6038  -0.5890  -0.5808  -0.5373  -0.5137  -0.4940
    -0.4214  -0.4071  -0.3877  -0.3495  -0.3005  -0.2815  -0.2166  -0.1035
    -0.0824  -0.0320   0.0153   0.0446   0.0597   0.1036   0.1385   0.1428
     0.1683   0.1915   0.1997   0.2449   0.2766   0.3156   0.3835   0.4669
     0.4727   0.4934   0.5253   0.5598   0.5782   0.6241   0.6732   0.7103
     0.7350   0.7829   0.8101   0.8426   0.8755   0.9056   0.9431   0.9727
     0.9971   1.0156   1.0410   1.0523   1.0616   1.0779   1.0868   1.1178
     1.1571   1.2323   1.2787   1.3088   1.4046   1.4194   1.5104   1.5881
     1.6003   1.6130   1.6357   1.7012   1.7309   1.7367   1.7717   1.7775
     1.7955   1.8164   1.8233   1.8390   1.8621   1.8841   1.8954   1.9564
     1.9981   2.0014   2.0267   2.0461   2.0910   2.1496   2.2405   2.2674
     2.2817   2.3126   2.3396   2.3683   2.4627   2.4936   2.6721   2.9281
     3.0250   3.2254   3.3066   3.5376   3.5868   3.7374   3.8417   4.1808
     4.2562   4.4803   4.5082   4.5835   4.9591   5.2192   5.6486   5.6872
     5.9101   5.9390   6.2450   6.3518   6.4261   6.4785   6.5044

          k = 0.2000-0.5774 0.0000 ( 88388 PWs)   bands (ev):

   -21.7022 -11.0137  -7.2680  -6.0115  -5.8303  -5.7817  -5.2028  -4.6021
    -4.5693  -4.4094  -4.0706  -4.0497  -3.9114  -3.8783  -3.7822  -3.7611
    -3.6636  -3.6536  -3.6222  -3.5738  -3.5457  -3.5164  -3.4962  -3.4926
    -3.4720  -3.3941  -3.3387  -3.3249  -3.3005  -3.2821  -3.2397  -3.1600
    -3.1109  -3.0525  -3.0191  -2.9630  -2.9363  -2.9179  -2.9088  -2.8609
    -2.8186  -2.7984  -2.6902  -2.6315  -2.5000  -2.4939  -2.4706  -2.4073
    -2.3408  -2.3065  -2.2860  -2.1797  -2.1414  -2.1187  -2.0878  -2.0593
    -2.0098  -1.9939  -1.9705  -1.9323  -1.9054  -1.8908  -1.8789  -1.8404
    -1.8395  -1.8180  -1.7849  -1.7487  -1.6640  -1.6357  -1.5881  -1.5735
    -1.5063  -1.4603  -1.4293  -1.4190  -1.4053  -1.3579  -1.3344  -1.3053
    -1.2842  -1.2565  -1.2385  -1.1970  -1.1628  -1.1359  -1.1120  -1.0863
    -1.0311  -1.0141  -0.9976  -0.9355  -0.9166  -0.8605  -0.8352  -0.8104
    -0.7916  -0.7794  -0.7458  -0.7381  -0.7158  -0.6966  -0.6852  -0.6574
    -0.6553  -0.6365  -0.5972  -0.5811  -0.5664  -0.5551  -0.5387  -0.5281
    -0.5224  -0.4777  -0.4365  -0.3404  -0.2420  -0.1962  -0.1751  -0.1398
    -0.0706  -0.0549  -0.0385  -0.0001   0.0229   0.0558   0.0724   0.1005
     0.1365   0.1538   0.1922   0.2135   0.2405   0.3134   0.3253   0.3588
     0.4136   0.4807   0.5360   0.5468   0.6002   0.6265   0.6503   0.6823
     0.7217   0.7404   0.7505   0.7791   0.7853   0.8220   0.8747   0.8914
     0.9508   0.9662   0.9858   0.9997   1.0159   1.0342   1.1080   1.1638
     1.2259   1.2777   1.3412   1.3910   1.4438   1.4557   1.5099   1.5534
     1.5748   1.6048   1.6676   1.7146   1.7437   1.7685   1.7917   1.7935
     1.8127   1.8441   1.8654   1.9422   1.9499   1.9593   1.9821   2.0047
     2.0116   2.0235   2.0888   2.1732   2.1940   2.2277   2.2388   2.2460
     2.2922   2.3119   2.4129   2.5072   2.9438   3.2209   3.3828   3.4007
     3.4726   3.6457   3.7359   3.7522   3.8652   3.9693   4.3660   4.4165
     4.4414   4.8134   4.8362   4.9645   4.9982   5.0481   5.2102   5.2410
     5.3056   5.5033   5.7146   5.8156   5.9726   6.2888   6.4781

          k = 0.2000-0.3464 0.0000 ( 88488 PWs)   bands (ev):

   -21.7022 -11.0137  -7.2733  -6.3367  -6.0043  -5.1361  -5.1162  -5.0645
    -4.4120  -4.0801  -4.0586  -4.0535  -4.0464  -4.0097  -3.9937  -3.9737
    -3.9505  -3.8676  -3.8546  -3.5235  -3.4893  -3.4772  -3.4610  -3.4046
    -3.3813  -3.2797  -3.2493  -3.2418  -3.2322  -3.2174  -3.1674  -3.0976
    -3.0803  -3.0744  -3.0630  -3.0504  -2.9803  -2.9646  -2.9400  -2.9048
    -2.8600  -2.7885  -2.5857  -2.4943  -2.4856  -2.4723  -2.4384  -2.4237
    -2.4147  -2.4013  -2.3529  -2.2949  -2.1941  -2.1864  -2.1760  -2.0896
    -2.0632  -2.0068  -1.9922  -1.9832  -1.9125  -1.8822  -1.7830  -1.7543
    -1.6911  -1.6802  -1.6486  -1.6023  -1.5867  -1.5622  -1.5514  -1.5155
    -1.3975  -1.3925  -1.3695  -1.3407  -1.3130  -1.3042  -1.2729  -1.2314
    -1.2263  -1.1894  -1.1465  -1.0858  -1.0720  -1.0486  -1.0281  -1.0147
    -1.0087  -0.9680  -0.9521  -0.9380  -0.9141  -0.8917  -0.8734  -0.8308
    -0.7925  -0.7724  -0.7357  -0.7246  -0.7040  -0.6913  -0.6736  -0.6518
    -0.6410  -0.6183  -0.6028  -0.5904  -0.5821  -0.5336  -0.5133  -0.4906
    -0.4200  -0.4110  -0.3855  -0.3429  -0.3042  -0.2828  -0.2090  -0.0943
    -0.0827  -0.0324  -0.0077   0.0450   0.0575   0.1057   0.1359   0.1428
     0.1689   0.1935   0.2006   0.2467   0.2762   0.3117   0.3938   0.4656
     0.4728   0.4895   0.5205   0.5598   0.5758   0.6239   0.6746   0.7119
     0.7352   0.7760   0.8124   0.8474   0.8721   0.9173   0.9399   0.9598
     0.9994   1.0137   1.0406   1.0507   1.0625   1.0793   1.0852   1.1188
     1.1607   1.2324   1.2749   1.3074   1.4067   1.4259   1.5025   1.5830
     1.5986   1.6105   1.6421   1.7078   1.7321   1.7375   1.7687   1.7748
     1.8036   1.8117   1.8230   1.8377   1.8633   1.8861   1.8937   1.9574
     1.9964   2.0055   2.0274   2.0463   2.0890   2.1385   2.2403   2.2706
     2.2790   2.3075   2.3467   2.3657   2.4518   2.4955   2.6553   2.9880
     3.0173   3.2600   3.3089   3.5367   3.5880   3.7383   3.8260   4.1674
     4.2611   4.4315   4.4988   4.5890   4.9682   5.2158   5.6860   5.7149
     5.7568   5.9554   6.2707   6.3639   6.3961   6.5053   6.5343

          k = 0.4000-0.2309 0.0000 ( 88412 PWs)   bands (ev):

   -21.7022 -11.0137  -7.2712  -6.2039  -6.0036  -5.5719  -4.9452  -4.5161
    -4.5096  -4.4219  -4.3833  -4.1468  -3.9926  -3.9239  -3.8603  -3.7925
    -3.7838  -3.6569  -3.6286  -3.5870  -3.5722  -3.5546  -3.4731  -3.4255
    -3.3986  -3.3704  -3.3474  -3.3458  -3.3097  -3.2473  -3.2276  -3.2131
    -3.0960  -2.9686  -2.9591  -2.9506  -2.9368  -2.9247  -2.8991  -2.7121
    -2.6995  -2.6915  -2.6853  -2.6527  -2.6219  -2.4961  -2.4132  -2.3764
    -2.3674  -2.3387  -2.3245  -2.2756  -2.2272  -2.2144  -2.2042  -2.1877
    -2.1167  -2.0294  -2.0166  -1.9820  -1.9684  -1.8536  -1.8280  -1.8112
    -1.7941  -1.7589  -1.6377  -1.6226  -1.5934  -1.5554  -1.5533  -1.4895
    -1.4673  -1.4513  -1.3711  -1.3549  -1.3206  -1.3110  -1.2637  -1.2309
    -1.1976  -1.1852  -1.1577  -1.1489  -1.1208  -1.0983  -1.0759  -1.0622
    -1.0453  -1.0407  -1.0224  -0.9916  -0.9593  -0.9068  -0.9005  -0.8882
    -0.8792  -0.8691  -0.7864  -0.7446  -0.7184  -0.7126  -0.6527  -0.6365
    -0.6259  -0.6005  -0.5962  -0.5170  -0.4644  -0.4324  -0.4219  -0.3987
    -0.3427  -0.3374  -0.2812  -0.2346  -0.2098  -0.1383  -0.1047  -0.0668
    -0.0416  -0.0226   0.0102   0.0336   0.0376   0.0805   0.1004   0.1085
     0.1172   0.1437   0.1612   0.1883   0.1963   0.2234   0.3099   0.3532
     0.3611   0.3795   0.4356   0.4890   0.5613   0.5668   0.6474   0.6633
     0.7411   0.7990   0.8045   0.8584   0.8823   0.9123   0.9335   0.9632
     0.9967   1.0119   1.0566   1.0730   1.0910   1.1676   1.1792   1.2077
     1.2212   1.2405   1.2507   1.3230   1.3903   1.4142   1.4524   1.4840
     1.5168   1.5315   1.6010   1.6170   1.6404   1.6993   1.7159   1.7247
     1.7717   1.7931   1.8128   1.8399   1.8927   1.9266   1.9520   1.9712
     1.9806   1.9963   2.0163   2.0221   2.1862   2.1908   2.2066   2.2347
     2.2422   2.3730   2.4515   2.5430   2.7206   2.8439   2.9498   3.2282
     3.2633   3.4138   3.4370   3.6491   3.7643   3.9960   4.0392   4.4730
     4.4951   4.5172   4.6144   4.7495   4.7693   4.8444   5.0897   5.1748
     5.3231   5.7358   5.8638   6.2849   6.3646   6.5807   6.7242

          k = 0.4000-0.0000 0.0000 ( 88488 PWs)   bands (ev):

   -21.7022 -11.0136  -7.2749  -6.3354  -6.0038  -5.1383  -5.1139  -5.0630
    -4.4160  -4.0769  -4.0576  -4.0520  -4.0405  -4.0078  -3.9941  -3.9734
    -3.9590  -3.8648  -3.8547  -3.5477  -3.4847  -3.4782  -3.4599  -3.4035
    -3.3865  -3.2781  -3.2425  -3.2376  -3.2275  -3.2184  -3.1688  -3.1019
    -3.0815  -3.0716  -3.0639  -3.0440  -2.9798  -2.9664  -2.9426  -2.9054
    -2.8483  -2.7768  -2.5837  -2.5074  -2.4844  -2.4772  -2.4449  -2.4251
    -2.4158  -2.3779  -2.3517  -2.2891  -2.2012  -2.1891  -2.1802  -2.0919
    -2.0648  -2.0047  -1.9947  -1.9877  -1.9141  -1.8762  -1.7781  -1.7572
    -1.7253  -1.6846  -1.6450  -1.6059  -1.5864  -1.5605  -1.5476  -1.5143
    -1.4134  -1.3904  -1.3551  -1.3426  -1.3163  -1.2959  -1.2728  -1.2348
    -1.2258  -1.2002  -1.1247  -1.0896  -1.0756  -1.0673  -1.0325  -1.0131
    -1.0119  -0.9521  -0.9464  -0.9448  -0.9237  -0.8803  -0.8566  -0.8329
    -0.7882  -0.7698  -0.7346  -0.7223  -0.7043  -0.6858  -0.6733  -0.6570
    -0.6371  -0.6112  -0.6008  -0.5896  -0.5809  -0.5372  -0.5120  -0.4811
    -0.4193  -0.4069  -0.3885  -0.3519  -0.3018  -0.2815  -0.2262  -0.1001
    -0.0863  -0.0366   0.0116   0.0437   0.0612   0.1035   0.1361   0.1434
     0.1654   0.1919   0.1955   0.2448   0.2790   0.3136   0.3844   0.4662
     0.4727   0.4949   0.5217   0.5600   0.5751   0.6235   0.6745   0.7124
     0.7327   0.7822   0.8110   0.8478   0.8819   0.9151   0.9410   0.9755
     0.9977   1.0118   1.0388   1.0467   1.0644   1.0816   1.0867   1.1179
     1.1659   1.2312   1.2797   1.3043   1.4017   1.4104   1.5106   1.5804
     1.6010   1.6103   1.6351   1.7024   1.7318   1.7355   1.7718   1.7765
     1.8010   1.8173   1.8247   1.8406   1.8632   1.8857   1.8958   1.9564
     1.9981   2.0028   2.0258   2.0458   2.0921   2.1564   2.2361   2.2667
     2.2763   2.3109   2.3387   2.3679   2.4637   2.4924   2.6757   2.9140
     3.0314   3.2169   3.3236   3.5355   3.5875   3.7283   3.8432   4.1836
     4.2571   4.4833   4.5066   4.5879   4.9610   5.2203   5.6443   5.6882
     5.9132   5.9400   6.2404   6.3500   6.4041   6.4777   6.5242

          k = 0.4000 0.2309 0.0000 ( 88412 PWs)   bands (ev):

   -21.7022 -11.0135  -7.2735  -6.2024  -6.0029  -5.5701  -4.9442  -4.5184
    -4.5101  -4.4340  -4.3734  -4.1390  -3.9887  -3.9273  -3.8608  -3.7949
    -3.7849  -3.6690  -3.6390  -3.5848  -3.5711  -3.5559  -3.4717  -3.4226
    -3.3983  -3.3765  -3.3474  -3.3358  -3.3090  -3.2349  -3.2279  -3.2129
    -3.0962  -2.9697  -2.9563  -2.9496  -2.9390  -2.9246  -2.9003  -2.7128
    -2.6990  -2.6951  -2.6877  -2.6490  -2.6115  -2.5001  -2.4037  -2.3822
    -2.3637  -2.3386  -2.3201  -2.2822  -2.2263  -2.2138  -2.2017  -2.1826
    -2.1210  -2.0364  -2.0124  -1.9817  -1.9738  -1.8559  -1.8354  -1.8046
    -1.7948  -1.7635  -1.6478  -1.6254  -1.5903  -1.5610  -1.5525  -1.4889
    -1.4769  -1.4509  -1.3730  -1.3330  -1.3231  -1.3174  -1.2331  -1.2128
    -1.1933  -1.1834  -1.1685  -1.1412  -1.1265  -1.1026  -1.0755  -1.0668
    -1.0476  -1.0411  -1.0219  -1.0001  -0.9552  -0.9337  -0.9009  -0.8918
    -0.8780  -0.8701  -0.7882  -0.7211  -0.7198  -0.7126  -0.6708  -0.6379
    -0.6330  -0.5963  -0.5945  -0.5080  -0.4761  -0.4601  -0.4201  -0.3951
    -0.3482  -0.3392  -0.2991  -0.2216  -0.2050  -0.1254  -0.1032  -0.0577
    -0.0489  -0.0227   0.0161   0.0334   0.0385   0.0901   0.1066   0.1161
     0.1217   0.1357   0.1634   0.1847   0.1947   0.2260   0.3134   0.3576
     0.3619   0.3845   0.4360   0.4828   0.5635   0.5660   0.6486   0.6603
     0.7428   0.8021   0.8068   0.8538   0.8853   0.9120   0.9371   0.9618
     1.0021   1.0129   1.0579   1.0746   1.0913   1.1695   1.1766   1.2115
     1.2228   1.2423   1.2511   1.3118   1.3973   1.4106   1.4576   1.4892
     1.5205   1.5321   1.6010   1.6202   1.6405   1.6902   1.7088   1.7200
     1.7624   1.7952   1.8145   1.8393   1.8966   1.9279   1.9539   1.9681
     1.9815   1.9946   2.0176   2.0228   2.1844   2.1892   2.2087   2.2363
     2.2405   2.3733   2.4515   2.5272   2.7502   2.7885   2.9636   3.2062
     3.2763   3.3669   3.4810   3.6404   3.7636   3.9876   4.0590   4.4825
     4.4913   4.5549   4.5815   4.6979   4.8050   4.8439   5.1110   5.1965
     5.3915   5.7737   5.8291   6.2401   6.4040   6.6322   6.6844

          k = 0.4000-0.6928 0.0000 ( 88388 PWs)   bands (ev):

   -21.7022 -11.0136  -7.2695  -6.0104  -5.8285  -5.7811  -5.2050  -4.6071
    -4.5625  -4.4072  -4.0815  -4.0395  -3.9085  -3.8806  -3.7898  -3.7641
    -3.6685  -3.6513  -3.6285  -3.5672  -3.5440  -3.5189  -3.4984  -3.4928
    -3.4697  -3.3947  -3.3335  -3.3253  -3.2989  -3.2828  -3.2306  -3.1428
    -3.1118  -3.0526  -3.0363  -2.9642  -2.9363  -2.9178  -2.9117  -2.8587
    -2.8229  -2.7926  -2.6894  -2.6257  -2.5074  -2.4933  -2.4642  -2.3906
    -2.3453  -2.3094  -2.2925  -2.1798  -2.1357  -2.1183  -2.0948  -2.0681
    -2.0130  -1.9942  -1.9697  -1.9302  -1.9118  -1.8850  -1.8737  -1.8444
    -1.8370  -1.8179  -1.7835  -1.7508  -1.6907  -1.6401  -1.5893  -1.5771
    -1.5072  -1.4563  -1.4305  -1.4148  -1.3864  -1.3654  -1.3396  -1.3067
    -1.2768  -1.2494  -1.2264  -1.1974  -1.1638  -1.1602  -1.1086  -1.0793
    -1.0349  -1.0177  -0.9977  -0.9545  -0.9186  -0.8586  -0.8313  -0.8060
    -0.7869  -0.7704  -0.7530  -0.7369  -0.7123  -0.6997  -0.6793  -0.6539
    -0.6489  -0.6334  -0.5944  -0.5831  -0.5676  -0.5546  -0.5359  -0.5204
    -0.5114  -0.4754  -0.4314  -0.3429  -0.2835  -0.1946  -0.1693  -0.1465
    -0.0669  -0.0567  -0.0318  -0.0024   0.0193   0.0530   0.0715   0.1008
     0.1408   0.1521   0.1954   0.2185   0.2346   0.3095   0.3280   0.3585
     0.4147   0.4841   0.5394   0.5701   0.5924   0.6282   0.6421   0.6872
     0.7183   0.7391   0.7544   0.7809   0.7953   0.8206   0.8692   0.8941
     0.9443   0.9732   0.9905   1.0007   1.0209   1.0375   1.1142   1.1639
     1.2205   1.2773   1.3491   1.3683   1.4400   1.4544   1.4939   1.5669
     1.5744   1.6013   1.6655   1.7030   1.7461   1.7678   1.7943   1.8004
     1.8113   1.8470   1.8723   1.9452   1.9501   1.9580   1.9855   2.0073
     2.0104   2.0193   2.0872   2.1734   2.1920   2.2248   2.2367   2.2450
     2.2946   2.3072   2.4165   2.5271   2.9574   3.1310   3.3815   3.3995
     3.5414   3.5950   3.7156   3.7523   3.8921   3.9504   4.3787   4.3993
     4.4764   4.8416   4.8909   4.9150   4.9835   5.0546   5.2311   5.3046
     5.3491   5.4123   5.7582   5.8491   5.8729   6.3147   6.4657

          k = 0.4000-0.4619 0.0000 ( 88388 PWs)   bands (ev):

   -21.7022 -11.0137  -7.2681  -6.0112  -5.8296  -5.7821  -5.2033  -4.6034
    -4.5673  -4.4092  -4.0727  -4.0473  -3.9118  -3.8788  -3.7820  -3.7630
    -3.6656  -3.6508  -3.6227  -3.5701  -3.5470  -3.5198  -3.4977  -3.4925
    -3.4738  -3.3897  -3.3368  -3.3256  -3.3004  -3.2800  -3.2374  -3.1550
    -3.1121  -3.0532  -3.0243  -2.9587  -2.9364  -2.9184  -2.9092  -2.8631
    -2.8224  -2.7987  -2.6891  -2.6264  -2.5021  -2.4935  -2.4650  -2.4065
    -2.3425  -2.3102  -2.2887  -2.1793  -2.1397  -2.1188  -2.0906  -2.0654
    -2.0116  -1.9943  -1.9770  -1.9338  -1.9037  -1.8860  -1.8781  -1.8394
    -1.8381  -1.8131  -1.7812  -1.7494  -1.6782  -1.6380  -1.5858  -1.5784
    -1.5060  -1.4633  -1.4289  -1.4191  -1.4029  -1.3559  -1.3349  -1.3046
    -1.2880  -1.2588  -1.2373  -1.1972  -1.1626  -1.1378  -1.1037  -1.0854
    -1.0352  -1.0155  -0.9973  -0.9525  -0.9107  -0.8515  -0.8295  -0.8118
    -0.7891  -0.7791  -0.7479  -0.7392  -0.7101  -0.6981  -0.6820  -0.6565
    -0.6540  -0.6340  -0.5970  -0.5785  -0.5675  -0.5559  -0.5382  -0.5248
    -0.5183  -0.4765  -0.4189  -0.3397  -0.2631  -0.1888  -0.1717  -0.1396
    -0.0680  -0.0570  -0.0398  -0.0016   0.0150   0.0551   0.0715   0.0966
     0.1370   0.1568   0.1939   0.2158   0.2326   0.3129   0.3230   0.3650
     0.4025   0.4854   0.5265   0.5599   0.5967   0.6304   0.6508   0.6829
     0.7237   0.7356   0.7538   0.7797   0.7826   0.8237   0.8756   0.8915
     0.9411   0.9725   0.9864   0.9978   1.0235   1.0372   1.1121   1.1644
     1.2321   1.2752   1.3415   1.3832   1.4387   1.4547   1.5051   1.5545
     1.5699   1.6046   1.6664   1.7149   1.7446   1.7692   1.7923   1.8018
     1.8071   1.8460   1.8707   1.9440   1.9506   1.9534   1.9842   2.0045
     2.0119   2.0229   2.0875   2.1726   2.1968   2.2253   2.2373   2.2454
     2.2903   2.3133   2.4125   2.5097   2.9439   3.2090   3.3818   3.3995
     3.4700   3.6455   3.7353   3.7551   3.8824   3.9752   4.3566   4.4163
     4.4440   4.8187   4.8408   4.9656   4.9945   5.0512   5.1794   5.2570
     5.2968   5.5114   5.7368   5.8110   5.9541   6.2806   6.4730

     the Fermi energy is     2.0083 ev

!    total energy              =  -27818.19227783 Ry

     total all-electron energy =  -1326871.568682 Ry
     estimated scf accuracy    <       0.00000069 Ry
     smearing contrib. (-TS)   =       0.00187939 Ry
     internal energy E=F+TS    =  -27818.19415723 Ry

     The total energy is F=E-TS. E is the sum of the following terms:
     one-electron contribution =  -26510.96556082 Ry
     hartree contribution      =   13559.88150052 Ry
     xc contribution           =    -903.92986588 Ry
     ewald contribution        =   11527.48125093 Ry
     one-center paw contrib.   =  -25490.66148198 Ry

     convergence has been achieved in  20 iterations

     negative rho (up, down):  1.310E-02 0.000E+00

     Forces acting on atoms (cartesian axes, Ry/au):

     atom    1 type  1   force =    -0.00033716   -0.00067452   -0.00924812
     atom    2 type  1   force =    -0.00078283    0.00005526   -0.00321916
     atom    3 type  1   force =     0.00078535    0.00006473   -0.00347412
     atom    4 type  1   force =    -0.00035681   -0.00073625   -0.00311262
     atom    5 type  1   force =    -0.00005122    0.00004119   -0.00348591
     atom    6 type  1   force =     0.00031085   -0.00079521   -0.00305963
     atom    7 type  1   force =     0.00052511    0.00086785   -0.00340330
     atom    8 type  1   force =    -0.00048742    0.00088853   -0.00342717
     atom    9 type  1   force =     0.00005014    0.00009674   -0.00333242
     atom   10 type  1   force =     0.00013034    0.00056870    0.00051559
     atom   11 type  1   force =    -0.00008221    0.00288958    0.01105580
     atom   12 type  1   force =     0.00034424    0.00098092   -0.00210273
     atom   13 type  1   force =     0.00195475   -0.00182495    0.01090565
     atom   14 type  1   force =    -0.00211718   -0.00130006    0.00966684
     atom   15 type  1   force =    -0.00002366    0.00004705    0.00134875
     atom   16 type  1   force =     0.00033682    0.00049424   -0.00085094
     atom   17 type  1   force =     0.00034266    0.00008421    0.00195299
     atom   18 type  1   force =    -0.00043072    0.00006735    0.00250547
     atom   19 type  1   force =     0.00000193   -0.00005238    0.00001294
     atom   20 type  1   force =    -0.00004194   -0.00010399    0.00044458
     atom   21 type  1   force =     0.00023290   -0.00013011    0.00021930
     atom   22 type  1   force =     0.00009638   -0.00018277    0.00011190
     atom   23 type  1   force =     0.00001724    0.00014585   -0.00002743
     atom   24 type  1   force =    -0.00008881   -0.00019143    0.00001572
     atom   25 type  1   force =    -0.00004570   -0.00011510    0.00005722
     atom   26 type  1   force =     0.00011002   -0.00019466    0.00008779
     atom   27 type  1   force =    -0.00002468   -0.00014318   -0.00006296
     atom   28 type  1   force =     0.00022252   -0.00012317   -0.00036236
     atom   29 type  1   force =     0.00042178    0.00008976    0.00047239
     atom   30 type  1   force =    -0.00041697    0.00029666    0.00037832
     atom   31 type  1   force =    -0.00000189   -0.00025183    0.00040538
     atom   32 type  1   force =    -0.00018733    0.00009296    0.00051055
     atom   33 type  1   force =    -0.00025795   -0.00019716    0.00048955
     atom   34 type  1   force =     0.00009053   -0.00016209    0.00089348
     atom   35 type  1   force =     0.00009268   -0.00033243    0.00023875
     atom   36 type  1   force =     0.00013872   -0.00022151    0.00021613
     atom   37 type  2   force =    -0.00245696    0.00582675    0.00522373
     atom   38 type  3   force =    -0.00007785   -0.00049110   -0.00115675
     atom   39 type  3   force =     0.00247573   -0.00527764    0.00701086
     atom   40 type  4   force =    -0.00041139   -0.00009677   -0.01441406

     Total force =     0.019066     Total SCF correction =     0.001300

     negative rho (up, down):  1.310E-02 0.000E+00

     negative rho (up, down):  1.310E-02 0.000E+00

     negative rho (up, down):  1.310E-02 0.000E+00

     negative rho (up, down):  1.310E-02 0.000E+00

     negative rho (up, down):  1.310E-02 0.000E+00

     negative rho (up, down):  1.310E-02 0.000E+00

     negative rho (up, down):  1.310E-02 0.000E+00

     negative rho (up, down):  1.310E-02 0.000E+00

     negative rho (up, down):  1.310E-02 0.000E+00

     negative rho (up, down):  1.310E-02 0.000E+00

     negative rho (up, down):  1.310E-02 0.000E+00

     negative rho (up, down):  1.310E-02 0.000E+00

     negative rho (up, down):  1.310E-02 0.000E+00

     negative rho (up, down):  1.310E-02 0.000E+00

     negative rho (up, down):  1.310E-02 0.000E+00

     negative rho (up, down):  1.310E-02 0.000E+00

     negative rho (up, down):  1.310E-02 0.000E+00

     negative rho (up, down):  1.310E-02 0.000E+00

     negative rho (up, down):  1.310E-02 0.000E+00

     negative rho (up, down):  1.310E-02 0.000E+00

     negative rho (up, down):  1.310E-02 0.000E+00

     negative rho (up, down):  1.310E-02 0.000E+00

     negative rho (up, down):  1.310E-02 0.000E+00

     negative rho (up, down):  1.310E-02 0.000E+00

     negative rho (up, down):  1.310E-02 0.000E+00

     negative rho (up, down):  1.310E-02 0.000E+00

     negative rho (up, down):  1.310E-02 0.000E+00

     negative rho (up, down):  1.310E-02 0.000E+00

     negative rho (up, down):  1.310E-02 0.000E+00

     negative rho (up, down):  1.310E-02 0.000E+00

     negative rho (up, down):  1.310E-02 0.000E+00

     negative rho (up, down):  1.310E-02 0.000E+00

     negative rho (up, down):  1.310E-02 0.000E+00

     negative rho (up, down):  1.310E-02 0.000E+00
 BEEFens 2000 ensemble energies
             -0.604768764209198E+02
             -0.360462898263953E+01
             -0.158004798805315E+02
              0.428078539336574E+02
             -0.220587192613381E+02
             -0.204953205976063E+02
             -0.350691202992102E+02
             -0.861953853825000E+02
             -0.464403323707775E+02
             -0.471905333307839E+02
             -0.368151007966887E+02
              0.224676697414559E+01
              0.405418780650822E+01
              0.767063502414646E+01
              0.264327459781146E+01
              0.473468141115993E+02
             -0.208354896133692E+02
             -0.230226680061900E+02
              0.192102273436554E+02
             -0.112065725912887E+03
              0.534631761946227E+02
             -0.289384856586486E+02
             -0.332003554828337E+01
             -0.113923063066075E+02
             -0.886544181341151E+01
             -0.463055153124097E+01
              0.880243439700005E+02
             -0.186057070019585E+02
             -0.898647602610617E+01
             -0.516606044056569E+02
              0.813852532641347E+02
             -0.187543214808799E+02
             -0.373694137903076E+02
              0.248890336239224E+02
             -0.283448897336831E+01
              0.162917500730249E+02
             -0.487272784147297E+01
              0.108311391115207E+02
              0.286907007494436E+02
             -0.102993689647432E+03
              0.556805124137132E+02
              0.141967313116200E+02
             -0.165363713577045E+01
             -0.360773040862185E+02
              0.122787049719393E+02
             -0.146099819881813E+02
              0.396717605476186E+02
              0.363854819179675E+02
             -0.307815481599191E+02
             -0.274079823882930E+02
             -0.327408871977012E+02
             -0.350970672397154E+02
              0.135458877063024E+02
             -0.489285958109549E+02
              0.115002542597813E+02
              0.621311000709317E+02
              0.632828610452554E+02
              0.355025206260009E+02
              0.153688324445745E+02
              0.269408007316840E+02
              0.888716867409117E+02
              0.212393470457959E+02
             -0.546940155350365E+02
             -0.156989677403466E+02
             -0.234978912123970E+02
              0.628006605142389E+02
             -0.771593829295622E+02
             -0.670178389535160E+02
             -0.258266480106138E+02
             -0.638553619683535E+01
             -0.469879291756449E+02
              0.269882315306594E+02
              0.797008934814755E+01
              0.861392788050233E+01
             -0.396140655944821E+02
             -0.345776050497540E+02
             -0.539959553951553E+02
              0.389617620596574E+02
             -0.294843072614813E+02
              0.264162187334563E+02
             -0.712474034041758E+01
             -0.317326864598701E+02
             -0.575010719834696E+02
             -0.176214137159685E+02
             -0.899140870016845E+01
             -0.124316466813292E+02
              0.411148112613587E+02
              0.680216214728912E+02
             -0.384104314626640E+02
             -0.792323205049732E+02
             -0.219153984626474E+02
              0.111197229444308E+03
             -0.590813471424368E+02
              0.355277794882235E+02
             -0.952676336135539E+01
             -0.661689276282294E+02
              0.253641017421024E+02
              0.397349662897832E+02
             -0.198363915992410E+02
              0.399630478817824E+02
             -0.295412240445123E+02
             -0.476059865434738E+02
              0.862530079262569E+02
              0.452575826498851E+02
              0.336172054792297E+02
              0.146030088567991E+02
              0.204709875476696E+02
              0.854192552485831E+02
             -0.255946282965625E+02
              0.787616953241849E+01
             -0.142008284463577E+03
              0.180738517451942E+02
             -0.714379426480984E+02
              0.150648776480824E+02
              0.203948291743813E+02
             -0.331653833436294E+02
             -0.555877028378382E+02
              0.654318393299172E+01
             -0.303253344640269E+02
              0.306294068114818E+02
             -0.528588969121136E+02
              0.175928517738794E+01
             -0.355796855318610E+02
             -0.422645783972200E+01
             -0.106959955180085E+01
              0.180279614899578E+02
              0.142806513548965E+01
             -0.650561178246733E+01
              0.588223606387275E+02
              0.905526568305487E+02
              0.482612595385500E+02
              0.828838883948809E+02
             -0.114788957602223E+02
              0.142862740327947E+02
              0.539639969404770E+02
             -0.111367740643365E+02
             -0.733521219658732E+02
             -0.382684251342058E+02
             -0.520376731378433E+02
             -0.275852325744585E+02
              0.326588089369615E+02
             -0.116410984905416E+03
             -0.186868936225439E+02
              0.412519854757643E+02
             -0.385083021151123E+02
             -0.364706154695940E+02
              0.542203323200761E+02
              0.399181803359950E+02
             -0.353261425214859E+02
              0.136266428340581E+02
             -0.272514381839856E+02
              0.342033684040686E+02
              0.444182659332733E+01
              0.211054760606951E+02
             -0.882471292917601E+02
             -0.478843552542563E+02
             -0.993823208945230E+01
              0.323837459635526E+01
             -0.365342094328159E+02
              0.105679194162947E+03
             -0.230794359556519E+02
             -0.398128256012838E+02
              0.387704056003056E+02
             -0.492972939643427E+02
             -0.362097319301739E+02
              0.323828653202255E+02
              0.124052275826606E+02
              0.164353365830017E+02
              0.115878670329237E+02
             -0.132566798102552E+02
              0.225105828023757E+02
              0.588434559044883E+02
             -0.310966900893518E+02
              0.161656842849629E+02
              0.931878871831488E+02
              0.339802796886672E+02
             -0.727932718126567E+01
             -0.187868925780784E+02
              0.152870923463468E+03
             -0.163159511727998E+02
              0.362064602713765E+02
              0.193277033649523E+02
              0.360999144106152E+02
              0.889235273327184E+02
              0.541647479774851E+02
             -0.237818484858125E+01
              0.226865401144181E+02
              0.483189042388182E+02
              0.362303505245613E+02
             -0.523555312376077E+02
              0.933204801481430E+02
             -0.823103154638033E+02
             -0.197977239414309E+02
              0.581207618239090E+02
              0.668025841224515E+01
              0.787218908446221E+01
              0.340191513850662E+02
              0.298910859466922E+02
              0.352651742336254E+02
             -0.635718832524548E+02
              0.285989594024215E+01
             -0.296944350504551E+02
             -0.868783885391322E+01
             -0.143960522016323E+01
             -0.717724139868495E+01
             -0.412920243434604E+01
              0.856944898807313E+02
             -0.101009730594993E+02
             -0.275571458771540E+02
             -0.496834018554814E+01
              0.139493286318884E+02
             -0.561897064496703E+02
             -0.405243312464792E+02
             -0.381107661219004E+02
             -0.628326665451894E+02
             -0.169039731566905E+02
             -0.446308087999409E+02
              0.162809007538223E+02
             -0.241237141268218E+01
             -0.104004500687438E+02
             -0.931787325349853E+01
              0.806964578271129E+01
             -0.242717520099018E+02
              0.687410760715603E+02
             -0.804375545297193E+02
             -0.140655647963975E+02
             -0.173773407571828E+02
              0.181628853852924E+02
              0.213687559744219E+02
             -0.462156511473584E+02
             -0.201605873814016E+02
              0.439562680389107E+02
             -0.275806128217203E+02
              0.186626196205407E+02
              0.382026263402679E+02
             -0.321731265357789E+01
              0.113791717859290E+03
             -0.229966387655429E+02
             -0.339978731629241E+02
              0.579260999642196E+01
             -0.227315305846951E+02
              0.525854014419014E+02
             -0.335552298482598E+02
              0.106034704383567E+02
              0.639273337553735E+02
             -0.125959488200022E+02
              0.119883611782033E+03
              0.125482845365067E+03
             -0.647701917081617E+02
              0.588815835600892E+02
              0.165594119663095E+02
             -0.515948331708646E+02
              0.215772485922163E+02
              0.352389176703983E+02
              0.361078001228985E+02
              0.133321264334913E+01
              0.159103639279283E+02
              0.693426086625648E+02
             -0.246276235864856E+02
              0.181172527274953E+02
              0.737095440635313E+02
             -0.371502879158102E+02
             -0.128751312552405E+02
              0.506624622793073E+02
              0.296471071609299E+02
              0.777964242869602E+02
              0.221487639643397E+02
              0.619808838380305E+01
              0.279661927157680E+02
              0.381961747260593E+02
             -0.470015563662607E+02
              0.328209698184980E+01
              0.128625512657091E+02
              0.113300565404663E+02
              0.219795823844705E+02
             -0.572956023882737E+02
              0.365204659834218E+02
             -0.442603280233272E+02
             -0.346505011932807E+02
              0.177325704917977E+02
             -0.181363663148969E+02
              0.553087029008088E+02
             -0.255946264442781E+02
              0.265760618945309E+02
              0.367358054907364E+02
              0.826966097582256E+02
              0.573209051283502E+02
              0.460212161225536E+02
             -0.105736099032148E+02
             -0.385877418158134E+01
             -0.331307577840225E+02
              0.748019344034048E+02
              0.794644427267226E+02
              0.360568293595760E+02
             -0.190977830584165E+02
              0.510361899733115E+02
             -0.163114665317727E+02
              0.214459283488492E+02
              0.612261458226723E+02
              0.214863013776250E+01
             -0.104143376660489E+02
             -0.282556824097538E+02
             -0.509587683582453E+02
              0.942430015278724E+02
              0.438047435731509E+02
             -0.556935841076598E+02
             -0.954510648339078E+01
              0.249117780596782E+02
             -0.993789290759850E+01
              0.590009596385878E+02
              0.151690736539512E+02
              0.796690909230844E+02
              0.278413257038566E+02
             -0.263345561041177E+02
              0.248466198139257E+02
             -0.499232153781008E+01
             -0.323032752816453E+02
              0.132632690958611E+02
              0.205334862597502E+02
              0.930067510470299E+02
              0.795115232892175E+02
              0.549285726661977E+02
              0.728900192670126E+02
              0.798787487299626E+01
             -0.273018923750129E+02
              0.162782417666818E+02
             -0.367049157807383E+02
             -0.474410149917101E+02
             -0.561925235477141E+02
             -0.265492931031173E+02
             -0.109384195310111E+03
             -0.290147114290928E+02
             -0.834664210701112E+02
              0.209370074338608E+02
             -0.475769853318086E+02
              0.395105629051051E+02
             -0.938301002706127E+02
             -0.329205466811474E+02
              0.547690498472427E+02
              0.206988724281273E+02
             -0.827723651214818E+02
              0.629584787433412E+02
             -0.255899703155621E+02
              0.510750522024909E+02
             -0.241831370769042E+02
             -0.748917440259752E+02
              0.111353622539741E+02
             -0.609243404257720E+02
             -0.168380937489399E+02
             -0.148191545542409E+01
              0.417066226222148E+02
              0.126634390541149E+03
             -0.460529718409401E+02
             -0.361440431441029E+02
             -0.951919308431286E+00
             -0.130207313477297E+02
             -0.820174766140861E+02
             -0.595218842928643E+02
              0.515816635332305E+02
             -0.288679670522338E+02
              0.168415366497886E+02
             -0.487945355785141E+02
             -0.131307226529802E+02
             -0.436047614231875E+02
              0.564213859889147E+02
              0.150805165454444E+02
             -0.230925587149325E+02
             -0.126299014908458E+02
              0.662139920023050E+01
             -0.617433117173789E+01
              0.440389752901189E+02
             -0.251250233898319E+02
              0.272181440980034E+01
              0.338307512307984E+02
              0.171005613866188E+02
             -0.158956100754756E+02
              0.155814553966595E+03
              0.536120311958768E+02
              0.112194381465784E+01
              0.161508244323373E+02
             -0.613017410728714E+02
              0.313915707603908E+02
             -0.719254169770845E+02
             -0.250889330097496E+02
             -0.520826546734301E+02
             -0.219567259709337E+02
              0.567356056928099E+02
             -0.535252818189587E+02
              0.159873742252423E+02
             -0.407228715475537E+01
              0.387480893010843E+01
             -0.433140312156333E+02
             -0.477119993750121E+02
             -0.398560817208033E+01
             -0.424209012199586E+02
             -0.216513060566394E+02
             -0.437311810782215E+02
             -0.119180077745853E+02
             -0.358090469971872E+02
             -0.515127280710490E+02
              0.212250856294475E+02
             -0.209061877766231E+02
              0.186973049457015E+02
              0.973167919315233E+01
             -0.735703636635916E+02
             -0.546659046955526E+02
             -0.396514022147518E+02
              0.353381946049908E+02
              0.274343728670948E+01
             -0.624902964307803E+02
              0.584039157663294E+02
             -0.399887928006477E+02
              0.542940991313101E+02
             -0.288615462506920E+02
             -0.444465864812091E+02
              0.297870211148036E+02
             -0.655438726343906E+02
             -0.379171905321087E+02
              0.671213136035658E+02
              0.203464618831449E+02
             -0.358651291577321E+02
              0.487760885319186E+02
             -0.173540870288764E+02
             -0.321649334536598E+02
             -0.300969458571015E+02
             -0.499116313952579E+02
              0.248587624998246E+02
             -0.930601614861001E+02
             -0.838176803057889E+02
             -0.730987598288027E+01
             -0.305912959883566E+02
             -0.573820019905082E+02
              0.719514763866198E+02
              0.131110832109721E+03
             -0.360585599491678E+02
             -0.253590576043922E+01
             -0.635489433284713E+02
              0.648540045841894E+02
              0.170026226665465E+02
             -0.180969465535326E+02
             -0.409067854907392E+02
              0.148197627141243E+02
             -0.584382018475994E+02
             -0.197531687579578E+02
             -0.902268083149190E+02
              0.335890615272044E+02
              0.168816857643117E+02
              0.187255283095601E+01
             -0.701457409996897E+01
             -0.328248350620479E+02
             -0.753938521032126E+01
              0.125110755285496E+03
             -0.198546284910656E+02
             -0.435917972584151E+02
             -0.681830424103258E+02
              0.108764438294097E+02
             -0.340957574864566E+02
              0.586401614681940E+01
              0.260398289523402E+02
              0.102069532729234E+02
              0.276770392929861E+02
              0.119294827506197E+02
              0.627971207258029E+02
              0.316175533308468E+02
             -0.325399405465148E+02
              0.353616530597899E+02
              0.378573495606552E+02
              0.120491333329444E+02
              0.486184925103350E+02
             -0.223640005860176E+02
              0.763715937617771E+02
              0.171378700334097E+02
             -0.271014121397367E+02
             -0.722744407011171E+01
             -0.185894955612989E+02
              0.261557468465697E+02
             -0.233690050876317E+02
             -0.699546689909312E-01
             -0.844879245181278E+01
              0.807270046583365E+02
              0.498259113055380E+02
             -0.685336704254167E+02
             -0.473183268980094E+01
             -0.554088365550539E+02
             -0.159151867442139E+02
             -0.267800765985660E+02
              0.371355095332581E+01
              0.604099004455467E+00
             -0.256704990484518E+02
              0.806700586866344E+01
             -0.599362947388424E+01
             -0.128479502066734E+02
              0.856362537114395E+02
              0.181479119452604E+02
             -0.804446217634453E+02
             -0.457479641874613E+02
              0.942029093606575E+02
              0.277150762971006E+02
             -0.106609985410242E+02
              0.104231709372374E+03
             -0.194415040610963E+02
             -0.122869979761089E+02
             -0.535118265305925E+01
              0.106877920905761E+02
              0.271327116709838E+02
              0.781046653300558E+01
              0.304541769414092E+02
             -0.187750572851201E+02
             -0.302443472865729E+02
             -0.416725598871238E+02
             -0.475493590071072E+02
              0.463020164138784E+02
              0.126413935183029E+02
              0.386529552601519E+02
              0.133039959255037E+02
              0.852891521750723E+02
              0.155734468418839E+02
             -0.843856471472970E+02
             -0.333494550790544E+02
              0.133889940028279E+02
             -0.302039670094651E+02
              0.624673990589382E+02
             -0.880248792390830E+01
              0.148198816932399E+02
              0.495485754869513E+02
             -0.704801035392483E+02
              0.149310670839803E+03
              0.208146371557351E+02
              0.270680347023645E+02
              0.346470954374801E+02
              0.103767937734985E+02
             -0.156400406991798E+01
              0.357546885534504E+02
             -0.356146588544187E+02
              0.770587014805728E+02
              0.682500979232882E+02
             -0.404849541641870E+02
              0.149078785418322E+02
              0.667984345629933E+02
             -0.223320820703008E+02
              0.153675060940560E+02
              0.434359202296735E+02
              0.421083457257843E+02
             -0.782704195375712E+02
             -0.152700094663387E+02
             -0.355507154704799E+02
             -0.146859338255979E+01
             -0.764133507956431E+01
             -0.548301365248369E+01
             -0.180489236381662E+02
             -0.292890513420582E+02
              0.627371906991569E+01
              0.111672553233600E+02
              0.534129358568953E+02
             -0.388816928045703E+02
              0.372895042110508E+02
              0.437018381470696E+02
             -0.186542080912608E+02
              0.870269370794897E+02
             -0.695941553438271E+02
             -0.102884225508713E+03
             -0.655965203596047E+01
             -0.266193673246369E+01
              0.387232363700741E+01
              0.787198047952898E+02
             -0.107181614842314E+02
              0.415382380465730E+02
              0.441708736118164E+02
              0.384195894538514E+02
             -0.992708843031551E+01
              0.625959595237251E+02
             -0.133082715448234E+02
             -0.306165353675968E+02
             -0.478678380664903E+02
              0.583259963527199E+01
              0.368665923743607E+02
             -0.603385236142483E+01
              0.392193809507226E+02
             -0.176028402233248E+01
              0.653745836072542E+02
              0.186923117595534E+02
              0.995975009113435E+01
             -0.122034755415697E+02
              0.331370158548263E+02
              0.361326035950678E+02
              0.232423282202884E+02
             -0.496235028354988E+00
             -0.548986136203035E+02
              0.259761673701483E+02
              0.174540732034466E+02
              0.401847968011453E+02
              0.271348682390981E+02
              0.371391828939362E+02
             -0.600360953008942E+01
              0.249918480876993E+02
             -0.297764895158437E+02
             -0.197706398224204E+01
             -0.567833955227784E+02
             -0.306859012623431E+02
              0.377500597288420E+02
             -0.933210347637855E+02
              0.293829953366258E+02
              0.183753135492273E+02
              0.837752935882660E+02
             -0.300439494687201E+02
              0.328481631622711E+02
             -0.137461941314417E+02
             -0.462458870790553E+02
             -0.759959834825147E+02
             -0.520000175970249E+01
             -0.857342427977305E+02
              0.199723936820570E+02
             -0.247002110766448E+02
              0.304816015696848E+02
              0.236220773104207E+02
             -0.240212546950152E+02
             -0.264494896009219E+02
              0.389661341920256E+02
             -0.586608335002822E+02
             -0.116299871307265E+02
             -0.195640347222753E+02
              0.211799853284398E+02
             -0.895324050501944E+01
              0.361298273554650E+01
             -0.200272154109390E+02
              0.557262116301310E+02
             -0.437550826955766E+02
              0.786788566545363E+01
              0.583688845281604E+02
             -0.322171925117196E+02
              0.359282802757545E+01
             -0.884279738131966E+01
             -0.667667075559202E+02
             -0.481711068767344E+02
             -0.861533827149041E+01
              0.239786749002009E+02
              0.301264796875055E+02
              0.859563172558882E+01
             -0.409454597294598E+01
              0.151412117224975E+02
             -0.438836831668150E+02
              0.335153199082987E+01
             -0.529670251531984E+02
             -0.324127973736685E+02
              0.473193105295100E+02
             -0.294288671213808E+02
              0.620291152628180E+02
             -0.214003498691858E+02
              0.352777864520923E+02
              0.241037653793999E+02
             -0.642391655831897E+02
             -0.279798744379282E+02
              0.929371307621247E+01
             -0.370437213839842E+02
             -0.338371905062360E+02
             -0.827237316853041E+02
             -0.537789403120377E+02
             -0.509037805473325E+02
             -0.414218431819826E+02
             -0.985908145381387E+00
              0.986352807431166E+01
              0.990009366587941E+00
              0.152228161407281E+02
             -0.547639646479722E+02
              0.141442329561049E+02
              0.255922650933132E+02
             -0.664838183725549E+02
             -0.700550659717341E+02
             -0.430231961879704E+02
             -0.170829400640164E+02
              0.178143177251252E+02
              0.457797860150288E+01
             -0.424750181352341E+02
              0.365632242935295E+02
             -0.215424352012953E+02
              0.516002102062203E+02
             -0.884677634672743E+02
              0.595734689532627E+02
             -0.207264225500756E+01
             -0.367209858025375E+02
             -0.215480312044133E+02
              0.471915447255530E+01
              0.373027564977152E+02
             -0.754422922076674E+02
             -0.120404952939979E+02
             -0.216256384251216E+02
              0.510126029502339E+02
              0.862602152166530E+02
             -0.962347351962596E+02
              0.941454601413695E+02
              0.466738622968251E+02
             -0.723258510703506E+02
             -0.365852814326452E+02
              0.749634535208163E+02
              0.630473544943612E+02
             -0.180552284099418E+02
             -0.461316114225451E+01
              0.725964240559392E+01
              0.646678222369747E+02
             -0.506600726366811E+02
              0.158156483290266E+02
             -0.469179448732176E+01
              0.347192363610659E+02
             -0.745056900426373E+02
             -0.648461227965041E+01
             -0.350474678006382E+02
              0.459286769876253E+02
              0.467734567253299E+02
             -0.859272475455653E+02
             -0.485759180358284E+02
             -0.255735599534478E+02
             -0.337978889860071E+02
             -0.108950526857742E+02
             -0.242429456428084E+02
              0.426094763963008E+02
              0.399810769133838E+02
             -0.565484769313559E+01
             -0.414962811821648E+02
             -0.848045742719950E+02
              0.441610334695990E+02
             -0.522028765847239E+02
             -0.311863607390540E+02
              0.544463624651404E+01
             -0.321432525882848E+02
             -0.396805182067876E+02
             -0.239240119027879E+02
             -0.383844507858400E+02
             -0.270094144258734E+02
             -0.481090200775836E+02
              0.562360422449242E+02
              0.636582766854648E+02
             -0.166908517756201E+01
[...]
              0.283028197015042E+02
              0.141407099032192E+03
              0.241322437770540E+02
              0.121957740792094E+02
             -0.462948206384321E+02
             -0.636084431462617E+02
             -0.188746518167443E+02
              0.328832121040909E+02
             -0.425579989834716E+01
              0.189104367703311E+02
              0.335046320279835E+02
             -0.584653982742944E+02
              0.221568620798910E+02
              0.581326917681768E+02
              0.551208336840687E+02
             -0.415815452998083E+01
             -0.140341298173576E+01
             -0.991935466406048E+01
             -0.481044877667365E+02
             -0.672665406168624E+02
              0.783211118620223E+02
             -0.519027794690177E+01
             -0.586346675084593E+02
              0.167342469953871E+01
             -0.204257878391893E+02
              0.935975255489172E+02
             -0.215795305047188E+02
             -0.352367289356735E+02
              0.334086488745093E+02
             -0.145212172550087E+02
              0.388077723006899E+02
             -0.239106703293334E+01
              0.100813312257082E+03
              0.487877820994595E+02
             -0.516947246756443E+01
             -0.320627093315210E+02
              0.231337028132792E+02
             -0.526835167469515E+02
             -0.127818496707212E+02
              0.583712828606551E+02
             -0.286930380668131E+02
             -0.437012483707528E+02
             -0.222420434026431E+02
              0.517125910592447E+02
              0.124424554091894E+02
             -0.846447212049576E+02
              0.302852465737411E+02
              0.152101655787438E+02
              0.573231353244717E+01
             -0.512027215346192E+02
             -0.381754259001957E+01
              0.322004802150262E+02
              0.511525041728174E+02
              0.630503807865829E+02
              0.227798681652495E+02
              0.728851280793435E+00
             -0.496228648811351E+02
             -0.508848406950021E+02
             -0.746056082810997E+02
             -0.609034864236753E+01
              0.307964181990030E+02
             -0.380053926210823E+01
              0.545334416937440E+02
             -0.316966703476641E+02
              0.165882265322166E+02
             -0.101793526499808E+02
             -0.288748190709301E+02
              0.583805051677706E+02
              0.791024104799493E+01
              0.602253394382059E+02
              0.507836048243030E+01
              0.264528376803709E+02
             -0.192197834243907E+02
              0.584261027964042E+02
             -0.110834886760271E+02
             -0.123841284654265E+00
             -0.787748781685324E+02
             -0.128221657699144E+02
              0.716973928295107E+02
              0.671324669030190E+02
              0.250982836456801E+02
             -0.129744920983000E+02
              0.341685840218850E+01
             -0.172680670792462E+02
             -0.196642963642992E+01
              0.904951854884339E+02
              0.121103526718196E+01
             -0.189317233597102E+02
             -0.110428041888290E+03
             -0.551521367041596E+02
             -0.373854796312598E+02
             -0.656735515436741E+02
             -0.553672640872649E+02
             -0.680467534373407E+02
             -0.445711796071152E+02
             -0.410233757850314E+02
             -0.450283628129415E+02
              0.482218698833778E+02
             -0.293845542955197E+02
             -0.993160618673089E+02
              0.417726516918711E+02
             -0.258899026319134E+02
             -0.788307453676451E+02
              0.940702369071160E+02
             -0.218769514584122E+02
              0.227727570131359E+02
              0.454102938472703E+02
             -0.140673866270606E+01
              0.253492887664410E+02
              0.470187732437037E+01
              0.407026687391149E+00
             -0.150248850291582E+02
             -0.713390545467159E+02
              0.132888378883771E+02
             -0.129031316453161E+03
              0.621704600254326E+02
             -0.439383468673611E+02
             -0.162217125039813E+02
             -0.157367669360560E+02
              0.705803862134675E+01
             -0.227355365369571E+02
              0.296285865294067E+02
             -0.518591021658441E+02
              0.366173318171782E+02
              0.369460323924121E+02
              0.168272243177425E+02
              0.100261734297038E+02
              0.197129147149518E+02
              0.617882062716467E+01
              0.309519062028032E+02
             -0.798658974272871E+01
             -0.589623443690386E+02
              0.754074460775621E+01
             -0.151379630373709E+02
             -0.191867242603070E+01
              0.504359879366719E+02
             -0.824465802321031E+02
             -0.150056669767378E+01
              0.559872303522923E+00
              0.992739237316619E+01
              0.317504423245348E+02
             -0.123224127602103E+02
              0.833040677140323E+02
              0.486711249967564E+02
             -0.182863359555582E+02
             -0.953857876957682E+01
              0.103592792900423E+01
              0.767095755731872E+02
             -0.584762710868098E+02
             -0.105459714890839E+03
              0.308321528817402E+02
             -0.162924324639306E+02
             -0.138986682427772E+02
              0.129806100020237E+02
              0.766156352559045E+02
              0.462950261017662E+02
             -0.152931320420540E+02
             -0.501213862909562E+02
             -0.544356786845563E+01
              0.305572110807962E+02
             -0.110921755987173E+02
             -0.753356897710050E+02
             -0.267383959476774E+01
             -0.886655632480530E+02
             -0.473823734087537E+02
              0.765597026997418E+02
             -0.481803098258831E+02
             -0.634148927781692E+02
             -0.512724886243947E+02
             -0.348449064349665E+02
              0.339868938373210E+02
              0.818829173179160E+02
             -0.353216461863917E+01
              0.275756888834007E+02
             -0.183066345831043E+02
             -0.691739986402949E+02
              0.463446004457642E+02
             -0.443404628033580E+02
              0.321093422949102E+02
              0.375448256030745E+02
             -0.649596833398232E+01
              0.389362365585592E+02
              0.437192709877654E+02
              0.100245360374658E+03
             -0.155801135082635E+02
             -0.454053669337075E+02
             -0.610613146282836E+02
             -0.123094023636098E+02
             -0.231386255044193E+02
              0.102746900002274E+03
             -0.447688810050174E+02
              0.104792847823465E+02
              0.971907624721780E+01
             -0.264124392452179E+02
             -0.795946456951575E+02
             -0.697537369861203E+01
              0.976650602221656E+02
              0.928677646595141E+01
              0.806372053165927E+01
             -0.524885121990627E+02
             -0.603719238550395E+02
             -0.554824614762236E+01
              0.499003080420167E+02
             -0.220977233460879E+02
              0.107657744001630E+03
             -0.433965722010390E+02
              0.145603927847872E+02
             -0.223952686426032E+02
             -0.716628580771787E+02
              0.164821702284019E+01
             -0.499780598282052E+02
             -0.758274986744743E+02
              0.610961474179283E+01
              0.235563821099680E+01
              0.512529527747350E+02
              0.186266995088595E+02
             -0.322439315443996E+02
              0.229347355931565E+02
             -0.807940402591534E+02
             -0.520299146826794E+02
              0.898794185361406E+02
              0.142324252725437E+02
             -0.188028355418357E+02
             -0.351749909909058E+02
             -0.269548357709630E+01
             -0.581997312767817E+01
              0.827177743166458E+02
              0.416410030130102E+02
             -0.165881740238793E+02
             -0.122078472781694E+02
             -0.426512064045019E+02
             -0.200379352165094E+02
             -0.668111078497296E+02
              0.457987743464314E+02
              0.544430959591952E+01
              0.144781371078053E+02
              0.155395821538825E+02
             -0.505422591785599E+00
             -0.167615033199139E+02
             -0.313383478311317E+01
             -0.100049612804200E+03
             -0.229718207168888E+02
             -0.761326969912722E+01
             -0.946696886415040E+01
              0.544949581640010E+02
              0.621640843385279E+02
              0.164187908569315E+02
             -0.967582265574344E+02
              0.645456252219778E+02
             -0.214190871224056E+02
             -0.375798635379706E+02
             -0.861333650434146E+02
             -0.386283552861073E+02
              0.562301717812252E+02
              0.243099341928387E+02
              0.508288328054113E+01
              0.291012081995139E+02
             -0.563079574766853E+02
             -0.420568098066658E+02
              0.513196629994148E+02
              0.385817334458613E+02
              0.517425544187163E+02
             -0.126192723024988E+01
              0.681834962968850E+01
              0.567782539743739E+02
              0.959525360339422E+02
             -0.299852303563990E+02
              0.321400735576508E+02
             -0.117282369459425E+02
             -0.410685715641669E+02
             -0.313105717850418E+02
             -0.298976847151396E+02
             -0.130878681939936E+02
             -0.521908334274012E+02
             -0.216667979129529E+02
             -0.140758460301513E+03
              0.368037066259678E+02
              0.205765536975061E+02
             -0.392709268355795E+01
             -0.378791704762692E+02
             -0.203663491094276E+02
             -0.524890618307939E+02
              0.151222418041997E+02
              0.817508758768678E+02
             -0.251658010479621E+02
             -0.162369477744676E+02
              0.237459590473562E+02
             -0.487709600858567E+02
              0.877803546337968E+02
              0.153953182786102E+02
              0.226294409991830E+02
              0.488500327856800E+02
              0.323740744679168E+01
              0.540073230898490E+02
              0.142241503182933E+02
             -0.106662654948892E+02
              0.726771296636906E+01
              0.826331449837937E+00
              0.725134053190623E+02
              0.100971428592165E+02
              0.119711423916205E+02
             -0.129832085193278E+02
              0.132037629467556E+02
             -0.908073916014720E+02
             -0.324676922750416E+02
             -0.455651116345041E+02
              0.483655065685621E+02
             -0.289844776418914E+02
             -0.656801858581587E+02
              0.536376842240222E+02
             -0.121575782574278E+02
              0.438789827972805E+02
             -0.895798268271714E+02
              0.231625308379181E+02
              0.856471865974260E+01
              0.579967141418831E+01
             -0.826789967681759E+01
             -0.901723929388356E+01
              0.477811545248269E+02
              0.199167552216306E+01
             -0.473229251009994E+02
             -0.175411562063231E+02
              0.276134361992015E+02
             -0.117566620797880E+03
             -0.927087959818242E+02
              0.396510157428048E+01
              0.116979179405318E+02
             -0.411462136401841E+02
             -0.390462820307960E+01
              0.111787785219348E+03
              0.305605368769591E+02
             -0.569905527273256E+02
              0.922494149815071E+01
             -0.960525224312147E+01
              0.105253645503398E+02
             -0.336444750422253E+02
              0.194566684571725E+02
              0.283879867532052E+02
             -0.295335747882086E+01
              0.107797606294867E+03
             -0.140357864166542E+02
             -0.314972657790576E+02
              0.141700479598688E+02
              0.465262988460911E+02
             -0.354914097702393E+02
             -0.317341717326435E+01
              0.961586596851654E+02
             -0.465002157817401E+01
              0.619974224744860E+02
              0.134908093121623E+02
             -0.899834428723221E+01
             -0.304998846795703E+02
              0.565098818725750E+02
             -0.512152450262146E+02
             -0.220974113101460E+01
             -0.169315032029577E+02
             -0.403982591262805E+02
              0.184651451283812E+02
              0.238392719562283E+02
              0.116321617071509E+02
              0.727591998686648E+00
             -0.383050780284441E+02
              0.214937210813705E+02
             -0.674985483600366E+01
             -0.245800320709262E+02
             -0.210012339381283E+02
              0.202850987823796E+02
             -0.598516623223861E+01
             -0.347866932625784E+02
             -0.106280300224323E+03
              0.102655897852100E+02
              0.248429126256489E+02
             -0.385475052119561E+02
             -0.210054863016996E+02
              0.804336985779549E+02
              0.645843798160948E+01
              0.309077220784654E+02
              0.385934259623133E+01
              0.320352180323750E+02
              0.646026182677491E+01
             -0.371604227764854E+02
             -0.226262857533925E+01
              0.875295072643132E+01
              0.272695795785278E+02
              0.779571303589673E+02
              0.505828612768047E+02
              0.165608951752915E+00
              0.168832686497844E+02
              0.611207861399785E+02
              0.234906287355435E+02
             -0.750747749820383E+02
             -0.272873339412427E+02
              0.150863185354789E+02
              0.558061611522913E+01
              0.254154645180308E+02
             -0.546202165078446E+02
              0.898177810427363E+01
              0.384520400284670E+02
              0.496429556516539E+02
             -0.433497939772835E+02
             -0.693591998071685E+01
             -0.206805782620745E+01
             -0.133005852537464E+02
             -0.364863333981032E+02
             -0.215014997887931E+02
             -0.196538927867714E+01
              0.788997076595604E+01
              0.419997851683008E+02
             -0.307170042034711E+02
              0.823566778983306E+02
              0.326367239671768E+02
              0.218842498810114E+02
              0.331834120096619E+02
              0.322502515908779E+02
              0.344937972087503E+02
              0.535328846854720E+02
             -0.432303699118034E+02
              0.617590908056096E+02
             -0.111892642338140E+03
              0.306318896417955E+02
             -0.106186172548791E+03
              0.852065543767419E+02
              0.687993194497816E+02
             -0.109624663634742E+02
             -0.491762296892351E+02
             -0.428142728893894E+02
             -0.621939756725124E+02
             -0.626530103224973E+02
              0.550048325635498E+02
              0.404044509782220E+02
              0.235990451174832E+02
              0.373231223873511E+02
              0.401503622264817E+02
             -0.380747106630697E+02
             -0.197435687449853E+02
              0.584924863501111E+02
             -0.115663095795307E+02
              0.550225330230354E+02
              0.696745557296040E+02
             -0.553063142295095E+01
             -0.703761467919533E+02
             -0.922278605718702E+00
             -0.247298713370723E+01
             -0.878654571249672E+01
             -0.181851872967218E+01
             -0.650904538858377E+02
             -0.210711568700161E+02
              0.534113407929608E+01
              0.893527513919187E+01
              0.467183680306837E+02
             -0.396241404456871E+02
              0.656070808990404E+02
             -0.424103208455633E+02
              0.209349336213090E+02
              0.348823517122015E+02
 
 BEEF-vdW xc energy contributions
           1 :   -780.702425540411     
           2 :    717.455776658538     
           3 :   -607.867765956005     
           4 :    478.717315239679     
           5 :   -357.294569043317     
           6 :    263.346439015810     
           7 :   -204.566588635752     
           8 :    176.532935719060     
           9 :   -166.676265790076     
          10 :    160.396831340881     
          11 :   -146.837554115062     
          12 :    122.140212191011     
          13 :   -89.3293948673358     
          14 :    55.4315373478131     
          15 :   -27.4968344267769     
          16 :    9.32002514540989     
          17 :  -0.131242072731084     
          18 :   -4.46487571073339     
          19 :    10.0003358577649     
          20 :   -20.4168673632906     
          21 :    36.3546376077494     
          22 :   -55.1409993093963     
          23 :    72.3165784019855     
          24 :   -83.8660368053971     
          25 :    88.0583629429444     
          26 :   -86.0775030265678     
          27 :    81.2442790453291     
          28 :   -77.3068757726184     
          29 :    76.6628604065343     
          30 :   -79.3494087413684     
          31 :   -85.4908269789451     
          32 :   -65.5594816083593     

     Writing output data file ./pwscf.save/
 
     init_run     :    300.72s CPU    305.29s WALL (       1 calls)
     electrons    :  12159.77s CPU  12295.28s WALL (       1 calls)
     forces       :     94.41s CPU     95.72s WALL (       1 calls)

     Called by init_run:
     wfcinit      :    253.05s CPU    256.57s WALL (       1 calls)
     potinit      :     44.39s CPU     44.72s WALL (       1 calls)
     hinit0       :      1.45s CPU      1.48s WALL (       1 calls)

     Called by electrons:
     c_bands      :  10115.71s CPU  10219.23s WALL (      21 calls)
     sum_band     :   1370.97s CPU   1385.18s WALL (      21 calls)
     v_of_rho     :    105.41s CPU    109.89s WALL (      21 calls)
     newd         :     32.28s CPU     45.76s WALL (      21 calls)
     PAW_pot      :    144.85s CPU    144.85s WALL (      21 calls)
     mix_rho      :    435.56s CPU    436.21s WALL (      21 calls)
     vdW_kernel   :     33.63s CPU     33.63s WALL (       1 calls)

     Called by c_bands:
     init_us_2    :     79.46s CPU     79.71s WALL (     572 calls)
     cegterg      :   9313.90s CPU   9417.17s WALL (     273 calls)

     Called by *egterg:
     cdiaghg      :     85.24s CPU     85.29s WALL (    1303 calls)
     h_psi        :   5784.65s CPU   5820.40s WALL (    1329 calls)
     s_psi        :   1027.22s CPU   1027.21s WALL (    1329 calls)
     g_psi        :     16.80s CPU     16.81s WALL (    1043 calls)

     Called by h_psi:
     h_psi:calbec :    971.71s CPU    971.75s WALL (    1329 calls)
     vloc_psi     :   3759.19s CPU   3760.35s WALL (    1329 calls)
     add_vuspsi   :   1027.09s CPU   1027.12s WALL (    1329 calls)

     General routines
     calbec       :   1431.90s CPU   1431.94s WALL (    1654 calls)
     fft          :     45.16s CPU     45.17s WALL (    3281 calls)
     ffts         :    135.70s CPU    135.72s WALL (   10984 calls)
     fftw         :   3891.03s CPU   3891.65s WALL (  347443 calls)
 
     Parallel routines
 
     PWSCF        :      3h30m CPU      3h33m WALL

 
   This run was terminated on:  17:50: 6  26Sep2022            

=------------------------------------------------------------------------------=
   JOB DONE.
=------------------------------------------------------------------------------=
