
     Program PWSCF v.6.7MaX starts on 20May2022 at 15:51:12 

     This program is part of the open-source Quantum ESPRESSO suite
     for quantum simulation of materials; please cite
         "P. Giannozzi et al., J. Phys.:Condens. Matter 21 395502 (2009);
         "P. Giannozzi et al., J. Phys.:Condens. Matter 29 465901 (2017);
          URL http://www.quantum-espresso.org", 
     in publications or presentations arising from this work. More details at
     http://www.quantum-espresso.org/quote

     Parallel version (MPI), running on     1 processors

     MPI processes distributed on     1 nodes
     Reading input from hcoo-ensemble.in
Warning: card &CELL ignored
Warning: card / ignored

     Current dimensions of program PWSCF are:
     Max number of different atomic species (ntypx) = 10
     Max number of k-points (npk) =  40000
     Max angular momentum in pseudopotentials (lmaxx) =  3
     file Pt.pbe-n-kjpaw_psl.1.0.0.UPF: wavefunction(s)  6S 5D renormalized
     file C.pbe-n-kjpaw_psl.1.0.0.UPF: wavefunction(s)  2S 2P renormalized
     file H.pbe-kjpaw_psl.1.0.0.UPF: wavefunction(s)  1S renormalized
     file O.pbe-nl-kjpaw_psl.1.0.0.UPF: wavefunction(s)  2S 2P renormalized

     **************************************************************************
     Initializing libbeef V0.1.2 with the BEEF-vdW functional.
     Citation: Wellendorff et al., PRB 85, 235149 (2012).
     **************************************************************************


     IMPORTANT: XC functional enforced from input :
     Exchange-correlation= BEEF-VDW
                           (   1   4  43  14   2   0   0)
     Any further DFT definition will be discarded
     Please, verify this is what you really want


     Subspace diagonalization in iterative solution of the eigenvalue problem:
     a serial algorithm will be used

 
     G-vector sticks info
     --------------------
     sticks:   dense  smooth     PW     G-vecs:    dense   smooth      PW
     Sum        4267    4267   1159               733369   733369  103281
 


     bravais-lattice index     =            0
     lattice parameter (alat)  =      16.0349  a.u.
     unit-cell volume          =   11675.2758 (a.u.)^3
     number of atoms/cell      =           40
     number of atomic types    =            4
     number of electrons       =       377.00
     number of Kohn-Sham states=          227
     kinetic-energy cutoff     =      60.0000  Ry
     charge density cutoff     =     240.0000  Ry
     scf convergence threshold =      1.0E-06
     mixing beta               =       0.7000
     number of iterations used =            8  local-TF  mixing
     Exchange-correlation= BEEF-VDW
                           (   1   4  43  14   2   0   0)

     celldm(1)=  16.034858  celldm(2)=   0.000000  celldm(3)=   0.000000
     celldm(4)=   0.000000  celldm(5)=   0.000000  celldm(6)=   0.000000

     crystal axes: (cart. coord. in units of alat)
               a(1) = (   1.000000   0.000000   0.000000 )  
               a(2) = (   0.500000   0.866025   0.000000 )  
               a(3) = (   0.000000   0.000000   3.269950 )  

     reciprocal axes: (cart. coord. in units 2 pi/alat)
               b(1) = (  1.000000 -0.577350  0.000000 )  
               b(2) = (  0.000000  1.154701  0.000000 )  
               b(3) = (  0.000000  0.000000  0.305815 )  


     PseudoPot. # 1 for Pt read from file:
     /users/bkreitz1/quantum-espresso/potentials/Pt.pbe-n-kjpaw_psl.1.0.0.UPF
     MD5 check sum: 04dc8a03c51ece93fc7b5889c2958091
     Pseudo is Projector augmented-wave + core cor, Zval = 10.0
     Generated using 'atomic' code by A. Dal Corso  v.6.7MaX
     Shape of augmentation charge: PSQ
     Using radial grid of 1277 points,  6 beta functions with: 
                l(1) =   0
                l(2) =   0
                l(3) =   1
                l(4) =   1
                l(5) =   2
                l(6) =   2
     Q(r) pseudized with 0 coefficients 


     PseudoPot. # 2 for C  read from file:
     /users/bkreitz1/quantum-espresso/potentials/C.pbe-n-kjpaw_psl.1.0.0.UPF
     MD5 check sum: a169b0ebad56f5ec0d79c4633f80bf22
     Pseudo is Projector augmented-wave + core cor, Zval =  4.0
     Generated using 'atomic' code by A. Dal Corso  v.6.7MaX
     Shape of augmentation charge: PSQ
     Using radial grid of 1073 points,  4 beta functions with: 
                l(1) =   0
                l(2) =   0
                l(3) =   1
                l(4) =   1
     Q(r) pseudized with 0 coefficients 


     PseudoPot. # 3 for H  read from file:
     /users/bkreitz1/quantum-espresso/potentials/H.pbe-kjpaw_psl.1.0.0.UPF
     MD5 check sum: ae98473e6dc62675f0d0baffdab24f65
     Pseudo is Projector augmented-wave, Zval =  1.0
     Generated using 'atomic' code by A. Dal Corso  v.6.7MaX
     Shape of augmentation charge: PSQ
     Using radial grid of  929 points,  2 beta functions with: 
                l(1) =   0
                l(2) =   0
     Q(r) pseudized with 0 coefficients 


     PseudoPot. # 4 for O  read from file:
     /users/bkreitz1/quantum-espresso/potentials/O.pbe-nl-kjpaw_psl.1.0.0.UPF
     MD5 check sum: eef08af8b58d9ec80f8fdb78829eb7cf
     Pseudo is Projector augmented-wave + core cor, Zval =  6.0
     Generated using 'atomic' code by A. Dal Corso  v.6.7MaX
     Shape of augmentation charge: PSQ
     Using radial grid of 1095 points,  4 beta functions with: 
                l(1) =   0
                l(2) =   0
                l(3) =   1
                l(4) =   1
     Q(r) pseudized with 0 coefficients 


     atomic species   valence    mass     pseudopotential
        Pt            10.00   195.08400     Pt( 1.00)
        C              4.00    12.01100     C ( 1.00)
        H              1.00     1.00800     H ( 1.00)
        O              6.00    15.99900     O ( 1.00)

     No symmetry found



   Cartesian axes

     site n.     atom                  positions (alat units)
         1           Pt  tau(   1) = (   0.0000000   0.0000000   1.0017346  )
         2           Pt  tau(   2) = (   0.3333333   0.0000000   1.0017346  )
         3           Pt  tau(   3) = (   0.6666667   0.0000000   1.0017346  )
         4           Pt  tau(   4) = (   0.1666667   0.2886751   1.0017346  )
         5           Pt  tau(   5) = (   0.5000000   0.2886751   1.0017346  )
         6           Pt  tau(   6) = (   0.8333333   0.2886751   1.0017346  )
         7           Pt  tau(   7) = (   0.3333333   0.5773503   1.0017346  )
         8           Pt  tau(   8) = (   0.6666667   0.5773503   1.0017346  )
         9           Pt  tau(   9) = (   1.0000000   0.5773503   1.0017346  )
        10           Pt  tau(  10) = (   0.1666667   0.0962250   1.2739001  )
        11           Pt  tau(  11) = (   0.5000000   0.0962250   1.2739001  )
        12           Pt  tau(  12) = (   0.8333333   0.0962250   1.2739001  )
        13           Pt  tau(  13) = (   0.3333333   0.3849002   1.2739001  )
        14           Pt  tau(  14) = (   0.6666667   0.3849002   1.2739001  )
        15           Pt  tau(  15) = (   1.0000000   0.3849002   1.2739001  )
        16           Pt  tau(  16) = (   0.5000000   0.6735753   1.2739001  )
        17           Pt  tau(  17) = (   0.8333333   0.6735753   1.2739001  )
        18           Pt  tau(  18) = (   1.1666667   0.6735753   1.2739001  )
        19           Pt  tau(  19) = (  -0.0022826   0.1934030   1.5461819  )
        20           Pt  tau(  20) = (   0.3360222   0.1935449   1.5467528  )
        21           Pt  tau(  21) = (   0.6667450   0.1916833   1.5439637  )
        22           Pt  tau(  22) = (   0.1666232   0.4802827   1.5423844  )
        23           Pt  tau(  23) = (   0.4999424   0.4792834   1.5440877  )
        24           Pt  tau(  24) = (   0.8332769   0.4793120   1.5439273  )
        25           Pt  tau(  25) = (   0.3340091   0.7684996   1.5406901  )
        26           Pt  tau(  26) = (   0.6666815   0.7707491   1.5395242  )
        27           Pt  tau(  27) = (   0.9992113   0.7685778   1.5406631  )
        28           Pt  tau(  28) = (   0.0011456  -0.0041079   1.8160712  )
        29           Pt  tau(  29) = (   0.3322676  -0.0039726   1.8164010  )
        30           Pt  tau(  30) = (   0.6667061  -0.0061972   1.8115616  )
        31           Pt  tau(  31) = (   0.1670652   0.2866154   1.8167694  )
        32           Pt  tau(  32) = (   0.4983608   0.2857783   1.8233873  )
        33           Pt  tau(  33) = (   0.8362196   0.2859825   1.8220829  )
        34           Pt  tau(  34) = (   0.3323261   0.5764295   1.8160741  )
        35           Pt  tau(  35) = (   0.6666432   0.5802890   1.8116324  )
        36           Pt  tau(  36) = (   1.0011623   0.5767235   1.8158646  )
        37           C   tau(  37) = (   0.6714114   0.2889811   2.1387005  )
        38           H   tau(  38) = (   0.6723323   0.2895368   2.2682158  )
        39           O   tau(  39) = (   0.5352984   0.2889299   2.0769012  )
        40           O   tau(  40) = (   0.8066935   0.2888081   2.0762451  )

     number of k points=    13  Marzari-Vanderbilt smearing, width (Ry)=  0.0200
                       cart. coord. in units 2pi/alat
        k(    1) = (   0.0000000   0.0000000   0.0000000), wk =   0.0800000
        k(    2) = (   0.0000000   0.2309401   0.0000000), wk =   0.1600000
        k(    3) = (   0.0000000   0.4618802   0.0000000), wk =   0.1600000
        k(    4) = (   0.2000000  -0.1154701   0.0000000), wk =   0.1600000
        k(    5) = (   0.2000000   0.1154701   0.0000000), wk =   0.1600000
        k(    6) = (   0.2000000   0.3464102   0.0000000), wk =   0.1600000
        k(    7) = (   0.2000000  -0.5773503   0.0000000), wk =   0.1600000
        k(    8) = (   0.2000000  -0.3464102   0.0000000), wk =   0.1600000
        k(    9) = (   0.4000000  -0.2309401   0.0000000), wk =   0.1600000
        k(   10) = (   0.4000000  -0.0000000   0.0000000), wk =   0.1600000
        k(   11) = (   0.4000000   0.2309401   0.0000000), wk =   0.1600000
        k(   12) = (   0.4000000  -0.6928203   0.0000000), wk =   0.1600000
        k(   13) = (   0.4000000  -0.4618802   0.0000000), wk =   0.1600000

     Dense  grid:   733369 G-vectors     FFT dimensions: (  80,  80, 270)

     Estimated max dynamical RAM per process >       8.94 GB

     Check: negative core charge=   -0.000001

     Initial potential from superposition of free atoms

     starting charge  376.99384, renormalised to  377.00000

     negative rho (up, down):  1.294E-02 0.000E+00


     %%%%%%%%%%%%%%%%%%%%%%%%%%%%%%%%%%%%%%%%%%%%%%%%%%%%%%%%%%%%%%%%%%%%%%%%
     %                                                                      %
     % You are using vdW-DF, which was implemented by the Thonhauser group. %
     % Please cite the following two papers that made this development      %
     % possible and the two reviews that describe the various versions:     %
     %                                                                      %
     %   T. Thonhauser et al., PRL 115, 136402 (2015).                      %
     %   T. Thonhauser et al., PRB 76, 125112 (2007).                       %
     %   K. Berland et al., Rep. Prog. Phys. 78, 066501 (2015).             %
     %   D.C. Langreth et al., J. Phys.: Condens. Matter 21, 084203 (2009). %
     %                                                                      %
     %                                                                      %
     % If you are calculating the stress with vdW-DF, please also cite:     %
     %                                                                      %
     %   R. Sabatini et al., J. Phys.: Condens. Matter 24, 424209 (2012).   %
     %                                                                      %
     %%%%%%%%%%%%%%%%%%%%%%%%%%%%%%%%%%%%%%%%%%%%%%%%%%%%%%%%%%%%%%%%%%%%%%%%


     Starting wfcs are  337 randomized atomic wfcs
     Checking if some PAW data can be deallocated... 

     total cpu time spent up to now is      352.3 secs

     Self-consistent Calculation

     iteration #  1     ecut=    60.00 Ry     beta= 0.70
     Davidson diagonalization with overlap
     ethr =  1.00E-02,  avg # of iterations =  2.0

     Threshold (ethr) on eigenvalues was too large:
     Diagonalizing with lowered threshold

     Davidson diagonalization with overlap
     ethr =  5.95E-04,  avg # of iterations =  3.8

     negative rho (up, down):  1.387E-02 0.000E+00

     total cpu time spent up to now is     1782.7 secs

     total energy              =  -27859.17277122 Ry
     estimated scf accuracy    <       2.42032608 Ry

     iteration #  2     ecut=    60.00 Ry     beta= 0.70
     Davidson diagonalization with overlap
     ethr =  6.42E-04,  avg # of iterations =  3.0

     negative rho (up, down):  1.227E-02 0.000E+00

     total cpu time spent up to now is     2434.8 secs

     total energy              =  -27859.35614232 Ry
     estimated scf accuracy    <       1.04306024 Ry

     iteration #  3     ecut=    60.00 Ry     beta= 0.70
     Davidson diagonalization with overlap
     ethr =  2.77E-04,  avg # of iterations =  2.0

     negative rho (up, down):  9.431E-03 0.000E+00

     total cpu time spent up to now is     3069.0 secs

     total energy              =  -27859.41358449 Ry
     estimated scf accuracy    <       0.25069389 Ry

     iteration #  4     ecut=    60.00 Ry     beta= 0.70
     Davidson diagonalization with overlap
     ethr =  6.65E-05,  avg # of iterations = 14.2

     negative rho (up, down):  7.908E-03 0.000E+00

     total cpu time spent up to now is     4027.7 secs

     total energy              =  -27859.46672034 Ry
     estimated scf accuracy    <       0.17656453 Ry

     iteration #  5     ecut=    60.00 Ry     beta= 0.70
     Davidson diagonalization with overlap
     ethr =  4.68E-05,  avg # of iterations =  1.3

     negative rho (up, down):  6.276E-03 0.000E+00

     total cpu time spent up to now is     4620.6 secs

     total energy              =  -27859.47042062 Ry
     estimated scf accuracy    <       0.03421688 Ry

     iteration #  6     ecut=    60.00 Ry     beta= 0.70
     Davidson diagonalization with overlap
     c_bands:  1 eigenvalues not converged
     ethr =  9.08E-06,  avg # of iterations = 10.5

     negative rho (up, down):  5.770E-03 0.000E+00

     total cpu time spent up to now is     5443.6 secs

     total energy              =  -27859.47459556 Ry
     estimated scf accuracy    <       0.01874955 Ry

     iteration #  7     ecut=    60.00 Ry     beta= 0.70
     Davidson diagonalization with overlap
     ethr =  4.97E-06,  avg # of iterations =  4.3

     negative rho (up, down):  6.160E-03 0.000E+00

     total cpu time spent up to now is     6086.3 secs

     total energy              =  -27859.47522693 Ry
     estimated scf accuracy    <       0.00710677 Ry

     iteration #  8     ecut=    60.00 Ry     beta= 0.70
     Davidson diagonalization with overlap
     c_bands:  1 eigenvalues not converged
     ethr =  1.89E-06,  avg # of iterations =  8.7

     negative rho (up, down):  6.773E-03 0.000E+00

     total cpu time spent up to now is     6818.2 secs

     total energy              =  -27859.47576651 Ry
     estimated scf accuracy    <       0.00296400 Ry

     iteration #  9     ecut=    60.00 Ry     beta= 0.70
     Davidson diagonalization with overlap
     ethr =  7.86E-07,  avg # of iterations =  4.0

     negative rho (up, down):  8.428E-03 0.000E+00

     total cpu time spent up to now is     7491.1 secs

     total energy              =  -27859.47599102 Ry
     estimated scf accuracy    <       0.00141347 Ry

     iteration # 10     ecut=    60.00 Ry     beta= 0.70
     Davidson diagonalization with overlap
     ethr =  3.75E-07,  avg # of iterations =  5.8

     negative rho (up, down):  9.247E-03 0.000E+00

     total cpu time spent up to now is     8173.0 secs

     total energy              =  -27859.47611227 Ry
     estimated scf accuracy    <       0.00050941 Ry

     iteration # 11     ecut=    60.00 Ry     beta= 0.70
     Davidson diagonalization with overlap
     ethr =  1.35E-07,  avg # of iterations =  4.0

     negative rho (up, down):  9.926E-03 0.000E+00

     total cpu time spent up to now is     8882.9 secs

     total energy              =  -27859.47617927 Ry
     estimated scf accuracy    <       0.00024415 Ry

     iteration # 12     ecut=    60.00 Ry     beta= 0.70
     Davidson diagonalization with overlap
     ethr =  6.48E-08,  avg # of iterations =  2.5

     negative rho (up, down):  1.085E-02 0.000E+00

     total cpu time spent up to now is     9541.9 secs

     total energy              =  -27859.47620389 Ry
     estimated scf accuracy    <       0.00015920 Ry

     iteration # 13     ecut=    60.00 Ry     beta= 0.70
     Davidson diagonalization with overlap
     ethr =  4.22E-08,  avg # of iterations =  2.0

     negative rho (up, down):  1.180E-02 0.000E+00

     total cpu time spent up to now is    10200.3 secs

     total energy              =  -27859.47620877 Ry
     estimated scf accuracy    <       0.00007600 Ry

     iteration # 14     ecut=    60.00 Ry     beta= 0.70
     Davidson diagonalization with overlap
     ethr =  2.02E-08,  avg # of iterations =  2.0

     negative rho (up, down):  1.208E-02 0.000E+00

     total cpu time spent up to now is    10857.7 secs

     total energy              =  -27859.47620981 Ry
     estimated scf accuracy    <       0.00006740 Ry

     iteration # 15     ecut=    60.00 Ry     beta= 0.70
     Davidson diagonalization with overlap
     ethr =  1.79E-08,  avg # of iterations =  1.0

     negative rho (up, down):  1.345E-02 0.000E+00

     total cpu time spent up to now is    11430.7 secs

     total energy              =  -27859.47620263 Ry
     estimated scf accuracy    <       0.00003488 Ry

     iteration # 16     ecut=    60.00 Ry     beta= 0.70
     Davidson diagonalization with overlap
     ethr =  9.25E-09,  avg # of iterations =  2.0

     negative rho (up, down):  1.402E-02 0.000E+00

     total cpu time spent up to now is    12069.6 secs

     total energy              =  -27859.47620299 Ry
     estimated scf accuracy    <       0.00000993 Ry

     iteration # 17     ecut=    60.00 Ry     beta= 0.70
     Davidson diagonalization with overlap
     ethr =  2.63E-09,  avg # of iterations =  4.3

     negative rho (up, down):  1.424E-02 0.000E+00

     total cpu time spent up to now is    12938.1 secs

     total energy              =  -27859.47620641 Ry
     estimated scf accuracy    <       0.00000557 Ry

     iteration # 18     ecut=    60.00 Ry     beta= 0.70
     Davidson diagonalization with overlap
     ethr =  1.48E-09,  avg # of iterations =  2.0

     negative rho (up, down):  1.443E-02 0.000E+00

     total cpu time spent up to now is    13582.9 secs

     total energy              =  -27859.47620646 Ry
     estimated scf accuracy    <       0.00000273 Ry

     iteration # 19     ecut=    60.00 Ry     beta= 0.70
     Davidson diagonalization with overlap
     ethr =  7.25E-10,  avg # of iterations =  2.0

     negative rho (up, down):  1.470E-02 0.000E+00

     total cpu time spent up to now is    14191.1 secs

     End of self-consistent calculation

          k = 0.0000 0.0000 0.0000 ( 91701 PWs)   bands (ev):

   -21.0064 -18.9985  -8.8186  -7.1795  -6.0862  -5.8928  -5.7918  -4.8214
    -4.7876  -4.7720  -4.7687  -4.7587  -4.7463  -4.7405  -4.7390  -4.5453
    -4.2229  -4.2181  -4.2067  -4.2019  -4.2003  -4.1917  -3.7660  -3.7464
    -3.7404  -3.7329  -3.7290  -3.7266  -3.5440  -3.5263  -3.5239  -3.5147
    -3.5113  -3.4918  -3.3091  -3.3029  -3.2981  -3.2958  -3.2916  -3.2885
    -3.2828  -3.2744  -3.2658  -3.2646  -3.2472  -3.2263  -2.7144  -2.7053
    -2.6750  -2.6643  -2.6489  -2.6436  -2.6062  -2.5989  -2.5939  -2.5900
    -2.4680  -2.4373  -2.3852  -2.3561  -2.1789  -1.9929  -1.9284  -1.8637
    -1.8478  -1.8269  -1.8199  -1.7751  -1.7648  -1.6916  -1.6813  -1.6727
    -1.6676  -1.6492  -1.6466  -1.6376  -1.6354  -1.6200  -1.6090  -1.6005
    -1.5988  -1.5735  -1.5711  -1.5098  -1.4877  -1.4444  -1.4249  -1.4227
    -1.4098  -1.3390  -1.3108  -1.2905  -1.2688  -1.2588  -1.2468  -1.2285
    -1.2102  -1.1932  -1.1897  -1.0932  -1.0927  -1.0897  -1.0351  -0.9964
    -0.9919  -0.9588  -0.9521  -0.9456  -0.8356  -0.8191  -0.8090  -0.7933
    -0.7814  -0.7698  -0.6578  -0.4925  -0.3479  -0.3343  -0.3292  -0.3270
    -0.3079  -0.2993  -0.2737  -0.2304  -0.2214  -0.2030  -0.1847  -0.1750
    -0.1571  -0.1425  -0.0229   0.0034   0.0192   0.0451   0.0671   0.1046
     0.1493   0.1561   0.1649   0.1832   0.1858   0.1870   0.3937   0.4152
     0.4229   0.4289   0.4308   0.4377   0.4957   0.4971   0.6856   0.6895
     0.6964   0.7025   0.7248   0.7445   0.8134   0.8281   0.8608   0.8654
     0.8793   0.8811   0.8992   0.9083   0.9220   0.9233   0.9611   0.9892
     1.0035   1.0224   1.0334   1.0375   1.0474   1.0562   1.1063   1.1146
     1.1201   1.1314   1.1335   1.1527   1.1581   1.1883   1.1993   1.2267
     1.2523   1.2569   1.2597   1.2792   1.2885   1.2989   1.3647   1.3702
     1.3747   1.3968   1.3980   1.4694   1.5749   1.6061   1.6745   1.6972
     1.6989   1.7159   1.7201   1.7226   1.8219   2.5397   2.5947   2.6164
     2.6186   2.6335   2.9272   3.4882   4.9048   4.9166   4.9417   4.9621
     5.2440   5.3492   5.4739   6.1138   6.4673   6.4738   6.5003   6.5133
     6.5195   6.5301   6.5428

          k = 0.0000 0.2309 0.0000 ( 91602 PWs)   bands (ev):

   -21.0064 -18.9985  -8.8179  -7.0334  -6.0861  -5.8129  -5.7287  -5.2792
    -4.8725  -4.8703  -4.6837  -4.6235  -4.5940  -4.5413  -4.5205  -4.5071
    -4.3312  -4.2942  -4.1548  -4.1404  -4.1231  -4.1194  -3.8436  -3.7213
    -3.7146  -3.7025  -3.6885  -3.6201  -3.6180  -3.5594  -3.5578  -3.5428
    -3.5320  -3.4810  -3.4319  -3.4309  -3.3332  -3.3208  -3.3026  -3.2729
    -3.2661  -3.1105  -3.0871  -3.0829  -3.0676  -3.0432  -2.8146  -2.8114
    -2.7801  -2.7396  -2.7367  -2.7052  -2.6958  -2.5284  -2.5206  -2.4463
    -2.4438  -2.4009  -2.3728  -2.3570  -2.2349  -2.1063  -2.0707  -2.0514
    -2.0102  -1.9404  -1.9190  -1.9167  -1.8591  -1.8410  -1.8245  -1.8114
    -1.7732  -1.7583  -1.7516  -1.6823  -1.6724  -1.6580  -1.6457  -1.5957
    -1.5707  -1.5511  -1.5168  -1.4877  -1.4734  -1.4181  -1.3966  -1.3745
    -1.3679  -1.3462  -1.3369  -1.2805  -1.2710  -1.2481  -1.2467  -1.2217
    -1.1981  -1.1450  -1.1367  -1.1219  -1.0927  -1.0820  -1.0607  -1.0275
    -1.0089  -0.9911  -0.9854  -0.9565  -0.8717  -0.8302  -0.8273  -0.8073
    -0.7761  -0.7640  -0.7470  -0.7362  -0.7181  -0.6941  -0.6927  -0.5622
    -0.5534  -0.3927  -0.3860  -0.3381  -0.2985  -0.2892  -0.2704  -0.2556
    -0.2392  -0.2263  -0.0984  -0.0612  -0.0531   0.0431   0.0849   0.0919
     0.0936   0.1120   0.1850   0.1877   0.2162   0.2343   0.2762   0.2994
     0.3003   0.3336   0.3478   0.4963   0.5014   0.5293   0.5559   0.5620
     0.5909   0.6353   0.6861   0.7092   0.7154   0.7304   0.7759   0.7835
     0.8039   0.8211   0.8460   0.9305   0.9424   0.9879   0.9895   1.0515
     1.0683   1.0902   1.0932   1.1245   1.1409   1.1695   1.2203   1.2397
     1.2569   1.3039   1.3067   1.3150   1.3482   1.3562   1.3619   1.3666
     1.4049   1.4275   1.4912   1.5092   1.5710   1.5886   1.6068   1.6179
     1.6460   1.6607   1.6802   1.7095   1.7144   1.7445   1.8217   1.8268
     1.8516   1.9994   2.0101   2.0151   2.0453   2.3455   2.6200   2.6609
     3.2044   3.2954   3.3342   3.6764   4.4050   4.7888   4.8278   5.2932
     5.3292   5.3524   5.5775   5.6539   5.9354   6.2240   6.3221   6.3310
     6.6037   6.6914   6.7020

          k = 0.0000 0.4619 0.0000 ( 91668 PWs)   bands (ev):

   -21.0064 -18.9985  -8.8169  -6.6126  -6.0860  -5.9813  -5.7998  -5.3359
    -4.9050  -4.9031  -4.7926  -4.5890  -4.5224  -4.3812  -4.2692  -4.2315
    -4.1832  -4.1809  -4.0197  -4.0024  -3.9686  -3.9672  -3.9523  -3.8489
    -3.8042  -3.8014  -3.7563  -3.7479  -3.7159  -3.6765  -3.6134  -3.6105
    -3.6007  -3.3536  -3.3493  -3.3408  -3.3370  -3.3197  -3.3080  -3.1054
    -3.0880  -3.0666  -3.0536  -3.0457  -3.0316  -2.8666  -2.7848  -2.7662
    -2.7471  -2.7384  -2.7069  -2.7053  -2.6408  -2.6055  -2.6048  -2.5543
    -2.5506  -2.4366  -2.4297  -2.3697  -2.3616  -2.2881  -2.2268  -2.2202
    -2.1857  -2.1664  -2.0575  -2.0041  -1.9723  -1.9550  -1.9393  -1.9270
    -1.8913  -1.8540  -1.8346  -1.7948  -1.7325  -1.7042  -1.6627  -1.6561
    -1.6130  -1.5742  -1.5593  -1.5539  -1.5453  -1.4923  -1.4885  -1.4527
    -1.4484  -1.4372  -1.4350  -1.4221  -1.3912  -1.3493  -1.3333  -1.2906
    -1.2834  -1.2638  -1.2339  -1.2188  -1.1385  -1.1296  -1.1041  -1.0720
    -1.0162  -1.0140  -0.9894  -0.9595  -0.9576  -0.9086  -0.8956  -0.8306
    -0.8040  -0.7799  -0.7167  -0.7111  -0.6999  -0.5481  -0.5258  -0.5206
    -0.4718  -0.4028  -0.3825  -0.3759  -0.3490  -0.3307  -0.3153  -0.2768
    -0.2581  -0.2376  -0.2302  -0.2141  -0.1873  -0.1801  -0.1514  -0.1247
    -0.1214  -0.0446  -0.0102   0.0160   0.0366   0.0886   0.1859   0.1939
     0.2217   0.3219   0.3345   0.4119   0.4892   0.4908   0.5062   0.5415
     0.5644   0.5720   0.5928   0.6504   0.6708   0.6903   0.7238   0.7417
     0.8318   0.8383   0.8386   0.8662   0.8836   0.8962   0.9838   1.0712
     1.1124   1.1203   1.1370   1.1491   1.1654   1.2482   1.2665   1.2930
     1.3702   1.3769   1.4123   1.4298   1.4496   1.4564   1.4918   1.5328
     1.5909   1.6007   1.6122   1.6146   1.6366   1.6610   1.7042   1.8178
     1.8310   1.8589   1.8662   1.9413   1.9976   2.0267   2.0880   2.5184
     2.5612   2.6401   2.9028   2.9043   2.9878   3.3104   3.3109   3.6343
     3.6881   4.1123   4.1166   4.1580   4.3572   4.4434   4.4731   4.7101
     4.7405   4.8321   4.8449   5.2966   5.4966   5.6519   6.0162   6.0487
     6.4875   6.5606   6.5685

          k = 0.2000-0.1155 0.0000 ( 91602 PWs)   bands (ev):

   -21.0064 -18.9985  -8.8174  -7.0343  -6.0938  -5.8105  -5.7246  -5.2682
    -4.8842  -4.8691  -4.6758  -4.6210  -4.5832  -4.5551  -4.5231  -4.5044
    -4.3206  -4.2995  -4.1515  -4.1451  -4.1279  -4.1223  -3.8458  -3.7221
    -3.7100  -3.6920  -3.6861  -3.6278  -3.6153  -3.5684  -3.5547  -3.5407
    -3.5313  -3.4764  -3.4427  -3.4275  -3.3317  -3.3186  -3.3060  -3.2770
    -3.2716  -3.1030  -3.0923  -3.0846  -3.0725  -3.0453  -2.8263  -2.8098
    -2.7865  -2.7418  -2.7286  -2.6984  -2.6814  -2.5404  -2.5009  -2.4534
    -2.4369  -2.4120  -2.3721  -2.3550  -2.2388  -2.1141  -2.0496  -2.0397
    -2.0143  -1.9731  -1.9485  -1.8852  -1.8681  -1.8389  -1.8224  -1.8142
    -1.7862  -1.7586  -1.7458  -1.7138  -1.6608  -1.6493  -1.6240  -1.5824
    -1.5664  -1.5478  -1.5133  -1.4944  -1.4765  -1.4468  -1.3939  -1.3775
    -1.3744  -1.3561  -1.3279  -1.2780  -1.2678  -1.2610  -1.2531  -1.2150
    -1.1712  -1.1526  -1.1345  -1.1237  -1.0965  -1.0851  -1.0565  -1.0308
    -1.0115  -0.9923  -0.9831  -0.9336  -0.8621  -0.8429  -0.8043  -0.7963
    -0.7802  -0.7781  -0.7544  -0.7187  -0.7064  -0.6980  -0.6869  -0.5731
    -0.5314  -0.4155  -0.3931  -0.3395  -0.2989  -0.2805  -0.2753  -0.2565
    -0.2450  -0.2193  -0.0954  -0.0886  -0.0463   0.0488   0.0723   0.0858
     0.1063   0.1233   0.1786   0.1955   0.2129   0.2295   0.2685   0.3002
     0.3100   0.3348   0.3393   0.5018   0.5107   0.5348   0.5546   0.5662
     0.6013   0.6235   0.6881   0.7032   0.7112   0.7276   0.7697   0.7866
     0.8044   0.8222   0.8584   0.9285   0.9451   0.9820   1.0028   1.0660
     1.0765   1.0919   1.1033   1.1139   1.1331   1.1535   1.2235   1.2378
     1.2598   1.2979   1.3089   1.3267   1.3383   1.3578   1.3659   1.3697
     1.4019   1.4221   1.4816   1.5139   1.5816   1.5989   1.6063   1.6131
     1.6348   1.6523   1.6737   1.6949   1.7204   1.7251   1.8169   1.8231
     1.8498   1.9950   2.0092   2.0201   2.1505   2.2588   2.5349   2.7608
     3.1956   3.2416   3.3864   3.7430   4.3101   4.7086   4.9580   5.2757
     5.3324   5.3646   5.5550   5.6828   5.9306   6.2184   6.3235   6.3409
     6.6614   6.7005   6.7162

          k = 0.2000 0.1155 0.0000 ( 91602 PWs)   bands (ev):

   -21.0064 -18.9985  -8.8174  -7.0343  -6.0938  -5.8105  -5.7246  -5.2684
    -4.8842  -4.8687  -4.6758  -4.6210  -4.5831  -4.5560  -4.5231  -4.5038
    -4.3207  -4.2992  -4.1513  -4.1450  -4.1280  -4.1228  -3.8452  -3.7223
    -3.7096  -3.6933  -3.6854  -3.6284  -3.6146  -3.5690  -3.5546  -3.5411
    -3.5313  -3.4768  -3.4431  -3.4268  -3.3319  -3.3188  -3.3061  -3.2772
    -3.2709  -3.1030  -3.0927  -3.0849  -3.0712  -3.0448  -2.8258  -2.8077
    -2.7870  -2.7427  -2.7300  -2.6991  -2.6808  -2.5421  -2.5000  -2.4543
    -2.4362  -2.4101  -2.3731  -2.3557  -2.2372  -2.1141  -2.0477  -2.0394
    -2.0149  -1.9720  -1.9472  -1.8877  -1.8690  -1.8386  -1.8222  -1.8153
    -1.7879  -1.7591  -1.7454  -1.7109  -1.6584  -1.6493  -1.6242  -1.5857
    -1.5679  -1.5475  -1.5128  -1.4947  -1.4767  -1.4477  -1.3938  -1.3771
    -1.3738  -1.3556  -1.3264  -1.2778  -1.2687  -1.2603  -1.2529  -1.2157
    -1.1734  -1.1516  -1.1341  -1.1231  -1.0966  -1.0845  -1.0563  -1.0313
    -1.0115  -0.9904  -0.9842  -0.9342  -0.8627  -0.8435  -0.8041  -0.7975
    -0.7809  -0.7754  -0.7555  -0.7207  -0.7062  -0.6976  -0.6871  -0.5700
    -0.5318  -0.4153  -0.3942  -0.3397  -0.2990  -0.2791  -0.2733  -0.2561
    -0.2458  -0.2196  -0.0965  -0.0887  -0.0474   0.0486   0.0726   0.0854
     0.1064   0.1223   0.1791   0.1939   0.2115   0.2297   0.2685   0.3012
     0.3102   0.3347   0.3393   0.4999   0.5104   0.5346   0.5542   0.5657
     0.6016   0.6240   0.6887   0.7026   0.7117   0.7278   0.7714   0.7863
     0.8052   0.8218   0.8589   0.9287   0.9453   0.9825   1.0023   1.0648
     1.0784   1.0918   1.1029   1.1133   1.1330   1.1532   1.2237   1.2382
     1.2587   1.2975   1.3088   1.3257   1.3392   1.3580   1.3657   1.3683
     1.4027   1.4224   1.4839   1.5128   1.5824   1.5985   1.6067   1.6135
     1.6356   1.6525   1.6744   1.6949   1.7201   1.7258   1.8167   1.8230
     1.8492   1.9951   2.0095   2.0200   2.1502   2.2592   2.5348   2.7605
     3.1952   3.2417   3.3871   3.7421   4.3092   4.7090   4.9590   5.2758
     5.3323   5.3645   5.5553   5.6829   5.9300   6.2183   6.3234   6.3407
     6.6597   6.7011   6.7157

          k = 0.2000 0.3464 0.0000 ( 91638 PWs)   bands (ev):

   -21.0064 -18.9985  -8.8167  -6.7504  -6.0952  -5.8049  -5.5261  -5.5072
    -5.4587  -4.5894  -4.4535  -4.4460  -4.4228  -4.4102  -4.3839  -4.3717
    -4.3618  -4.3586  -4.2588  -4.2495  -3.8858  -3.8759  -3.8615  -3.8574
    -3.8005  -3.7731  -3.6415  -3.6232  -3.6153  -3.6053  -3.5960  -3.5177
    -3.4665  -3.4607  -3.4458  -3.4378  -3.3748  -3.3464  -3.3379  -3.3007
    -3.2811  -3.2181  -2.9658  -2.8843  -2.8617  -2.8451  -2.8257  -2.8128
    -2.8066  -2.7989  -2.7391  -2.7294  -2.6137  -2.5726  -2.5658  -2.4875
    -2.4719  -2.4346  -2.3912  -2.3785  -2.3266  -2.2952  -2.2040  -2.1518
    -2.1174  -2.0737  -2.0354  -2.0005  -1.9912  -1.9734  -1.9330  -1.9041
    -1.8727  -1.8372  -1.8071  -1.7362  -1.7200  -1.7074  -1.6833  -1.6532
    -1.6256  -1.5952  -1.5786  -1.5528  -1.5307  -1.4486  -1.4346  -1.4238
    -1.4035  -1.3906  -1.3789  -1.3602  -1.3363  -1.3285  -1.2808  -1.2473
    -1.2246  -1.1868  -1.1624  -1.1559  -1.1142  -1.0811  -1.0590  -1.0405
    -1.0236  -0.9986  -0.9889  -0.9724  -0.9604  -0.9370  -0.9271  -0.9112
    -0.8919  -0.8516  -0.8027  -0.7797  -0.7276  -0.6894  -0.6573  -0.6293
    -0.6008  -0.5691  -0.4548  -0.4354  -0.3222  -0.3025  -0.2769  -0.2567
    -0.2414  -0.2168  -0.1984  -0.1807  -0.1608  -0.1448  -0.1033  -0.0748
    -0.0513   0.0467   0.1354   0.1458   0.1593   0.1778   0.2232   0.2396
     0.2618   0.3633   0.3765   0.3904   0.4353   0.4396   0.4962   0.5700
     0.5886   0.6062   0.6228   0.6635   0.6794   0.6897   0.6950   0.7182
     0.7196   0.7356   0.7600   0.8059   0.9052   0.9320   1.0076   1.0600
     1.1086   1.1305   1.2429   1.2479   1.2751   1.3075   1.3664   1.3811
     1.3968   1.4123   1.4234   1.4439   1.4482   1.4715   1.4961   1.5100
     1.5259   1.5477   1.6095   1.6342   1.6533   1.6699   1.6888   1.7123
     1.7430   1.8715   1.9123   1.9268   1.9781   1.9960   2.0683   2.1250
     2.1568   2.2489   2.6585   2.6740   2.8524   3.2018   3.2135   3.3382
     3.3611   3.9272   4.0242   4.1297   4.1579   4.2360   4.5641   4.8637
     5.3127   5.3341   5.4684   5.5277   5.5755   6.0667   6.1447   6.1658
     6.1987   6.2821   6.4173

          k = 0.2000-0.5774 0.0000 ( 91590 PWs)   bands (ev):

   -21.0064 -18.9985  -8.8162  -6.2320  -6.2142  -6.0833  -5.8005  -5.5881
    -4.9859  -4.9615  -4.5658  -4.4429  -4.4390  -4.3013  -4.2751  -4.1651
    -4.1570  -4.0658  -4.0541  -3.9541  -3.9440  -3.9222  -3.9020  -3.8809
    -3.8769  -3.8678  -3.7480  -3.7260  -3.7081  -3.6883  -3.6784  -3.6055
    -3.5138  -3.4699  -3.4177  -3.3348  -3.3139  -3.3110  -3.3009  -3.2717
    -3.1898  -3.1729  -3.0817  -3.0751  -2.9014  -2.8831  -2.8512  -2.7865
    -2.7644  -2.7046  -2.6769  -2.6080  -2.5447  -2.5097  -2.4928  -2.4749
    -2.4269  -2.3866  -2.3798  -2.3208  -2.3173  -2.2682  -2.2538  -2.2442
    -2.2353  -2.2172  -2.1749  -2.1445  -2.0609  -2.0184  -2.0132  -1.9772
    -1.9092  -1.8896  -1.8689  -1.8377  -1.7955  -1.7819  -1.7413  -1.7169
    -1.7033  -1.6491  -1.6368  -1.5941  -1.5779  -1.5555  -1.5327  -1.5108
    -1.4729  -1.4709  -1.4011  -1.3722  -1.3637  -1.3201  -1.2514  -1.2220
    -1.1978  -1.1910  -1.1588  -1.1433  -1.1093  -1.1005  -1.0798  -1.0637
    -1.0560  -1.0378  -0.9949  -0.9826  -0.9682  -0.9593  -0.9475  -0.9303
    -0.9161  -0.9045  -0.8694  -0.8383  -0.8027  -0.7319  -0.6255  -0.5809
    -0.5492  -0.5284  -0.4333  -0.4211  -0.3993  -0.3542  -0.3325  -0.3091
    -0.2980  -0.2906  -0.2660  -0.1943  -0.1834  -0.1579  -0.1147  -0.0924
    -0.0437  -0.0189   0.0297   0.1007   0.1655   0.2104   0.2395   0.2482
     0.2751   0.3325   0.3595   0.3720   0.3810   0.4008   0.4405   0.4511
     0.4872   0.5528   0.5847   0.6004   0.6155   0.6292   0.6429   0.6720
     0.6926   0.7526   0.8201   0.9002   0.9364   0.9903   1.0704   1.0879
     1.1002   1.1613   1.2101   1.2132   1.2732   1.3367   1.3811   1.3973
     1.4198   1.4323   1.4511   1.4612   1.5058   1.5261   1.5849   1.5975
     1.6072   1.6266   1.6431   1.6456   1.7167   1.7270   1.8342   1.8465
     1.8578   1.8679   1.9068   1.9210   2.0254   2.0566   2.1943   2.3018
     3.0080   3.0138   3.2124   3.3203   3.4089   3.4115   3.4253   3.6823
     4.0003   4.0321   4.0463   4.4592   4.5283   4.6176   4.6439   4.6647
     4.8382   4.9092   5.0257   5.3248   5.4223   5.4350   5.4900   5.6323
     6.0932   6.1074   6.1243

          k = 0.2000-0.3464 0.0000 ( 91638 PWs)   bands (ev):

   -21.0064 -18.9985  -8.8167  -6.7504  -6.0952  -5.8049  -5.5255  -5.5076
    -5.4587  -4.5895  -4.4535  -4.4450  -4.4223  -4.4108  -4.3838  -4.3729
    -4.3619  -4.3584  -4.2592  -4.2494  -3.8851  -3.8757  -3.8626  -3.8574
    -3.7994  -3.7737  -3.6419  -3.6230  -3.6142  -3.6051  -3.5966  -3.5181
    -3.4654  -3.4620  -3.4460  -3.4370  -3.3749  -3.3456  -3.3376  -3.3002
    -3.2814  -3.2179  -2.9653  -2.8885  -2.8614  -2.8461  -2.8266  -2.8118
    -2.8062  -2.7991  -2.7390  -2.7279  -2.6114  -2.5729  -2.5663  -2.4877
    -2.4727  -2.4352  -2.3908  -2.3779  -2.3277  -2.2949  -2.2039  -2.1519
    -2.1185  -2.0757  -2.0376  -2.0009  -1.9877  -1.9738  -1.9318  -1.9036
    -1.8724  -1.8379  -1.8079  -1.7368  -1.7186  -1.7075  -1.6834  -1.6538
    -1.6240  -1.5957  -1.5778  -1.5550  -1.5290  -1.4485  -1.4354  -1.4238
    -1.4033  -1.3895  -1.3794  -1.3622  -1.3359  -1.3276  -1.2803  -1.2467
    -1.2251  -1.1862  -1.1618  -1.1581  -1.1131  -1.0803  -1.0583  -1.0396
    -1.0224  -0.9976  -0.9898  -0.9744  -0.9597  -0.9372  -0.9269  -0.9113
    -0.8913  -0.8520  -0.8043  -0.7803  -0.7267  -0.6897  -0.6571  -0.6319
    -0.6008  -0.5657  -0.4561  -0.4352  -0.3209  -0.3028  -0.2768  -0.2562
    -0.2417  -0.2181  -0.1979  -0.1812  -0.1606  -0.1444  -0.1048  -0.0737
    -0.0503   0.0474   0.1359   0.1455   0.1594   0.1780   0.2214   0.2421
     0.2618   0.3621   0.3777   0.3920   0.4352   0.4382   0.4967   0.5706
     0.5881   0.6055   0.6220   0.6643   0.6800   0.6898   0.6945   0.7179
     0.7208   0.7351   0.7591   0.8052   0.9055   0.9324   1.0060   1.0606
     1.1082   1.1312   1.2431   1.2477   1.2758   1.3088   1.3664   1.3808
     1.3966   1.4117   1.4236   1.4439   1.4479   1.4717   1.4961   1.5086
     1.5249   1.5480   1.6091   1.6348   1.6535   1.6691   1.6886   1.7116
     1.7438   1.8712   1.9125   1.9262   1.9772   1.9962   2.0699   2.1243
     2.1567   2.2497   2.6582   2.6743   2.8523   3.2017   3.2133   3.3396
     3.3598   3.9276   4.0238   4.1296   4.1583   4.2356   4.5644   4.8634
     5.3123   5.3347   5.4682   5.5273   5.5753   6.0670   6.1435   6.1657
     6.1993   6.2828   6.4175

          k = 0.4000-0.2309 0.0000 ( 91668 PWs)   bands (ev):

   -21.0064 -18.9985  -8.8157  -6.6185  -6.1245  -5.9376  -5.8007  -5.3246
    -4.9178  -4.9026  -4.7727  -4.5667  -4.5277  -4.3901  -4.2759  -4.2335
    -4.1864  -4.1814  -4.0168  -4.0137  -3.9729  -3.9612  -3.9542  -3.8470
    -3.8032  -3.7996  -3.7562  -3.7468  -3.7069  -3.6738  -3.6170  -3.6088
    -3.5982  -3.3592  -3.3497  -3.3408  -3.3332  -3.3296  -3.3141  -3.1158
    -3.0924  -3.0667  -3.0606  -3.0463  -3.0352  -2.8937  -2.7874  -2.7664
    -2.7475  -2.7393  -2.7030  -2.6868  -2.6427  -2.6171  -2.5930  -2.5592
    -2.5403  -2.4285  -2.4093  -2.3782  -2.3542  -2.2987  -2.2343  -2.2007
    -2.1876  -2.1661  -2.0851  -2.0244  -2.0031  -1.9468  -1.9403  -1.9022
    -1.8686  -1.8541  -1.8255  -1.8040  -1.7463  -1.6957  -1.6872  -1.6671
    -1.5994  -1.5736  -1.5508  -1.5447  -1.5344  -1.5136  -1.4734  -1.4561
    -1.4468  -1.4421  -1.4303  -1.4045  -1.3942  -1.3523  -1.3388  -1.2943
    -1.2911  -1.2665  -1.2491  -1.2188  -1.1613  -1.1283  -1.1123  -1.0681
    -1.0181  -0.9967  -0.9767  -0.9611  -0.9562  -0.8878  -0.8705  -0.8293
    -0.8072  -0.7518  -0.7417  -0.7018  -0.6784  -0.5628  -0.5524  -0.4920
    -0.4738  -0.4223  -0.3832  -0.3696  -0.3492  -0.3358  -0.3312  -0.3057
    -0.2665  -0.2388  -0.2274  -0.2104  -0.1833  -0.1625  -0.1581  -0.1236
    -0.0951  -0.0248  -0.0080   0.0197   0.0606   0.0892   0.1845   0.1915
     0.2227   0.3238   0.3300   0.4260   0.4605   0.4943   0.5065   0.5346
     0.5505   0.5832   0.5932   0.6506   0.6712   0.6976   0.7327   0.7409
     0.8206   0.8424   0.8514   0.8632   0.8856   0.9082   0.9998   1.0776
     1.0838   1.1227   1.1315   1.1457   1.1582   1.2497   1.2636   1.3007
     1.3669   1.3715   1.4089   1.4320   1.4590   1.4649   1.4817   1.5469
     1.5806   1.6025   1.6115   1.6162   1.6321   1.6403   1.7018   1.8149
     1.8246   1.8544   1.8688   1.9214   1.9948   2.0263   2.0874   2.5202
     2.5629   2.6301   2.8953   2.9097   3.0551   3.2985   3.3257   3.6358
     3.6827   4.1120   4.1198   4.1666   4.3262   4.4266   4.4676   4.6238
     4.7670   4.7989   4.9780   5.3266   5.4495   5.5994   5.9941   6.0742
     6.4796   6.5371   6.6084

          k = 0.4000-0.0000 0.0000 ( 91638 PWs)   bands (ev):

   -21.0064 -18.9985  -8.8159  -6.7540  -6.0994  -5.8039  -5.5387  -5.4928
    -5.4477  -4.5756  -4.4526  -4.4362  -4.4185  -4.4096  -4.3974  -4.3889
    -4.3598  -4.3501  -4.2634  -4.2524  -3.8877  -3.8709  -3.8624  -3.8571
    -3.7966  -3.7808  -3.6364  -3.6221  -3.6129  -3.6017  -3.5998  -3.5186
    -3.4813  -3.4529  -3.4419  -3.4348  -3.3807  -3.3484  -3.3336  -3.3060
    -3.2929  -3.2107  -2.9633  -2.8958  -2.8627  -2.8568  -2.8407  -2.8186
    -2.8072  -2.7951  -2.7385  -2.7182  -2.5911  -2.5837  -2.5635  -2.4833
    -2.4592  -2.4214  -2.3936  -2.3782  -2.3332  -2.2993  -2.2006  -2.1556
    -2.1355  -2.0745  -2.0604  -2.0089  -1.9874  -1.9821  -1.9310  -1.9010
    -1.8711  -1.8279  -1.7999  -1.7416  -1.7162  -1.7089  -1.6816  -1.6523
    -1.6313  -1.5916  -1.5829  -1.5802  -1.5102  -1.4508  -1.4338  -1.4226
    -1.3968  -1.3931  -1.3841  -1.3576  -1.3513  -1.3257  -1.2762  -1.2488
    -1.2048  -1.1832  -1.1686  -1.1401  -1.1035  -1.0721  -1.0524  -1.0342
    -1.0247  -1.0024  -0.9765  -0.9631  -0.9584  -0.9457  -0.9137  -0.8949
    -0.8717  -0.8589  -0.8453  -0.7808  -0.7397  -0.7092  -0.6508  -0.6265
    -0.5965  -0.5581  -0.4645  -0.4336  -0.3215  -0.2978  -0.2653  -0.2519
    -0.2462  -0.2342  -0.2061  -0.1806  -0.1714  -0.1498  -0.1006  -0.0807
    -0.0526   0.0549   0.1245   0.1413   0.1514   0.1958   0.2315   0.2516
     0.2646   0.3446   0.3742   0.3981   0.4351   0.4465   0.5137   0.5663
     0.5876   0.6105   0.6439   0.6634   0.6777   0.6831   0.6930   0.7113
     0.7145   0.7437   0.7764   0.7888   0.9163   0.9494   0.9997   1.0530
     1.0705   1.1621   1.2406   1.2564   1.2719   1.2896   1.3651   1.3730
     1.3889   1.4056   1.4315   1.4475   1.4567   1.4651   1.4986   1.5128
     1.5290   1.5495   1.6103   1.6241   1.6568   1.6659   1.6782   1.7347
     1.7566   1.8640   1.9060   1.9222   1.9734   1.9936   2.0129   2.1272
     2.1505   2.3293   2.6576   2.6921   2.7957   3.1880   3.2225   3.2601
     3.4595   3.9335   4.0296   4.1249   4.1966   4.3189   4.4339   4.8536
     5.2375   5.3396   5.4101   5.6015   5.6580   6.0619   6.1404   6.1772
     6.1977   6.3365   6.4214

          k = 0.4000 0.2309 0.0000 ( 91668 PWs)   bands (ev):

   -21.0064 -18.9985  -8.8157  -6.6185  -6.1245  -5.9376  -5.8008  -5.3246
    -4.9178  -4.9024  -4.7726  -4.5661  -4.5294  -4.3898  -4.2761  -4.2337
    -4.1865  -4.1804  -4.0171  -4.0131  -3.9731  -3.9616  -3.9538  -3.8473
    -3.8034  -3.7992  -3.7568  -3.7462  -3.7070  -3.6743  -3.6173  -3.6085
    -3.5992  -3.3607  -3.3487  -3.3402  -3.3328  -3.3287  -3.3152  -3.1157
    -3.0923  -3.0663  -3.0599  -3.0467  -3.0346  -2.8921  -2.7873  -2.7677
    -2.7473  -2.7391  -2.7032  -2.6871  -2.6422  -2.6168  -2.5932  -2.5598
    -2.5407  -2.4275  -2.4098  -2.3787  -2.3540  -2.2971  -2.2333  -2.2012
    -2.1860  -2.1667  -2.0853  -2.0239  -2.0020  -1.9489  -1.9390  -1.9057
    -1.8677  -1.8527  -1.8237  -1.8007  -1.7477  -1.6957  -1.6878  -1.6681
    -1.6032  -1.5731  -1.5502  -1.5437  -1.5352  -1.5132  -1.4741  -1.4554
    -1.4472  -1.4422  -1.4293  -1.4044  -1.3959  -1.3528  -1.3382  -1.2937
    -1.2916  -1.2666  -1.2494  -1.2202  -1.1580  -1.1279  -1.1127  -1.0681
    -1.0173  -0.9976  -0.9774  -0.9625  -0.9550  -0.8913  -0.8705  -0.8296
    -0.8070  -0.7525  -0.7417  -0.7010  -0.6798  -0.5627  -0.5524  -0.4912
    -0.4737  -0.4229  -0.3826  -0.3703  -0.3504  -0.3356  -0.3289  -0.3003
    -0.2667  -0.2390  -0.2267  -0.2096  -0.1841  -0.1624  -0.1590  -0.1240
    -0.0949  -0.0265  -0.0087   0.0188   0.0588   0.0890   0.1845   0.1900
     0.2221   0.3226   0.3308   0.4280   0.4603   0.4933   0.5061   0.5336
     0.5495   0.5836   0.5931   0.6503   0.6723   0.6980   0.7335   0.7417
     0.8213   0.8419   0.8510   0.8629   0.8848   0.9065   1.0019   1.0778
     1.0836   1.1239   1.1303   1.1471   1.1577   1.2501   1.2638   1.3001
     1.3670   1.3710   1.4111   1.4317   1.4584   1.4647   1.4808   1.5465
     1.5812   1.6021   1.6124   1.6166   1.6322   1.6411   1.7015   1.8152
     1.8249   1.8549   1.8686   1.9213   1.9950   2.0264   2.0874   2.5192
     2.5640   2.6313   2.8952   2.9095   3.0547   3.2988   3.3261   3.6360
     3.6821   4.1122   4.1199   4.1679   4.3257   4.4261   4.4664   4.6242
     4.7671   4.7988   4.9792   5.3265   5.4501   5.5987   5.9938   6.0741
     6.4797   6.5372   6.6081

          k = 0.4000-0.6928 0.0000 ( 91590 PWs)   bands (ev):

   -21.0064 -18.9985  -8.8154  -6.2685  -6.2164  -6.0364  -5.8026  -5.5998
    -4.9699  -4.9537  -4.5720  -4.4431  -4.4334  -4.3100  -4.2750  -4.1671
    -4.1622  -4.0602  -4.0518  -3.9502  -3.9444  -3.9278  -3.8946  -3.8864
    -3.8758  -3.8688  -3.7455  -3.7249  -3.7209  -3.6839  -3.6775  -3.5993
    -3.5089  -3.4731  -3.4199  -3.3306  -3.3238  -3.3139  -3.2969  -3.2783
    -3.1953  -3.1785  -3.0815  -3.0701  -2.9140  -2.8877  -2.8693  -2.7759
    -2.7521  -2.6990  -2.6851  -2.6020  -2.5415  -2.5019  -2.4937  -2.4693
    -2.4371  -2.3995  -2.3799  -2.3293  -2.2921  -2.2719  -2.2450  -2.2411
    -2.2327  -2.2186  -2.1624  -2.1560  -2.1109  -2.0247  -1.9978  -1.9655
    -1.9216  -1.8905  -1.8556  -1.8236  -1.7919  -1.7749  -1.7529  -1.7256
    -1.6878  -1.6683  -1.6354  -1.5986  -1.5864  -1.5651  -1.5296  -1.5182
    -1.4770  -1.4216  -1.3990  -1.3686  -1.3568  -1.3372  -1.2688  -1.2357
    -1.1906  -1.1797  -1.1521  -1.1404  -1.1090  -1.0972  -1.0831  -1.0605
    -1.0490  -1.0272  -1.0019  -0.9934  -0.9739  -0.9545  -0.9483  -0.9242
    -0.9151  -0.9051  -0.8853  -0.8387  -0.8048  -0.7281  -0.6095  -0.5896
    -0.5433  -0.5267  -0.4335  -0.4149  -0.4043  -0.3698  -0.3239  -0.3205
    -0.3019  -0.2859  -0.2648  -0.2032  -0.1721  -0.1520  -0.0965  -0.0844
    -0.0464  -0.0169   0.0195   0.1103   0.1545   0.2238   0.2399   0.2599
     0.2755   0.3365   0.3458   0.3645   0.3882   0.4058   0.4374   0.4550
     0.4755   0.5464   0.5782   0.5919   0.6224   0.6369   0.6467   0.6738
     0.6949   0.7588   0.8145   0.9145   0.9374   1.0013   1.0440   1.0765
     1.0884   1.1620   1.2164   1.2303   1.2702   1.3578   1.3630   1.3853
     1.4188   1.4330   1.4583   1.4730   1.4845   1.5427   1.5602   1.5938
     1.6030   1.6288   1.6489   1.6564   1.7079   1.7640   1.8251   1.8371
     1.8656   1.8684   1.9016   1.9245   1.9901   2.0582   2.1789   2.3179
     3.0095   3.0113   3.2742   3.3216   3.3977   3.4088   3.4599   3.5802
     4.0083   4.0298   4.0926   4.4889   4.5744   4.5897   4.6119   4.6423
     4.8448   4.9350   5.0824   5.1783   5.2810   5.4680   5.5698   5.6443
     6.1092   6.1154   6.1990

          k = 0.4000-0.4619 0.0000 ( 91590 PWs)   bands (ev):

   -21.0064 -18.9985  -8.8154  -6.2683  -6.2166  -6.0364  -5.8026  -5.5998
    -4.9702  -4.9534  -4.5721  -4.4422  -4.4333  -4.3103  -4.2752  -4.1673
    -4.1626  -4.0597  -4.0519  -3.9492  -3.9450  -3.9285  -3.8937  -3.8874
    -3.8763  -3.8683  -3.7443  -3.7249  -3.7212  -3.6836  -3.6777  -3.5994
    -3.5078  -3.4732  -3.4203  -3.3306  -3.3233  -3.3143  -3.2961  -3.2787
    -3.1962  -3.1793  -3.0830  -3.0691  -2.9141  -2.8878  -2.8698  -2.7747
    -2.7516  -2.6994  -2.6849  -2.6023  -2.5405  -2.5019  -2.4936  -2.4701
    -2.4386  -2.3991  -2.3798  -2.3301  -2.2917  -2.2730  -2.2430  -2.2411
    -2.2328  -2.2187  -2.1620  -2.1573  -2.1117  -2.0242  -1.9976  -1.9652
    -1.9259  -1.8906  -1.8544  -1.8244  -1.7905  -1.7728  -1.7528  -1.7248
    -1.6885  -1.6688  -1.6354  -1.6005  -1.5849  -1.5639  -1.5296  -1.5187
    -1.4778  -1.4228  -1.3962  -1.3725  -1.3571  -1.3345  -1.2686  -1.2358
    -1.1883  -1.1806  -1.1495  -1.1428  -1.1091  -1.0969  -1.0836  -1.0598
    -1.0498  -1.0273  -1.0016  -0.9915  -0.9748  -0.9545  -0.9480  -0.9256
    -0.9141  -0.9046  -0.8838  -0.8377  -0.8044  -0.7325  -0.6094  -0.5876
    -0.5419  -0.5273  -0.4334  -0.4170  -0.4029  -0.3707  -0.3227  -0.3211
    -0.3022  -0.2866  -0.2643  -0.2032  -0.1712  -0.1553  -0.0960  -0.0845
    -0.0464  -0.0176   0.0209   0.1120   0.1554   0.2249   0.2409   0.2592
     0.2737   0.3367   0.3460   0.3634   0.3882   0.4039   0.4373   0.4557
     0.4766   0.5462   0.5773   0.5915   0.6222   0.6379   0.6478   0.6733
     0.6978   0.7595   0.8145   0.9136   0.9369   0.9997   1.0436   1.0765
     1.0888   1.1623   1.2158   1.2307   1.2714   1.3572   1.3631   1.3852
     1.4187   1.4331   1.4589   1.4718   1.4832   1.5428   1.5609   1.5940
     1.6028   1.6289   1.6488   1.6562   1.7079   1.7626   1.8245   1.8373
     1.8651   1.8686   1.9015   1.9246   1.9900   2.0583   2.1793   2.3182
     3.0097   3.0113   3.2744   3.3219   3.3984   3.4111   3.4557   3.5808
     4.0086   4.0299   4.0926   4.4898   4.5718   4.5893   4.6130   4.6418
     4.8432   4.9342   5.0836   5.1791   5.2818   5.4696   5.5697   5.6434
     6.1085   6.1169   6.1980

     the Fermi energy is     1.6395 ev

!    total energy              =  -27859.47620571 Ry

     total all-electron energy =  -1327021.699510 Ry
     estimated scf accuracy    <       0.00000053 Ry
     smearing contrib. (-TS)   =      -0.00177072 Ry
     internal energy E=F+TS    =  -27859.47443500 Ry

     The total energy is F=E-TS. E is the sum of the following terms:
     one-electron contribution =  -28975.03139470 Ry
     hartree contribution      =   14790.34744489 Ry
     xc contribution           =    -911.01633925 Ry
     ewald contribution        =   12737.02603484 Ry
     one-center paw contrib.   =  -25500.80018079 Ry

     convergence has been achieved in  19 iterations

     negative rho (up, down):  1.470E-02 0.000E+00

     Forces acting on atoms (cartesian axes, Ry/au):

     atom    1 type  1   force =    -0.00076163   -0.00003366   -0.00720803
     atom    2 type  1   force =     0.00070511    0.00000661   -0.00715789
     atom    3 type  1   force =     0.00004401    0.00005834   -0.00375702
     atom    4 type  1   force =     0.00002368   -0.00108365   -0.00235389
     atom    5 type  1   force =    -0.00060232   -0.00078122   -0.00374909
     atom    6 type  1   force =     0.00061098   -0.00078889   -0.00382555
     atom    7 type  1   force =     0.00028360    0.00083414   -0.00333191
     atom    8 type  1   force =    -0.00000002    0.00123287   -0.00264048
     atom    9 type  1   force =    -0.00023072    0.00079182   -0.00331410
     atom   10 type  1   force =     0.00031423    0.00338147    0.00856633
     atom   11 type  1   force =    -0.00252591    0.00179253    0.00395746
     atom   12 type  1   force =     0.00245879    0.00159901    0.00348372
     atom   13 type  1   force =     0.00093522   -0.00191913    0.00668105
     atom   14 type  1   force =    -0.00010743   -0.00065430    0.00683452
     atom   15 type  1   force =    -0.00086430   -0.00178722    0.00628799
     atom   16 type  1   force =     0.00015720   -0.00081078    0.00051636
     atom   17 type  1   force =    -0.00020437   -0.00074717    0.00050340
     atom   18 type  1   force =     0.00001071   -0.00112655    0.00046880
     atom   19 type  1   force =     0.00018203   -0.00013880   -0.00037124
     atom   20 type  1   force =     0.00019463   -0.00010434   -0.00017283
     atom   21 type  1   force =     0.00012875    0.00000108   -0.00033005
     atom   22 type  1   force =     0.00014019   -0.00003721   -0.00036919
     atom   23 type  1   force =     0.00009989   -0.00008774   -0.00027810
     atom   24 type  1   force =     0.00014354   -0.00005675   -0.00032669
     atom   25 type  1   force =     0.00017219   -0.00006892   -0.00015979
     atom   26 type  1   force =     0.00015815   -0.00008639   -0.00003647
     atom   27 type  1   force =     0.00006129   -0.00003497   -0.00014414
     atom   28 type  1   force =     0.00010238    0.00015700    0.00017629
     atom   29 type  1   force =     0.00018345    0.00005054    0.00014185
     atom   30 type  1   force =     0.00019585    0.00005206    0.00011036
     atom   31 type  1   force =     0.00006482    0.00001968    0.00002490
     atom   32 type  1   force =     0.00046122    0.00009435    0.00075058
     atom   33 type  1   force =     0.00018654    0.00012569    0.00172880
     atom   34 type  1   force =     0.00020715    0.00002156    0.00015188
     atom   35 type  1   force =     0.00021809   -0.00019195    0.00013066
     atom   36 type  1   force =     0.00009560   -0.00008973    0.00017850
     atom   37 type  2   force =    -0.00707627    0.00054059    0.00743671
     atom   38 type  3   force =    -0.00154031   -0.00006856    0.00062226
     atom   39 type  4   force =    -0.00020898   -0.00002553   -0.00144105
     atom   40 type  4   force =     0.00558300   -0.00003586   -0.00778491

     Total force =     0.014403     Total SCF correction =     0.001644
     SCF correction compared to forces is large: reduce conv_thr to get better values

     negative rho (up, down):  1.470E-02 0.000E+00

     negative rho (up, down):  1.470E-02 0.000E+00

     negative rho (up, down):  1.470E-02 0.000E+00

     negative rho (up, down):  1.470E-02 0.000E+00

     negative rho (up, down):  1.470E-02 0.000E+00

     negative rho (up, down):  1.470E-02 0.000E+00

     negative rho (up, down):  1.470E-02 0.000E+00

     negative rho (up, down):  1.470E-02 0.000E+00

     negative rho (up, down):  1.470E-02 0.000E+00

     negative rho (up, down):  1.470E-02 0.000E+00

     negative rho (up, down):  1.470E-02 0.000E+00

     negative rho (up, down):  1.470E-02 0.000E+00

     negative rho (up, down):  1.470E-02 0.000E+00

     negative rho (up, down):  1.470E-02 0.000E+00

     negative rho (up, down):  1.470E-02 0.000E+00

     negative rho (up, down):  1.470E-02 0.000E+00

     negative rho (up, down):  1.470E-02 0.000E+00

     negative rho (up, down):  1.470E-02 0.000E+00

     negative rho (up, down):  1.470E-02 0.000E+00

     negative rho (up, down):  1.470E-02 0.000E+00

     negative rho (up, down):  1.470E-02 0.000E+00

     negative rho (up, down):  1.470E-02 0.000E+00

     negative rho (up, down):  1.470E-02 0.000E+00

     negative rho (up, down):  1.470E-02 0.000E+00

     negative rho (up, down):  1.470E-02 0.000E+00

     negative rho (up, down):  1.470E-02 0.000E+00

     negative rho (up, down):  1.470E-02 0.000E+00

     negative rho (up, down):  1.470E-02 0.000E+00

     negative rho (up, down):  1.470E-02 0.000E+00

     negative rho (up, down):  1.470E-02 0.000E+00

     negative rho (up, down):  1.470E-02 0.000E+00

     negative rho (up, down):  1.470E-02 0.000E+00

     negative rho (up, down):  1.470E-02 0.000E+00

     negative rho (up, down):  1.470E-02 0.000E+00
 BEEFens 2000 ensemble energies
             -0.609833747783727E+02
             -0.363110242667838E+01
             -0.159130187562916E+02
              0.431608524024798E+02
             -0.222265315145028E+02
             -0.206367987350835E+02
             -0.354353176227016E+02
             -0.869602037914787E+02
             -0.467647307789207E+02
             -0.475236344783975E+02
             -0.371122494096878E+02
              0.229313940893941E+01
              0.408452094917081E+01
              0.764624317149705E+01
              0.267351505583969E+01
              0.477351201375670E+02
             -0.210015860194776E+02
             -0.231442380865948E+02
              0.193736108695316E+02
             -0.112974959627342E+03
              0.539257616704095E+02
             -0.291096655877473E+02
             -0.336282902585895E+01
             -0.114724449823706E+02
             -0.887501779811282E+01
             -0.469065989328467E+01
              0.887401557938798E+02
             -0.187803269207763E+02
             -0.906834331471521E+01
             -0.521121682927614E+02
              0.819777495544374E+02
             -0.188252753166928E+02
             -0.376955546035715E+02
              0.250675432182101E+02
             -0.285604587423614E+01
              0.164849729587531E+02
             -0.487814553608996E+01
              0.108604176835683E+02
              0.289489676542837E+02
             -0.103826574339055E+03
              0.561213601419670E+02
              0.143069368864725E+02
             -0.172784204565204E+01
             -0.363462703564761E+02
              0.123727997273257E+02
             -0.147459899745866E+02
              0.400542355893045E+02
              0.366807939049964E+02
             -0.309638132976266E+02
             -0.276554974335572E+02
             -0.329761649066077E+02
             -0.353894276445895E+02
              0.136779153219113E+02
             -0.493580814871224E+02
              0.116237767242819E+02
              0.626352444571359E+02
              0.638691513245878E+02
              0.357674360062082E+02
              0.155145670652656E+02
              0.271884261817711E+02
              0.896021632078576E+02
              0.213895663620124E+02
             -0.551457139594257E+02
             -0.157910433452059E+02
             -0.237130443706382E+02
              0.633098004017733E+02
             -0.777668597779375E+02
             -0.674949897136361E+02
             -0.260627386792466E+02
             -0.650702259928903E+01
             -0.473428704564927E+02
              0.272071636799505E+02
              0.805713551747942E+01
              0.873733782655904E+01
             -0.399155525331833E+02
             -0.348641478959410E+02
             -0.544678798589606E+02
              0.392338192379596E+02
             -0.297473161681892E+02
              0.266457896825262E+02
             -0.717845130307069E+01
             -0.319658880869941E+02
             -0.579420419248587E+02
             -0.177521854350887E+02
             -0.910908035449927E+01
             -0.125659649761712E+02
              0.414305012016940E+02
              0.686233717769073E+02
             -0.387768005003166E+02
             -0.798945356412443E+02
             -0.220747668634457E+02
              0.112095481412012E+03
             -0.595270413264542E+02
              0.357814056877786E+02
             -0.962924164311517E+01
             -0.666684939754982E+02
              0.255854428057235E+02
              0.400221152571289E+02
             -0.199578116336919E+02
              0.402108433285697E+02
             -0.297473420745087E+02
             -0.480693277565929E+02
              0.870261139593317E+02
              0.456311983186722E+02
              0.338220088588658E+02
              0.147193784752164E+02
              0.206668731352095E+02
              0.860906965646548E+02
             -0.258091070022800E+02
              0.790674016072637E+01
             -0.143141493163147E+03
              0.182273104315402E+02
             -0.719833934936462E+02
              0.151679240676138E+02
              0.205698093811750E+02
             -0.334636757726050E+02
             -0.560006280322120E+02
              0.656849654592838E+01
             -0.305611530009036E+02
              0.309636496107809E+02
             -0.532462605504762E+02
              0.171819802629614E+01
             -0.358842715751508E+02
             -0.426236390480949E+01
             -0.105314157134802E+01
              0.181867017640074E+02
              0.141891082341283E+01
             -0.655840259289266E+01
              0.593398702539113E+02
              0.912940515449224E+02
              0.486532786896815E+02
              0.834644621780539E+02
             -0.115825952777511E+02
              0.143714717461881E+02
              0.543999030539217E+02
             -0.111427451734458E+02
             -0.739654415290424E+02
             -0.385918757855685E+02
             -0.524278895936354E+02
             -0.278200871187782E+02
              0.328683826805039E+02
             -0.117389610468416E+03
             -0.188015534253791E+02
              0.416209795072953E+02
             -0.388249427698353E+02
             -0.367102298038175E+02
              0.546824413211052E+02
              0.403003987182965E+02
             -0.355676123433053E+02
              0.138420987123818E+02
             -0.274452169805316E+02
              0.344984730439618E+02
              0.449487956647471E+01
              0.212182854526784E+02
             -0.889298295577381E+02
             -0.482792047802090E+02
             -0.100042077843417E+02
              0.324079270892318E+01
             -0.368800610077839E+02
              0.106561381660546E+03
             -0.232134208267877E+02
             -0.400461183244471E+02
              0.390947207360680E+02
             -0.496813010100805E+02
             -0.364985510400920E+02
              0.326420433753240E+02
              0.125023965584306E+02
              0.165330434184201E+02
              0.117016740433479E+02
             -0.133423096705370E+02
              0.226274348596043E+02
              0.593339017391669E+02
             -0.313325927467400E+02
              0.163402724681322E+02
              0.939178402778613E+02
              0.342340143937375E+02
             -0.733920252169492E+01
             -0.189410078890795E+02
              0.154138264241210E+03
             -0.164868877965655E+02
              0.365000671360835E+02
              0.195499036021455E+02
              0.363555444357626E+02
              0.896720577424535E+02
              0.545550291375895E+02
             -0.242769644724831E+01
              0.228797999758267E+02
              0.487171633466446E+02
              0.365476391962454E+02
             -0.528411655362846E+02
              0.940758559618279E+02
             -0.829958972088211E+02
             -0.199071176675649E+02
              0.585888385508505E+02
              0.677911899193264E+01
              0.792203112402831E+01
              0.342710418919971E+02
              0.300414325655382E+02
              0.355529830687618E+02
             -0.640903565303011E+02
              0.289514948557780E+01
             -0.298988415955921E+02
             -0.876085314565422E+01
             -0.145702953547197E+01
             -0.725607492960262E+01
             -0.417149109841046E+01
              0.863674830539089E+02
             -0.101576020366091E+02
             -0.277815958173879E+02
             -0.498288084308962E+01
              0.140566985998063E+02
             -0.566931817591324E+02
             -0.409293650431937E+02
             -0.383997606553202E+02
             -0.633331314396256E+02
             -0.170502306113890E+02
             -0.449658092776081E+02
              0.164391346215293E+02
             -0.240359724740271E+01
             -0.104996320198692E+02
             -0.938972739839869E+01
              0.811424414605153E+01
             -0.244070984076646E+02
              0.692713558418751E+02
             -0.811323724207945E+02
             -0.141828964913284E+02
             -0.175000427869024E+02
              0.182900096179391E+02
              0.215199930362885E+02
             -0.466134858917985E+02
             -0.202829981524289E+02
              0.443122084268258E+02
             -0.277461383392337E+02
              0.187718079342808E+02
              0.384863982170772E+02
             -0.323120947651046E+01
              0.114719975173216E+03
             -0.231251279890957E+02
             -0.342720754044160E+02
              0.582177606735854E+01
             -0.229327532101501E+02
              0.530336022128367E+02
             -0.338989855024899E+02
              0.106934313709415E+02
              0.643910682963647E+02
             -0.127103884795068E+02
              0.120838776297553E+03
              0.126522775480060E+03
             -0.653160631653504E+02
              0.593450597842615E+02
              0.167296351391818E+02
             -0.520466181578410E+02
              0.217247373017747E+02
              0.355600341303717E+02
              0.364628775594148E+02
              0.136375313923807E+01
              0.160228855597015E+02
              0.699338915862428E+02
             -0.248126942158660E+02
              0.182132548963711E+02
              0.743032484791089E+02
             -0.374563140814891E+02
             -0.130345058412404E+02
              0.511130362258066E+02
              0.298820063790317E+02
              0.784318286475021E+02
              0.223963811757376E+02
              0.628126964548051E+01
              0.281902360253799E+02
              0.385242918130037E+02
             -0.474032102017565E+02
              0.333028468190730E+01
              0.130402130598994E+02
              0.114199799857602E+02
              0.221589119516675E+02
             -0.577772378049421E+02
              0.367828289624553E+02
             -0.446149373859046E+02
             -0.348992524920945E+02
              0.178756328517745E+02
             -0.182320987970101E+02
              0.557688082119446E+02
             -0.257425715837289E+02
              0.268185612544317E+02
              0.369926190173690E+02
              0.833325019926165E+02
              0.577518199493653E+02
              0.464222023045248E+02
             -0.106307882553957E+02
             -0.392918469487586E+01
             -0.333753631338069E+02
              0.754473854120392E+02
              0.801242068165138E+02
              0.363743575036947E+02
             -0.193075519343118E+02
              0.514415980326241E+02
             -0.163494913607264E+02
              0.216036319257714E+02
              0.617661166957650E+02
              0.213478514946365E+01
             -0.104925112358619E+02
             -0.284352543300519E+02
             -0.514161197216079E+02
              0.950171920227118E+02
              0.441913234825810E+02
             -0.561866784552435E+02
             -0.969778402698034E+01
              0.251396933297958E+02
             -0.100325811497337E+02
              0.595257981126427E+02
              0.152877737306922E+02
              0.803274666675554E+02
              0.280899864966218E+02
             -0.265459950607762E+02
              0.250242124083936E+02
             -0.504665888460795E+01
             -0.325320832027587E+02
              0.134025956491889E+02
              0.206728001955012E+02
              0.937347274508355E+02
              0.801464370491583E+02
              0.553713046024573E+02
              0.734394928686306E+02
              0.803998982313473E+01
             -0.275023591424153E+02
              0.163881176700687E+02
             -0.369909373304736E+02
             -0.478811672838810E+02
             -0.566683994875800E+02
             -0.268021822034606E+02
             -0.110260473122886E+03
             -0.292873068974573E+02
             -0.841628514982683E+02
              0.211034813670930E+02
             -0.479485336326739E+02
              0.398898851651239E+02
             -0.946173764524379E+02
             -0.331635499999033E+02
              0.551290245013191E+02
              0.208757710933768E+02
             -0.834903678612816E+02
              0.634239483713044E+02
             -0.258103929091229E+02
              0.515208063509193E+02
             -0.244155541295532E+02
             -0.755339917901562E+02
              0.112774791028442E+02
             -0.614696466760856E+02
             -0.169065186947546E+02
             -0.148145468925071E+01
              0.420576641255028E+02
              0.127652187922257E+03
             -0.464099939753459E+02
             -0.364472276363190E+02
             -0.983070872898679E+00
             -0.131100619719496E+02
             -0.826712288010300E+02
             -0.599840456362875E+02
              0.519841165867496E+02
             -0.290440722786345E+02
              0.169970897372771E+02
             -0.491991386941531E+02
             -0.132651007267973E+02
             -0.439432974352062E+02
              0.568291934792824E+02
              0.151918332189689E+02
             -0.232759207806808E+02
             -0.127566102436465E+02
              0.671483915207077E+01
             -0.624782272300394E+01
              0.443904377416131E+02
             -0.253379623798975E+02
              0.278618624133799E+01
              0.340910056476203E+02
              0.172253581522826E+02
             -0.160621432498389E+02
              0.157068019400751E+03
              0.540698924822788E+02
              0.118304647650641E+01
              0.162234645986606E+02
             -0.617982066146585E+02
              0.316586759850168E+02
             -0.725519914477597E+02
             -0.253430151076255E+02
             -0.525398079174387E+02
             -0.220997937792614E+02
              0.571963616181411E+02
             -0.539883671024916E+02
              0.161731800285305E+02
             -0.408947618013190E+01
              0.389865776453138E+01
             -0.435920389875785E+02
             -0.480614351356968E+02
             -0.400315801902661E+01
             -0.427323182799469E+02
             -0.218423600689913E+02
             -0.440604562514275E+02
             -0.119854097950619E+02
             -0.360840710437616E+02
             -0.519215600936199E+02
              0.214089767739184E+02
             -0.210421800055842E+02
              0.188803646835093E+02
              0.980719312372462E+01
             -0.741757234951776E+02
             -0.550991972802609E+02
             -0.400142789171271E+02
              0.356286693565833E+02
              0.271392052998456E+01
             -0.630131395050848E+02
              0.588600323526639E+02
             -0.403222230784949E+02
              0.547494013343049E+02
             -0.291109248064806E+02
             -0.448525462840900E+02
              0.300006752704281E+02
             -0.661215346682111E+02
             -0.381923587648654E+02
              0.676187098968046E+02
              0.204909356017940E+02
             -0.362009080767166E+02
              0.492138280086879E+02
             -0.174938388378606E+02
             -0.324633195830750E+02
             -0.303463477631919E+02
             -0.503185383045767E+02
              0.250567537358444E+02
             -0.937684756832982E+02
             -0.844642409342173E+02
             -0.738383904170473E+01
             -0.308308601609565E+02
             -0.578550834372772E+02
              0.725592898933257E+02
              0.132209887075522E+03
             -0.362778728651873E+02
             -0.256020378879407E+01
             -0.640488524996913E+02
              0.653837503521163E+02
              0.171770311668975E+02
             -0.182643501066460E+02
             -0.412073686092413E+02
              0.149518537096636E+02
             -0.589384666116627E+02
             -0.198735086972347E+02
             -0.909517408167828E+02
              0.338832532762721E+02
              0.169855529798181E+02
              0.183824734129087E+01
             -0.707897877259836E+01
             -0.331399998134850E+02
             -0.761802417601996E+01
              0.126176673891786E+03
             -0.199940463222616E+02
             -0.439690649256089E+02
             -0.687399799516972E+02
              0.109832325697725E+02
             -0.343878243730479E+02
              0.594303262873022E+01
              0.262997972333222E+02
              0.102459903817206E+02
              0.279364417609580E+02
              0.120472401666117E+02
              0.632688881017892E+02
              0.318453242869842E+02
             -0.328214819559066E+02
              0.357540892057547E+02
              0.381440277900929E+02
              0.121542185798334E+02
              0.489419918187188E+02
             -0.225884145745096E+02
              0.769654191287766E+02
              0.173279048424298E+02
             -0.273718925582976E+02
             -0.726839867526640E+01
             -0.187290927169611E+02
              0.263118690343478E+02
             -0.235919977702064E+02
             -0.129593169996809E+00
             -0.855388576472353E+01
              0.813904744392572E+02
              0.502849143746699E+02
             -0.690898769868707E+02
             -0.478406965168537E+01
             -0.558416642674979E+02
             -0.160406451800067E+02
             -0.269583838156730E+02
              0.379407667402950E+01
              0.574259198188303E+00
             -0.258912664660107E+02
              0.819218091653579E+01
             -0.606500634201524E+01
             -0.129273985156636E+02
              0.863484060083062E+02
              0.182827347265707E+02
             -0.810948543169698E+02
             -0.460661915195932E+02
              0.949634756365319E+02
              0.279199004642292E+02
             -0.107282733659473E+02
              0.105115026932083E+03
             -0.195989048403073E+02
             -0.123614106234062E+02
             -0.541720671641144E+01
              0.108147935602846E+02
              0.273731986605364E+02
              0.783482696123318E+01
              0.306886563906547E+02
             -0.188801828064389E+02
             -0.305292177882027E+02
             -0.419896236241105E+02
             -0.479481737579157E+02
              0.466318917912390E+02
              0.127582557221859E+02
              0.389627530731479E+02
              0.134204121318332E+02
              0.860148464464643E+02
              0.157362205727346E+02
             -0.850182747966096E+02
             -0.336235415256980E+02
              0.134445546200844E+02
             -0.304383686454481E+02
              0.629795898447984E+02
             -0.893828111241874E+01
              0.149725632896289E+02
              0.499874244501314E+02
             -0.711126624408762E+02
              0.150523584599280E+03
              0.209723213600953E+02
              0.272628105765576E+02
              0.349437780765325E+02
              0.104353631011293E+02
             -0.157608868750111E+01
              0.360411523460018E+02
             -0.358949036293056E+02
              0.777333811208034E+02
              0.688417108838307E+02
             -0.408142475124952E+02
              0.150461867006298E+02
              0.673867351221178E+02
             -0.225156351339638E+02
              0.155071014585483E+02
              0.437449447294345E+02
              0.424562131046811E+02
             -0.788960550375402E+02
             -0.153445623213490E+02
             -0.358138999615693E+02
             -0.150997958114817E+01
             -0.769112471044679E+01
             -0.547271390985202E+01
             -0.181685914189760E+02
             -0.295318137856207E+02
              0.637372087917751E+01
              0.112316048648199E+02
              0.538507647377792E+02
             -0.392395055790249E+02
              0.376288051340100E+02
              0.440833884543354E+02
             -0.187714011929797E+02
              0.876897062600343E+02
             -0.701441690202265E+02
             -0.103724771688585E+03
             -0.661152519554922E+01
             -0.272394820520071E+01
              0.387200933897350E+01
              0.793452023510814E+02
             -0.107571298463944E+02
              0.418790647708449E+02
              0.446141612100205E+02
              0.387265622316856E+02
             -0.998712055747387E+01
              0.631012920227254E+02
             -0.134418529382042E+02
             -0.309135855812193E+02
             -0.482075085158129E+02
              0.590932922854797E+01
              0.371842380247838E+02
             -0.605467377129773E+01
              0.395147587565223E+02
             -0.175299785325842E+01
              0.658648187683785E+02
              0.188511211354975E+02
              0.100236369106851E+02
             -0.122156532031319E+02
              0.333969889157396E+02
              0.364589727394714E+02
              0.233845983461748E+02
             -0.520332661103566E+00
             -0.553381405150277E+02
              0.262195362740636E+02
              0.176180980850047E+02
              0.404753453575256E+02
              0.273885343178143E+02
              0.374324070074381E+02
             -0.608108978091178E+01
              0.252397233082484E+02
             -0.299862036892405E+02
             -0.198911032778847E+01
             -0.572171996093644E+02
             -0.309615988127217E+02
              0.380903079226715E+02
             -0.940440967052274E+02
              0.296026056417836E+02
              0.184912017109413E+02
              0.844450891375851E+02
             -0.302128052028269E+02
              0.331018441767023E+02
             -0.138343416104038E+02
             -0.466448884219453E+02
             -0.765578746575312E+02
             -0.529028095149482E+01
             -0.864583157141101E+02
              0.200685325999007E+02
             -0.248680237427624E+02
              0.307367005406588E+02
              0.237836266482324E+02
             -0.242402666009316E+02
             -0.266723838948342E+02
              0.393060415488443E+02
             -0.591239267965385E+02
             -0.117226867561715E+02
             -0.197138272952161E+02
              0.213888346036131E+02
             -0.895380561640025E+01
              0.364219328242919E+01
             -0.201792199244554E+02
              0.561655267265272E+02
             -0.441777789101815E+02
              0.793429662005690E+01
              0.588426721212400E+02
             -0.325094699589621E+02
              0.361138291717816E+01
             -0.884724731101869E+01
             -0.673157497246135E+02
             -0.485199897365754E+02
             -0.865822851086502E+01
              0.242045035912161E+02
              0.303859436614400E+02
              0.862957587965627E+01
             -0.417303327798152E+01
              0.153020868928224E+02
             -0.442379024226549E+02
              0.333003753375448E+01
             -0.533877161105075E+02
             -0.326169382079654E+02
              0.477190758744741E+02
             -0.296698708960882E+02
              0.625734807491365E+02
             -0.215757352047361E+02
              0.355730983014230E+02
              0.243047382180313E+02
             -0.647363611023335E+02
             -0.282063992076000E+02
              0.936132009531138E+01
             -0.373584623859451E+02
             -0.341599057748398E+02
             -0.834293437729714E+02
             -0.542332794610429E+02
             -0.513194208481485E+02
             -0.417848478814519E+02
             -0.976748378933678E+00
              0.100190840178697E+02
              0.103552917884647E+01
              0.154137162969739E+02
             -0.552316554382651E+02
              0.142547425412183E+02
              0.257733494593231E+02
             -0.670411827891434E+02
             -0.705483291879193E+02
             -0.433331806227675E+02
             -0.173038489035111E+02
              0.179589087450735E+02
              0.455652661536078E+01
             -0.428491207836639E+02
              0.368212675653930E+02
             -0.217201795462303E+02
              0.520185568197890E+02
             -0.891791862328420E+02
              0.600688681508424E+02
             -0.212721636580169E+01
             -0.370490928536668E+02
             -0.217768242832902E+02
              0.472872386501895E+01
              0.376889087308989E+02
             -0.760270249282538E+02
             -0.121465761135896E+02
             -0.217696994588091E+02
              0.513698833148739E+02
              0.869159477456482E+02
             -0.970236289630368E+02
              0.949014751207204E+02
              0.470272871414265E+02
             -0.729421434507810E+02
             -0.368508933711558E+02
              0.755938662149401E+02
              0.635206199673694E+02
             -0.182115053975591E+02
             -0.467062166707535E+01
              0.738091721722333E+01
              0.652763341900728E+02
             -0.511250713547912E+02
              0.159306654738043E+02
             -0.475134051498502E+01
              0.349543258492267E+02
             -0.750844632623052E+02
             -0.651762936876426E+01
             -0.352965207692219E+02
              0.463208337783967E+02
              0.471112368252165E+02
             -0.866264124609404E+02
             -0.489622626320353E+02
             -0.257502068736510E+02
             -0.341313727715329E+02
             -0.110062107640098E+02
             -0.244233723976366E+02
              0.429657622332255E+02
              0.403408830404197E+02
             -0.569002751769762E+01
             -0.418503630990411E+02
             -0.854780863222139E+02
              0.445441145915606E+02
             -0.526006581360139E+02
             -0.314727848211656E+02
              0.549587342016780E+01
             -0.324247569950728E+02
             -0.400066339312031E+02
             -0.241564234018929E+02
             -0.387645581799140E+02
             -0.272232705330918E+02
             -0.485308819336310E+02
              0.567012286863320E+02
              0.641731952567955E+02
             -0.173180301401862E+01
             -0.262618806987765E+02
             -0.627408853413851E+01
[...]
              0.284829125088222E+02
              0.142521873650501E+03
              0.243727907262346E+02
              0.123390284586011E+02
             -0.466966678703419E+02
             -0.641075652298671E+02
             -0.189830477003726E+02
              0.331208996122792E+02
             -0.430382653283914E+01
              0.190856060328318E+02
              0.337788298109314E+02
             -0.589743933614255E+02
              0.223724857044683E+02
              0.584879539179195E+02
              0.556000241833702E+02
             -0.422382518570851E+01
             -0.137335920786290E+01
             -0.998559223967052E+01
             -0.484901837013829E+02
             -0.678429793434206E+02
              0.789738601292649E+02
             -0.526906550385709E+01
             -0.590945667297498E+02
              0.170911999805381E+01
             -0.206452647414649E+02
              0.943128976215434E+02
             -0.217523527824007E+02
             -0.355302318274374E+02
              0.336760046964669E+02
             -0.146458484510661E+02
              0.391789326857013E+02
             -0.241495722715973E+01
              0.101601173792041E+03
              0.492044964727373E+02
             -0.513613389449061E+01
             -0.323678377638436E+02
              0.233600330966669E+02
             -0.531295607263551E+02
             -0.128450336072549E+02
              0.588756310032963E+02
             -0.289057170574764E+02
             -0.440657733235644E+02
             -0.224227703026103E+02
              0.521308694209862E+02
              0.125583096181089E+02
             -0.853237853233166E+02
              0.305564246758262E+02
              0.152936246800810E+02
              0.580429854786112E+01
             -0.515932770486339E+02
             -0.376709467517060E+01
              0.324846095304281E+02
              0.515593119257914E+02
              0.635636023776197E+02
              0.230260687762147E+02
              0.785020642917317E+00
             -0.500479512386335E+02
             -0.512385910973867E+02
             -0.751786974296813E+02
             -0.617572045579323E+01
              0.310567318598706E+02
             -0.381968274631177E+01
              0.549511176542809E+02
             -0.319592535282793E+02
              0.167314482867021E+02
             -0.103170215259373E+02
             -0.290983211046473E+02
              0.588571240233174E+02
              0.795966791928623E+01
              0.607224362388401E+02
              0.512258684864003E+01
              0.266311866014736E+02
             -0.193556788496311E+02
              0.589272046099715E+02
             -0.111949407965364E+02
             -0.137756598423300E+00
             -0.794059018705758E+02
             -0.128934494077184E+02
              0.722784247663803E+02
              0.676720468070550E+02
              0.252936974692535E+02
             -0.131072438396824E+02
              0.343615942178340E+01
             -0.174276843321980E+02
             -0.206915549074600E+01
              0.912161716916581E+02
              0.124188463412190E+01
             -0.191506874122413E+02
             -0.111314068013248E+03
             -0.555547478858887E+02
             -0.376840369661932E+02
             -0.662077117693908E+02
             -0.558329514283259E+02
             -0.686260681143938E+02
             -0.449362745554035E+02
             -0.412779052479679E+02
             -0.454180935640288E+02
              0.485884563189196E+02
             -0.295561139139472E+02
             -0.100076666548766E+03
              0.421100774793355E+02
             -0.261356311253169E+02
             -0.794851259178942E+02
              0.948800101340634E+02
             -0.220825419508520E+02
              0.229135821996995E+02
              0.457394928191744E+02
             -0.135499156737984E+01
              0.255483543030310E+02
              0.471792639793580E+01
              0.412220704716038E+00
             -0.151225584640520E+02
             -0.719258801995341E+02
              0.133895314577843E+02
             -0.130045184002807E+03
              0.627176350307173E+02
             -0.442757564230227E+02
             -0.163529599239917E+02
             -0.158878566492484E+02
              0.718673586692540E+01
             -0.228728911609891E+02
              0.298731778881126E+02
             -0.523192359373059E+02
              0.369201413654673E+02
              0.372739068917526E+02
              0.169339584483770E+02
              0.100965958618430E+02
              0.198826605837907E+02
              0.624683068133851E+01
              0.311982263338534E+02
             -0.804812728254919E+01
             -0.595133366977836E+02
              0.762675902946012E+01
             -0.153716075237372E+02
             -0.195182668530191E+01
              0.508573822585838E+02
             -0.830991145467401E+02
             -0.150157300113995E+01
              0.571066884666209E+00
              0.999749909528265E+01
              0.320080075137599E+02
             -0.124234565850652E+02
              0.839874014610120E+02
              0.490289974189901E+02
             -0.184260057448124E+02
             -0.962973548363999E+01
              0.107535708445442E+01
              0.773510705740478E+02
             -0.589010371822213E+02
             -0.106293616219204E+03
              0.310668376464525E+02
             -0.163623205975833E+02
             -0.140116545411442E+02
              0.131284876773192E+02
              0.772521860263237E+02
              0.466569378720690E+02
             -0.154280644202669E+02
             -0.505417538538434E+02
             -0.551813071163231E+01
              0.307913829756122E+02
             -0.112212551477577E+02
             -0.759363921260731E+02
             -0.271743447448193E+01
             -0.894350531715434E+02
             -0.477907031297459E+02
              0.772240349528942E+02
             -0.485973296197174E+02
             -0.639796598918408E+02
             -0.516992889985651E+02
             -0.351418131397427E+02
              0.342588465114377E+02
              0.825711118115459E+02
             -0.357786185367564E+01
              0.277897613461751E+02
             -0.184595076706010E+02
             -0.697270815459856E+02
              0.467424870707872E+02
             -0.447238494030513E+02
              0.323371366732182E+02
              0.378146116019333E+02
             -0.660034841413903E+01
              0.392748809632351E+02
              0.440629260596059E+02
              0.101171022738568E+03
             -0.156864785652685E+02
             -0.458071609054082E+02
             -0.615873806363591E+02
             -0.124515609329492E+02
             -0.234179122276694E+02
              0.103531138180132E+03
             -0.451219316842994E+02
              0.105642516923664E+02
              0.976084590653841E+01
             -0.265898576313709E+02
             -0.802700652492590E+02
             -0.702834767982836E+01
              0.984675252881322E+02
              0.943107743143656E+01
              0.813696317754739E+01
             -0.529391327793552E+02
             -0.608225118812566E+02
             -0.566729586050326E+01
              0.502668023899469E+02
             -0.223054616841261E+02
              0.108498826377623E+03
             -0.437586409053515E+02
              0.147148592301941E+02
             -0.225290318620084E+02
             -0.721785698451721E+02
              0.169412755727478E+01
             -0.504142698074918E+02
             -0.764265871075424E+02
              0.618839062521238E+01
              0.236664914689123E+01
              0.516620978018751E+02
              0.188269840844969E+02
             -0.325175274747911E+02
              0.231300441347751E+02
             -0.814829453732381E+02
             -0.524343442827118E+02
              0.906282630296821E+02
              0.143074926158830E+02
             -0.188805316381493E+02
             -0.354077888487880E+02
             -0.271064085715886E+01
             -0.589596064231989E+01
              0.834281993886878E+02
              0.419724310016439E+02
             -0.166841025744333E+02
             -0.122433930344531E+02
             -0.429762324690702E+02
             -0.201817827725226E+02
             -0.673317538591045E+02
              0.462003705512593E+02
              0.549540642508850E+01
              0.145536388677274E+02
              0.156727045597113E+02
             -0.581825810933214E+00
             -0.169282772891322E+02
             -0.311462407736547E+01
             -0.100933618433403E+03
             -0.230839735320123E+02
             -0.767547997757481E+01
             -0.952373844082959E+01
              0.549205874156162E+02
              0.626812200400740E+02
              0.165531456777264E+02
             -0.975295918807465E+02
              0.650647723720613E+02
             -0.216051567716336E+02
             -0.378856869744567E+02
             -0.868482142568419E+02
             -0.388786037008065E+02
              0.567172740401081E+02
              0.245563123991766E+02
              0.518709513593262E+01
              0.293768346219103E+02
             -0.567677652029739E+02
             -0.424436585512146E+02
              0.517928996380418E+02
              0.389115233752345E+02
              0.521449947161863E+02
             -0.125064826493076E+01
              0.688274944843391E+01
              0.572171014869280E+02
              0.967634240667943E+02
             -0.301544578604944E+02
              0.324596769375685E+02
             -0.119056147869733E+02
             -0.414278559999786E+02
             -0.315890909440238E+02
             -0.301552461516254E+02
             -0.131959904407623E+02
             -0.525906761602177E+02
             -0.218418203651391E+02
             -0.141849049406009E+03
              0.370613026394901E+02
              0.207777514816846E+02
             -0.394957859228231E+01
             -0.381995126385345E+02
             -0.205381719964377E+02
             -0.529293281182601E+02
              0.151906925288090E+02
              0.824048845149399E+02
             -0.253208537709878E+02
             -0.163772225181500E+02
              0.239019664218695E+02
             -0.491691659156310E+02
              0.884909940763387E+02
              0.155293701547506E+02
              0.227269994936933E+02
              0.492750404238571E+02
              0.322216221019920E+01
              0.544789236660746E+02
              0.143694648419662E+02
             -0.107024618309251E+02
              0.735603249556786E+01
              0.784031975960261E+00
              0.730804054687134E+02
              0.101622658074480E+02
              0.121158069620259E+02
             -0.130543450346814E+02
              0.133011304032484E+02
             -0.915747296104678E+02
             -0.327720772583704E+02
             -0.459543579655452E+02
              0.487889838485909E+02
             -0.292540206991449E+02
             -0.661750591485446E+02
              0.541229856623352E+02
             -0.122747331453370E+02
              0.442195562853267E+02
             -0.903300122347008E+02
              0.233327603220890E+02
              0.861764099176634E+01
              0.583510314553666E+01
             -0.835707188276547E+01
             -0.906983800173009E+01
              0.481918965877202E+02
              0.201290321628085E+01
             -0.477266064324872E+02
             -0.176924593357024E+02
              0.278073585709819E+02
             -0.118509401505883E+03
             -0.934356968939723E+02
              0.397947692139729E+01
              0.118141607177461E+02
             -0.415150882360563E+02
             -0.391652805195349E+01
              0.112650582306325E+03
              0.308291074918337E+02
             -0.574287091992138E+02
              0.929816239962145E+01
             -0.969009379749184E+01
              0.106160578979780E+02
             -0.339160225985792E+02
              0.196247588332641E+02
              0.285905008656264E+02
             -0.301857067055255E+01
              0.108707470766876E+03
             -0.140905925922581E+02
             -0.317676367298063E+02
              0.143902350234579E+02
              0.468768791333820E+02
             -0.357730320209001E+02
             -0.318711386846888E+01
              0.969457962790444E+02
             -0.467368260775436E+01
              0.624434592956591E+02
              0.136175755734780E+02
             -0.907309384274041E+01
             -0.306546653975674E+02
              0.569392043797702E+02
             -0.516976192949562E+02
             -0.223268989875447E+01
             -0.170831489415472E+02
             -0.407339501966511E+02
              0.185647964436565E+02
              0.240233957709696E+02
              0.116587029209682E+02
              0.714861877821704E+00
             -0.386224397875959E+02
              0.216376721524393E+02
             -0.676270577296734E+01
             -0.247769512404145E+02
             -0.211714635186364E+02
              0.204504388494944E+02
             -0.600110916386359E+01
             -0.350931744392994E+02
             -0.107147067917860E+03
              0.103199452769951E+02
              0.250103848313384E+02
             -0.389331239002800E+02
             -0.211912317753297E+02
              0.810981946540156E+02
              0.653873578100865E+01
              0.312414569333883E+02
              0.392295151189211E+01
              0.323545944796689E+02
              0.649558722061994E+01
             -0.374880746087071E+02
             -0.232365155466769E+01
              0.880164014627235E+01
              0.275177756776114E+02
              0.785974959140087E+02
              0.509853864130119E+02
              0.190217801885467E+00
              0.169839067438108E+02
              0.616114878825762E+02
              0.237087982434049E+02
             -0.756566855407418E+02
             -0.275136481206493E+02
              0.151898708938406E+02
              0.565364109851168E+01
              0.256262057223943E+02
             -0.550490291426149E+02
              0.904503567619993E+01
              0.387761562685014E+02
              0.500476116915377E+02
             -0.437083652454486E+02
             -0.693476178266343E+01
             -0.209392630400032E+01
             -0.134574111167433E+02
             -0.367251176433935E+02
             -0.216247883520258E+02
             -0.201955851414804E+01
              0.796855061482023E+01
              0.423393845273777E+02
             -0.309748402218642E+02
              0.830061304317225E+02
              0.329220855631918E+02
              0.220890397295858E+02
              0.334630588295089E+02
              0.324829137974207E+02
              0.347606080732421E+02
              0.539836079129319E+02
             -0.436103007519161E+02
              0.622621895086103E+02
             -0.112808345123576E+03
              0.308984052701287E+02
             -0.107058843369300E+03
              0.858771167560321E+02
              0.694219601955647E+02
             -0.110402514182680E+02
             -0.495779856427760E+02
             -0.431551148445876E+02
             -0.626515216440317E+02
             -0.631725141797209E+02
              0.554505400283562E+02
              0.407533926265609E+02
              0.237991497648065E+02
              0.375591381702218E+02
              0.404931110240572E+02
             -0.383993805920632E+02
             -0.198813067465666E+02
              0.589266356170491E+02
             -0.116572761707276E+02
              0.554270608535562E+02
              0.702826183690732E+02
             -0.555364874430746E+01
             -0.709741818447052E+02
             -0.907343624984264E+00
             -0.246733191482599E+01
             -0.887385583530488E+01
             -0.179095354330440E+01
             -0.656253465481279E+02
             -0.211798711387795E+02
              0.542313153558511E+01
              0.902284344586653E+01
              0.471181312791451E+02
             -0.399627306516982E+02
              0.660744637535917E+02
             -0.427315180052163E+02
              0.211406052949368E+02
              0.352205576776602E+02
 
 BEEF-vdW xc energy contributions
           1 :   -786.742892444580     
           2 :    722.724483790320     
           3 :   -611.914506674910     
           4 :    481.491620906642     
           5 :   -359.011535867888     
           6 :    264.308921006239     
           7 :   -205.054552362350     
           8 :    176.757601399126     
           9 :   -166.771441250756     
          10 :    160.432960392837     
          11 :   -146.846347832532     
          12 :    122.135380848935     
          13 :   -89.3174691805627     
          14 :    55.4115912958656     
          15 :   -27.4537200397715     
          16 :    9.23112395409703     
          17 :   1.059318395937225E-002
          18 :   -4.63777581544252     
          19 :    10.1596364790770     
          20 :   -20.5151340307623     
          21 :    36.3661155447176     
          22 :   -55.0788617089677     
          23 :    72.2307521151696     
          24 :   -83.8179887859171     
          25 :    88.0852433122232     
          26 :   -86.1705644061842     
          27 :    81.3505581846881     
          28 :   -77.3482754682893     
          29 :    76.5675895919899     
          30 :   -79.0846414796852     
          31 :   -86.1642051269936     
          32 :   -66.0075857261002     

     Writing output data file ./pwscf.save/
 
     init_run     :    347.48s CPU    352.10s WALL (       1 calls)
     electrons    :  13707.55s CPU  13838.83s WALL (       1 calls)
     forces       :    103.52s CPU    104.79s WALL (       1 calls)

     Called by init_run:
     wfcinit      :    299.60s CPU    303.15s WALL (       1 calls)
     potinit      :     44.42s CPU     44.77s WALL (       1 calls)
     hinit0       :      1.48s CPU      1.52s WALL (       1 calls)

     Called by electrons:
     c_bands      :  11339.90s CPU  11440.40s WALL (      20 calls)
     sum_band     :   1647.20s CPU   1661.05s WALL (      20 calls)
     v_of_rho     :    108.71s CPU    113.04s WALL (      20 calls)
     newd         :     32.11s CPU     44.99s WALL (      20 calls)
     PAW_pot      :    133.71s CPU    133.72s WALL (      20 calls)
     mix_rho      :    491.07s CPU    491.74s WALL (      20 calls)
     vdW_kernel   :     33.51s CPU     33.51s WALL (       1 calls)

     Called by c_bands:
     init_us_2    :     77.70s CPU     77.93s WALL (     546 calls)
     cegterg      :  10526.55s CPU  10626.83s WALL (     260 calls)

     Called by *egterg:
     cdiaghg      :     89.45s CPU     89.49s WALL (    1303 calls)
     h_psi        :   6876.54s CPU   6911.59s WALL (    1329 calls)
     s_psi        :   1086.55s CPU   1086.57s WALL (    1329 calls)
     g_psi        :     15.98s CPU     15.99s WALL (    1056 calls)

     Called by h_psi:
     h_psi:calbec :   1019.45s CPU   1019.62s WALL (    1329 calls)
     vloc_psi     :   4745.58s CPU   4747.05s WALL (    1329 calls)
     add_vuspsi   :   1085.55s CPU   1085.60s WALL (    1329 calls)

     General routines
     calbec       :   1508.91s CPU   1509.09s WALL (    1641 calls)
     fft          :     52.15s CPU     52.18s WALL (    3220 calls)
     ffts         :    164.24s CPU    164.28s WALL (   10754 calls)
     fftw         :   4876.34s CPU   4877.27s WALL (  335426 calls)
 
     Parallel routines
 
     PWSCF        :      3h57m CPU      4h 0m WALL

 
   This run was terminated on:  19:51:30  20May2022            

=------------------------------------------------------------------------------=
   JOB DONE.
=------------------------------------------------------------------------------=
