
     Program PWSCF v.6.7MaX starts on 26Sep2022 at 22: 8:17 

     This program is part of the open-source Quantum ESPRESSO suite
     for quantum simulation of materials; please cite
         "P. Giannozzi et al., J. Phys.:Condens. Matter 21 395502 (2009);
         "P. Giannozzi et al., J. Phys.:Condens. Matter 29 465901 (2017);
          URL http://www.quantum-espresso.org", 
     in publications or presentations arising from this work. More details at
     http://www.quantum-espresso.org/quote

     Parallel version (MPI), running on     1 processors

     MPI processes distributed on     1 nodes
     Reading input from hcoo-mono-ensemble.in
Warning: card &CELL ignored
Warning: card / ignored

     Current dimensions of program PWSCF are:
     Max number of different atomic species (ntypx) = 10
     Max number of k-points (npk) =  40000
     Max angular momentum in pseudopotentials (lmaxx) =  3
     file Pt.pbe-n-kjpaw_psl.1.0.0.UPF: wavefunction(s)  6S 5D renormalized
     file C.pbe-n-kjpaw_psl.1.0.0.UPF: wavefunction(s)  2S 2P renormalized
     file H.pbe-kjpaw_psl.1.0.0.UPF: wavefunction(s)  1S renormalized
     file O.pbe-nl-kjpaw_psl.1.0.0.UPF: wavefunction(s)  2S 2P renormalized

     **************************************************************************
     Initializing libbeef V0.1.2 with the BEEF-vdW functional.
     Citation: Wellendorff et al., PRB 85, 235149 (2012).
     **************************************************************************


     IMPORTANT: XC functional enforced from input :
     Exchange-correlation= BEEF-VDW
                           (   1   4  43  14   2   0   0)
     Any further DFT definition will be discarded
     Please, verify this is what you really want


     Subspace diagonalization in iterative solution of the eigenvalue problem:
     a serial algorithm will be used

 
     G-vector sticks info
     --------------------
     sticks:   dense  smooth     PW     G-vecs:    dense   smooth      PW
     Sum        4267    4267   1159               747089   747089  105407
 


     bravais-lattice index     =            0
     lattice parameter (alat)  =      16.0349  a.u.
     unit-cell volume          =   11893.4922 (a.u.)^3
     number of atoms/cell      =           40
     number of atomic types    =            4
     number of electrons       =       377.00
     number of Kohn-Sham states=          227
     kinetic-energy cutoff     =      60.0000  Ry
     charge density cutoff     =     240.0000  Ry
     scf convergence threshold =      1.0E-06
     mixing beta               =       0.7000
     number of iterations used =            8  local-TF  mixing
     Exchange-correlation= BEEF-VDW
                           (   1   4  43  14   2   0   0)

     celldm(1)=  16.034858  celldm(2)=   0.000000  celldm(3)=   0.000000
     celldm(4)=   0.000000  celldm(5)=   0.000000  celldm(6)=   0.000000

     crystal axes: (cart. coord. in units of alat)
               a(1) = (   1.000000   0.000000   0.000000 )  
               a(2) = (   0.500000   0.866025   0.000000 )  
               a(3) = (   0.000000   0.000000   3.331067 )  

     reciprocal axes: (cart. coord. in units 2 pi/alat)
               b(1) = (  1.000000 -0.577350  0.000000 )  
               b(2) = (  0.000000  1.154701  0.000000 )  
               b(3) = (  0.000000  0.000000  0.300204 )  


     PseudoPot. # 1 for Pt read from file:
     /users/bkreitz1/quantum-espresso/potentials/Pt.pbe-n-kjpaw_psl.1.0.0.UPF
     MD5 check sum: 04dc8a03c51ece93fc7b5889c2958091
     Pseudo is Projector augmented-wave + core cor, Zval = 10.0
     Generated using 'atomic' code by A. Dal Corso  v.6.7MaX
     Shape of augmentation charge: PSQ
     Using radial grid of 1277 points,  6 beta functions with: 
                l(1) =   0
                l(2) =   0
                l(3) =   1
                l(4) =   1
                l(5) =   2
                l(6) =   2
     Q(r) pseudized with 0 coefficients 


     PseudoPot. # 2 for C  read from file:
     /users/bkreitz1/quantum-espresso/potentials/C.pbe-n-kjpaw_psl.1.0.0.UPF
     MD5 check sum: a169b0ebad56f5ec0d79c4633f80bf22
     Pseudo is Projector augmented-wave + core cor, Zval =  4.0
     Generated using 'atomic' code by A. Dal Corso  v.6.7MaX
     Shape of augmentation charge: PSQ
     Using radial grid of 1073 points,  4 beta functions with: 
                l(1) =   0
                l(2) =   0
                l(3) =   1
                l(4) =   1
     Q(r) pseudized with 0 coefficients 


     PseudoPot. # 3 for H  read from file:
     /users/bkreitz1/quantum-espresso/potentials/H.pbe-kjpaw_psl.1.0.0.UPF
     MD5 check sum: ae98473e6dc62675f0d0baffdab24f65
     Pseudo is Projector augmented-wave, Zval =  1.0
     Generated using 'atomic' code by A. Dal Corso  v.6.7MaX
     Shape of augmentation charge: PSQ
     Using radial grid of  929 points,  2 beta functions with: 
                l(1) =   0
                l(2) =   0
     Q(r) pseudized with 0 coefficients 


     PseudoPot. # 4 for O  read from file:
     /users/bkreitz1/quantum-espresso/potentials/O.pbe-nl-kjpaw_psl.1.0.0.UPF
     MD5 check sum: eef08af8b58d9ec80f8fdb78829eb7cf
     Pseudo is Projector augmented-wave + core cor, Zval =  6.0
     Generated using 'atomic' code by A. Dal Corso  v.6.7MaX
     Shape of augmentation charge: PSQ
     Using radial grid of 1095 points,  4 beta functions with: 
                l(1) =   0
                l(2) =   0
                l(3) =   1
                l(4) =   1
     Q(r) pseudized with 0 coefficients 


     atomic species   valence    mass     pseudopotential
        Pt            10.00   195.08400     Pt( 1.00)
        C              4.00    12.01100     C ( 1.00)
        H              1.00     1.00800     H ( 1.00)
        O              6.00    15.99900     O ( 1.00)

     No symmetry found



   Cartesian axes

     site n.     atom                  positions (alat units)
         1           Pt  tau(   1) = (   0.0000000   0.0000000   1.0017346  )
         2           Pt  tau(   2) = (   0.3333333   0.0000000   1.0017346  )
         3           Pt  tau(   3) = (   0.6666667   0.0000000   1.0017346  )
         4           Pt  tau(   4) = (   0.1666667   0.2886751   1.0017346  )
         5           Pt  tau(   5) = (   0.5000000   0.2886751   1.0017346  )
         6           Pt  tau(   6) = (   0.8333333   0.2886751   1.0017346  )
         7           Pt  tau(   7) = (   0.3333333   0.5773503   1.0017346  )
         8           Pt  tau(   8) = (   0.6666667   0.5773503   1.0017346  )
         9           Pt  tau(   9) = (   1.0000000   0.5773503   1.0017346  )
        10           Pt  tau(  10) = (   0.1666667   0.0962250   1.2739001  )
        11           Pt  tau(  11) = (   0.5000000   0.0962250   1.2739001  )
        12           Pt  tau(  12) = (   0.8333333   0.0962250   1.2739001  )
        13           Pt  tau(  13) = (   0.3333333   0.3849002   1.2739001  )
        14           Pt  tau(  14) = (   0.6666667   0.3849002   1.2739001  )
        15           Pt  tau(  15) = (   1.0000000   0.3849002   1.2739001  )
        16           Pt  tau(  16) = (   0.5000000   0.6735753   1.2739001  )
        17           Pt  tau(  17) = (   0.8333333   0.6735753   1.2739001  )
        18           Pt  tau(  18) = (   1.1666667   0.6735753   1.2739001  )
        19           Pt  tau(  19) = (   0.0006687   0.1914811   1.5412230  )
        20           Pt  tau(  20) = (   0.3350273   0.1924128   1.5456884  )
        21           Pt  tau(  21) = (   0.6655363   0.1921669   1.5448153  )
        22           Pt  tau(  22) = (   0.1666668   0.4802104   1.5421457  )
        23           Pt  tau(  23) = (   0.5001410   0.4789208   1.5453713  )
        24           Pt  tau(  24) = (   0.8333985   0.4803672   1.5420523  )
        25           Pt  tau(  25) = (   0.3336762   0.7691742   1.5409153  )
        26           Pt  tau(  26) = (   0.6666829   0.7691109   1.5408813  )
        27           Pt  tau(  27) = (   1.0001659   0.7688795   1.5418610  )
        28           Pt  tau(  28) = (   0.0002581  -0.0021008   1.8164262  )
        29           Pt  tau(  29) = (   0.3325654  -0.0036468   1.8146720  )
        30           Pt  tau(  30) = (   0.6680118  -0.0038308   1.8145990  )
        31           Pt  tau(  31) = (   0.1650183   0.2867109   1.8159170  )
        32           Pt  tau(  32) = (   0.4998415   0.2872643   1.8260988  )
        33           Pt  tau(  33) = (   0.8361000   0.2866182   1.8137129  )
        34           Pt  tau(  34) = (   0.3326488   0.5775940   1.8147336  )
        35           Pt  tau(  35) = (   0.6679184   0.5776581   1.8147965  )
        36           Pt  tau(  36) = (   1.0001651   0.5756214   1.8164894  )
        37           C   tau(  37) = (   0.4046656   0.2880305   2.1666615  )
        38           H   tau(  38) = (   0.2858196   0.2924570   2.1115794  )
        39           O   tau(  39) = (   0.5259326   0.2862720   2.0673016  )
        40           O   tau(  40) = (   0.4249983   0.2845679   2.3094467  )

     number of k points=    13  Marzari-Vanderbilt smearing, width (Ry)=  0.0200
                       cart. coord. in units 2pi/alat
        k(    1) = (   0.0000000   0.0000000   0.0000000), wk =   0.0800000
        k(    2) = (   0.0000000   0.2309401   0.0000000), wk =   0.1600000
        k(    3) = (   0.0000000   0.4618802   0.0000000), wk =   0.1600000
        k(    4) = (   0.2000000  -0.1154701   0.0000000), wk =   0.1600000
        k(    5) = (   0.2000000   0.1154701   0.0000000), wk =   0.1600000
        k(    6) = (   0.2000000   0.3464102   0.0000000), wk =   0.1600000
        k(    7) = (   0.2000000  -0.5773503   0.0000000), wk =   0.1600000
        k(    8) = (   0.2000000  -0.3464102   0.0000000), wk =   0.1600000
        k(    9) = (   0.4000000  -0.2309401   0.0000000), wk =   0.1600000
        k(   10) = (   0.4000000  -0.0000000   0.0000000), wk =   0.1600000
        k(   11) = (   0.4000000   0.2309401   0.0000000), wk =   0.1600000
        k(   12) = (   0.4000000  -0.6928203   0.0000000), wk =   0.1600000
        k(   13) = (   0.4000000  -0.4618802   0.0000000), wk =   0.1600000

     Dense  grid:   747089 G-vectors     FFT dimensions: (  80,  80, 270)

     Estimated max dynamical RAM per process >       9.11 GB

     Check: negative core charge=   -0.000001

     Initial potential from superposition of free atoms

     starting charge  376.99384, renormalised to  377.00000

     negative rho (up, down):  1.335E-02 0.000E+00


     %%%%%%%%%%%%%%%%%%%%%%%%%%%%%%%%%%%%%%%%%%%%%%%%%%%%%%%%%%%%%%%%%%%%%%%%
     %                                                                      %
     % You are using vdW-DF, which was implemented by the Thonhauser group. %
     % Please cite the following two papers that made this development      %
     % possible and the two reviews that describe the various versions:     %
     %                                                                      %
     %   T. Thonhauser et al., PRL 115, 136402 (2015).                      %
     %   T. Thonhauser et al., PRB 76, 125112 (2007).                       %
     %   K. Berland et al., Rep. Prog. Phys. 78, 066501 (2015).             %
     %   D.C. Langreth et al., J. Phys.: Condens. Matter 21, 084203 (2009). %
     %                                                                      %
     %                                                                      %
     % If you are calculating the stress with vdW-DF, please also cite:     %
     %                                                                      %
     %   R. Sabatini et al., J. Phys.: Condens. Matter 24, 424209 (2012).   %
     %                                                                      %
     %%%%%%%%%%%%%%%%%%%%%%%%%%%%%%%%%%%%%%%%%%%%%%%%%%%%%%%%%%%%%%%%%%%%%%%%


     Starting wfcs are  337 randomized atomic wfcs
     Checking if some PAW data can be deallocated... 

     total cpu time spent up to now is      355.1 secs

     Self-consistent Calculation

     iteration #  1     ecut=    60.00 Ry     beta= 0.70
     Davidson diagonalization with overlap
     ethr =  1.00E-02,  avg # of iterations =  2.0

     Threshold (ethr) on eigenvalues was too large:
     Diagonalizing with lowered threshold

     Davidson diagonalization with overlap
     ethr =  7.08E-04,  avg # of iterations =  3.0

     negative rho (up, down):  1.842E-02 0.000E+00

     total cpu time spent up to now is     1763.7 secs

     total energy              =  -27859.13861589 Ry
     estimated scf accuracy    <       2.82654984 Ry

     iteration #  2     ecut=    60.00 Ry     beta= 0.70
     Davidson diagonalization with overlap
     ethr =  7.50E-04,  avg # of iterations =  3.0

     negative rho (up, down):  2.098E-02 0.000E+00

     total cpu time spent up to now is     2417.7 secs

     total energy              =  -27859.31955643 Ry
     estimated scf accuracy    <       1.07356063 Ry

     iteration #  3     ecut=    60.00 Ry     beta= 0.70
     Davidson diagonalization with overlap
     ethr =  2.85E-04,  avg # of iterations =  2.0

     negative rho (up, down):  2.871E-02 0.000E+00

     total cpu time spent up to now is     3078.5 secs

     total energy              =  -27859.36925673 Ry
     estimated scf accuracy    <       0.40406548 Ry

     iteration #  4     ecut=    60.00 Ry     beta= 0.70
     Davidson diagonalization with overlap
     c_bands:  1 eigenvalues not converged
     ethr =  1.07E-04,  avg # of iterations =  9.1

     negative rho (up, down):  3.359E-02 0.000E+00

     total cpu time spent up to now is     3878.5 secs

     total energy              =  -27859.41333068 Ry
     estimated scf accuracy    <       0.21738747 Ry

     iteration #  5     ecut=    60.00 Ry     beta= 0.70
     Davidson diagonalization with overlap
     ethr =  5.77E-05,  avg # of iterations =  5.3

     negative rho (up, down):  4.615E-02 0.000E+00

     total cpu time spent up to now is     4570.1 secs

     total energy              =  -27859.41570299 Ry
     estimated scf accuracy    <       0.05028033 Ry

     iteration #  6     ecut=    60.00 Ry     beta= 0.70
     Davidson diagonalization with overlap
     c_bands:  2 eigenvalues not converged
     c_bands:  2 eigenvalues not converged
     c_bands:  4 eigenvalues not converged
     c_bands:  2 eigenvalues not converged
     c_bands:  1 eigenvalues not converged
     ethr =  1.33E-05,  avg # of iterations = 14.0

     negative rho (up, down):  5.730E-02 0.000E+00

     total cpu time spent up to now is     5570.9 secs

     total energy              =  -27859.42371089 Ry
     estimated scf accuracy    <       0.10047580 Ry

     iteration #  7     ecut=    60.00 Ry     beta= 0.70
     Davidson diagonalization with overlap
     ethr =  1.33E-05,  avg # of iterations =  3.7

     negative rho (up, down):  6.350E-02 0.000E+00

     total cpu time spent up to now is     6212.4 secs

     total energy              =  -27859.42307850 Ry
     estimated scf accuracy    <       0.05022240 Ry

     iteration #  8     ecut=    60.00 Ry     beta= 0.70
     Davidson diagonalization with overlap
     ethr =  1.33E-05,  avg # of iterations =  2.2

     negative rho (up, down):  6.182E-02 0.000E+00

     total cpu time spent up to now is     6851.0 secs

     total energy              =  -27859.42334851 Ry
     estimated scf accuracy    <       0.02061184 Ry

     iteration #  9     ecut=    60.00 Ry     beta= 0.70
     Davidson diagonalization with overlap
     c_bands:  1 eigenvalues not converged
     ethr =  5.47E-06,  avg # of iterations = 10.6

     negative rho (up, down):  5.518E-02 0.000E+00

     total cpu time spent up to now is     7567.8 secs

     total energy              =  -27859.42290466 Ry
     estimated scf accuracy    <       0.00888788 Ry

     iteration # 10     ecut=    60.00 Ry     beta= 0.70
     Davidson diagonalization with overlap
     c_bands:  1 eigenvalues not converged
     c_bands:  1 eigenvalues not converged
     c_bands:  1 eigenvalues not converged
     c_bands:  1 eigenvalues not converged
     ethr =  2.36E-06,  avg # of iterations = 11.9

     negative rho (up, down):  4.970E-02 0.000E+00

     total cpu time spent up to now is     8304.1 secs

     total energy              =  -27859.42270197 Ry
     estimated scf accuracy    <       0.00234496 Ry

     iteration # 11     ecut=    60.00 Ry     beta= 0.70
     Davidson diagonalization with overlap
     c_bands:  1 eigenvalues not converged
     ethr =  6.22E-07,  avg # of iterations =  7.1

     negative rho (up, down):  4.464E-02 0.000E+00

     total cpu time spent up to now is     8975.6 secs

     total energy              =  -27859.42252405 Ry
     estimated scf accuracy    <       0.00086301 Ry

     iteration # 12     ecut=    60.00 Ry     beta= 0.70
     Davidson diagonalization with overlap
     ethr =  2.29E-07,  avg # of iterations =  3.1

     negative rho (up, down):  3.595E-02 0.000E+00

     total cpu time spent up to now is     9633.5 secs

     total energy              =  -27859.42219021 Ry
     estimated scf accuracy    <       0.00056075 Ry

     iteration # 13     ecut=    60.00 Ry     beta= 0.70
     Davidson diagonalization with overlap
     c_bands:  1 eigenvalues not converged
     c_bands:  1 eigenvalues not converged
     c_bands:  1 eigenvalues not converged
     ethr =  1.49E-07,  avg # of iterations =  6.9

     negative rho (up, down):  3.137E-02 0.000E+00

     total cpu time spent up to now is    10312.0 secs

     total energy              =  -27859.42206376 Ry
     estimated scf accuracy    <       0.00048609 Ry

     iteration # 14     ecut=    60.00 Ry     beta= 0.70
     Davidson diagonalization with overlap
     ethr =  1.29E-07,  avg # of iterations =  2.9

     negative rho (up, down):  2.558E-02 0.000E+00

     total cpu time spent up to now is    10910.3 secs

     total energy              =  -27859.42192570 Ry
     estimated scf accuracy    <       0.00037609 Ry

     iteration # 15     ecut=    60.00 Ry     beta= 0.70
     Davidson diagonalization with overlap
     c_bands:  1 eigenvalues not converged
     ethr =  9.98E-08,  avg # of iterations =  3.5

     negative rho (up, down):  2.103E-02 0.000E+00

     total cpu time spent up to now is    11511.2 secs

     total energy              =  -27859.42184583 Ry
     estimated scf accuracy    <       0.00015883 Ry

     iteration # 16     ecut=    60.00 Ry     beta= 0.70
     Davidson diagonalization with overlap
     ethr =  4.21E-08,  avg # of iterations =  3.1

     negative rho (up, down):  1.726E-02 0.000E+00

     total cpu time spent up to now is    12146.6 secs

     total energy              =  -27859.42180374 Ry
     estimated scf accuracy    <       0.00014095 Ry

     iteration # 17     ecut=    60.00 Ry     beta= 0.70
     Davidson diagonalization with overlap
     c_bands:  1 eigenvalues not converged
     c_bands:  1 eigenvalues not converged
     ethr =  3.74E-08,  avg # of iterations =  7.8

     negative rho (up, down):  1.536E-02 0.000E+00

     total cpu time spent up to now is    12786.8 secs

     total energy              =  -27859.42179184 Ry
     estimated scf accuracy    <       0.00005601 Ry

     iteration # 18     ecut=    60.00 Ry     beta= 0.70
     Davidson diagonalization with overlap
     ethr =  1.49E-08,  avg # of iterations =  2.5

     negative rho (up, down):  1.490E-02 0.000E+00

     total cpu time spent up to now is    13433.2 secs

     total energy              =  -27859.42179710 Ry
     estimated scf accuracy    <       0.00001734 Ry

     iteration # 19     ecut=    60.00 Ry     beta= 0.70
     Davidson diagonalization with overlap
     ethr =  4.60E-09,  avg # of iterations =  4.0

     negative rho (up, down):  1.460E-02 0.000E+00

     total cpu time spent up to now is    14186.3 secs

     total energy              =  -27859.42180067 Ry
     estimated scf accuracy    <       0.00000437 Ry

     iteration # 20     ecut=    60.00 Ry     beta= 0.70
     Davidson diagonalization with overlap
     ethr =  1.16E-09,  avg # of iterations =  4.0

     negative rho (up, down):  1.448E-02 0.000E+00

     total cpu time spent up to now is    15096.3 secs

     total energy              =  -27859.42180225 Ry
     estimated scf accuracy    <       0.00000190 Ry

     iteration # 21     ecut=    60.00 Ry     beta= 0.70
     Davidson diagonalization with overlap
     ethr =  5.04E-10,  avg # of iterations =  1.7

     negative rho (up, down):  1.450E-02 0.000E+00

     total cpu time spent up to now is    15720.0 secs

     total energy              =  -27859.42180216 Ry
     estimated scf accuracy    <       0.00000129 Ry

     iteration # 22     ecut=    60.00 Ry     beta= 0.70
     Davidson diagonalization with overlap
     ethr =  3.42E-10,  avg # of iterations =  2.0

     negative rho (up, down):  1.436E-02 0.000E+00

     total cpu time spent up to now is    16325.7 secs

     End of self-consistent calculation

          k = 0.0000 0.0000 0.0000 ( 93407 PWs)   bands (ev):

   -20.3778 -18.1830  -8.1478  -7.8840  -6.6656  -6.3117  -5.4956  -5.4711
    -5.4676  -5.4665  -5.4565  -5.4461  -5.4417  -5.4185  -4.9094  -4.9054
    -4.9043  -4.8987  -4.8969  -4.8851  -4.4423  -4.4411  -4.4313  -4.4251
    -4.4228  -4.4161  -4.2287  -4.2237  -4.2162  -4.2127  -4.2119  -4.1822
    -4.0984  -4.0492  -3.9934  -3.9874  -3.9832  -3.9802  -3.9798  -3.9725
    -3.9689  -3.9643  -3.9494  -3.9408  -3.9298  -3.8939  -3.3664  -3.3642
    -3.3534  -3.3502  -3.3250  -3.2856  -3.2838  -3.2807  -3.2695  -3.2663
    -3.1410  -3.1375  -3.0566  -3.0504  -2.6057  -2.5408  -2.5377  -2.5346
    -2.5311  -2.5242  -2.4688  -2.3981  -2.3742  -2.3735  -2.3669  -2.3464
    -2.3399  -2.3396  -2.3226  -2.3172  -2.3118  -2.3027  -2.2954  -2.2902
    -2.2730  -2.2692  -2.1876  -2.1331  -2.1227  -2.1176  -2.1106  -2.1039
    -1.9828  -1.9707  -1.9676  -1.9552  -1.9521  -1.9426  -1.8850  -1.8830
    -1.8128  -1.7971  -1.7775  -1.7483  -1.7390  -1.7284  -1.6880  -1.6864
    -1.6480  -1.6464  -1.5919  -1.5432  -1.5003  -1.4933  -1.4847  -1.4719
    -1.4288  -1.2075  -1.1308  -1.0347  -1.0113  -1.0084  -1.0000  -0.9979
    -0.9970  -0.9616  -0.9224  -0.9213  -0.9197  -0.8659  -0.8335  -0.8259
    -0.7696  -0.7083  -0.6822  -0.6807  -0.6323  -0.5976  -0.5752  -0.5406
    -0.5266  -0.5153  -0.5076  -0.5068  -0.3478  -0.2970  -0.2672  -0.2646
    -0.2630  -0.2493  -0.1960  -0.1934  -0.1187  -0.0458  -0.0011   0.0007
     0.0126   0.0215   0.0514   0.0988   0.1431   0.1459   0.1689   0.1727
     0.1778   0.1959   0.2147   0.2170   0.2322   0.2547   0.2669   0.3181
     0.3299   0.3340   0.3461   0.3724   0.3832   0.3871   0.3956   0.4229
     0.4241   0.4658   0.4686   0.4731   0.4810   0.4999   0.5078   0.5486
     0.5619   0.5630   0.5795   0.5885   0.5902   0.5975   0.6846   0.6852
     0.6892   0.7028   0.7036   0.7497   0.8938   0.9035   0.9933   0.9964
     1.0196   1.0209   1.0247   1.0366   1.1555   1.9062   1.9185   1.9249
     1.9409   1.9587   1.9716   2.7420   4.2236   4.2408   4.2724   4.2776
     4.2929   4.8137   5.6164   5.7765   5.7812   5.8263   5.8298   5.8443
     5.8651   6.2022   6.5086

          k = 0.0000 0.2309 0.0000 ( 93316 PWs)   bands (ev):

   -20.3778 -18.1830  -8.1468  -7.7388  -6.5732  -6.2691  -5.9591  -5.5717
    -5.5663  -5.3463  -5.3154  -5.2670  -5.2214  -5.2157  -5.0084  -4.9953
    -4.8456  -4.8386  -4.8241  -4.8104  -4.5419  -4.4112  -4.4081  -4.3845
    -4.3767  -4.3127  -4.3096  -4.2487  -4.2465  -4.2418  -4.2360  -4.1686
    -4.1424  -4.1331  -4.0946  -4.0331  -4.0078  -3.9979  -3.9738  -3.9527
    -3.9340  -3.7949  -3.7776  -3.7722  -3.7580  -3.7292  -3.4969  -3.4884
    -3.4478  -3.4154  -3.4049  -3.3705  -3.3585  -3.2008  -3.1803  -3.1274
    -3.1144  -3.0769  -3.0500  -3.0426  -2.8351  -2.7547  -2.7344  -2.6580
    -2.6496  -2.6191  -2.5827  -2.5512  -2.5339  -2.5135  -2.5039  -2.4966
    -2.4448  -2.4035  -2.3588  -2.3484  -2.3384  -2.2825  -2.2680  -2.2541
    -2.2164  -2.1911  -2.1752  -2.1453  -2.0859  -2.0777  -2.0609  -2.0518
    -1.9998  -1.9735  -1.9659  -1.9564  -1.9534  -1.9067  -1.8968  -1.8679
    -1.8416  -1.8197  -1.7813  -1.7730  -1.7439  -1.7368  -1.7209  -1.6808
    -1.6726  -1.6263  -1.5799  -1.5463  -1.4999  -1.4979  -1.4880  -1.4819
    -1.4610  -1.4329  -1.4036  -1.3925  -1.3892  -1.3550  -1.2427  -1.1449
    -1.0879  -1.0509  -1.0353  -0.9899  -0.9651  -0.9551  -0.9382  -0.9227
    -0.8060  -0.7874  -0.7253  -0.6981  -0.6265  -0.6133  -0.5996  -0.5848
    -0.5665  -0.5092  -0.4904  -0.4574  -0.4280  -0.4117  -0.3863  -0.3784
    -0.3508  -0.3150  -0.1971  -0.1630  -0.1491  -0.1306  -0.1244  -0.1031
    -0.0565  -0.0192   0.0042   0.0364   0.0386   0.0809   0.0984   0.1173
     0.1201   0.1394   0.2156   0.2410   0.2509   0.2748   0.3478   0.3716
     0.4054   0.4121   0.4159   0.4306   0.4517   0.4691   0.5344   0.5513
     0.5810   0.6097   0.6169   0.6372   0.6568   0.6663   0.6695   0.6735
     0.6857   0.7304   0.7454   0.8641   0.8926   0.9137   0.9171   0.9271
     0.9485   0.9805   0.9870   1.0152   1.0314   1.0593   1.1300   1.1479
     1.1579   1.3163   1.3207   1.3337   1.3880   1.6046   1.8099   2.0330
     2.5197   2.5515   2.6442   2.9750   3.6329   3.9866   4.2078   4.6386
     4.6402   4.7960   4.9478   5.2230   5.5310   5.6396   5.7596   5.9995
     6.0200   6.0639   6.3080

          k = 0.0000 0.4619 0.0000 ( 93390 PWs)   bands (ev):

   -20.3778 -18.1830  -8.1461  -7.3201  -6.7064  -6.4219  -5.9709  -5.6054
    -5.6002  -5.4438  -5.2397  -5.0880  -4.9619  -4.9261  -4.8818  -4.8770
    -4.7104  -4.6940  -4.6685  -4.6625  -4.6531  -4.5421  -4.5013  -4.4974
    -4.4547  -4.4485  -4.3944  -4.3671  -4.3101  -4.3068  -4.2903  -4.0985
    -4.0494  -4.0339  -4.0288  -4.0223  -4.0160  -4.0077  -3.9815  -3.7892
    -3.7862  -3.7448  -3.7410  -3.7277  -3.7143  -3.5268  -3.4550  -3.4506
    -3.4348  -3.4261  -3.3727  -3.3631  -3.3090  -3.3000  -3.2919  -3.2320
    -3.2214  -3.0924  -3.0847  -3.0548  -3.0368  -2.9325  -2.9059  -2.8683
    -2.8575  -2.8499  -2.7120  -2.6481  -2.6410  -2.6254  -2.6202  -2.5436
    -2.5382  -2.5076  -2.4509  -2.4015  -2.3973  -2.3693  -2.3206  -2.2632
    -2.2483  -2.2415  -2.2360  -2.1974  -2.1623  -2.1511  -2.1452  -2.1374
    -2.1253  -2.1202  -2.0999  -2.0710  -2.0182  -1.9916  -1.9800  -1.9614
    -1.9467  -1.9349  -1.9033  -1.8230  -1.8000  -1.7562  -1.7265  -1.7054
    -1.6821  -1.6683  -1.6519  -1.6369  -1.5338  -1.5142  -1.5014  -1.4723
    -1.4331  -1.3904  -1.3722  -1.3356  -1.2385  -1.2263  -1.1653  -1.1218
    -1.0913  -1.0740  -1.0613  -1.0304  -1.0247  -1.0024  -0.9517  -0.9388
    -0.9165  -0.9103  -0.8957  -0.8724  -0.8657  -0.8324  -0.7890  -0.7488
    -0.7047  -0.6919  -0.6298  -0.6073  -0.5934  -0.5040  -0.4980  -0.4384
    -0.3720  -0.3362  -0.2620  -0.2214  -0.2127  -0.1772  -0.1523  -0.1304
    -0.0974  -0.0677  -0.0362  -0.0243   0.0076   0.0181   0.0416   0.1176
     0.1453   0.1570   0.1721   0.1791   0.2080   0.2326   0.3244   0.3873
     0.4204   0.4316   0.4453   0.4649   0.4704   0.5583   0.5781   0.6207
     0.6745   0.6817   0.6928   0.7436   0.7580   0.7668   0.7841   0.8499
     0.8953   0.9113   0.9180   0.9369   0.9425   0.9626   0.9640   1.1233
     1.1283   1.1676   1.1790   1.1833   1.3484   1.3886   1.3946   1.8178
     1.8580   1.9493   2.2080   2.2181   2.3229   2.6149   2.6299   2.9477
     2.9719   3.4233   3.4303   3.4919   3.6812   3.7248   3.7906   3.8866
     4.0911   4.0983   4.2121   4.7615   4.9130   5.2478   5.3619   5.5813
     5.9124   5.9335   6.4682

          k = 0.2000-0.1155 0.0000 ( 93316 PWs)   bands (ev):

   -20.3778 -18.1830  -8.1476  -7.7383  -6.5710  -6.2688  -5.9597  -5.5733
    -5.5667  -5.3458  -5.3149  -5.2620  -5.2238  -5.2187  -5.0122  -4.9967
    -4.8440  -4.8382  -4.8239  -4.8041  -4.5444  -4.4125  -4.4067  -4.3832
    -4.3769  -4.3151  -4.3091  -4.2491  -4.2451  -4.2410  -4.2339  -4.1663
    -4.1459  -4.1364  -4.0805  -4.0429  -4.0078  -3.9909  -3.9725  -3.9571
    -3.9329  -3.7962  -3.7767  -3.7737  -3.7572  -3.7339  -3.4986  -3.4934
    -3.4604  -3.4119  -3.4074  -3.3616  -3.3567  -3.1967  -3.1804  -3.1237
    -3.1149  -3.0828  -3.0486  -3.0412  -2.8447  -2.7481  -2.7352  -2.6686
    -2.6563  -2.6120  -2.5865  -2.5483  -2.5342  -2.5117  -2.5035  -2.4943
    -2.4436  -2.3863  -2.3572  -2.3523  -2.3419  -2.2800  -2.2679  -2.2430
    -2.2042  -2.1942  -2.1861  -2.1542  -2.0897  -2.0799  -2.0682  -2.0627
    -2.0128  -1.9864  -1.9610  -1.9590  -1.9526  -1.9108  -1.9006  -1.8501
    -1.8339  -1.8290  -1.7816  -1.7804  -1.7484  -1.7380  -1.7094  -1.6848
    -1.6730  -1.6100  -1.5797  -1.5364  -1.5022  -1.4977  -1.4876  -1.4725
    -1.4621  -1.4318  -1.4109  -1.3962  -1.3830  -1.3686  -1.2067  -1.1319
    -1.1059  -1.0611  -1.0057  -0.9858  -0.9633  -0.9563  -0.9430  -0.9169
    -0.8368  -0.7839  -0.7707  -0.6595  -0.6384  -0.6160  -0.5881  -0.5815
    -0.5763  -0.5026  -0.4946  -0.4807  -0.4137  -0.4003  -0.3916  -0.3691
    -0.3593  -0.2665  -0.1961  -0.1594  -0.1473  -0.1408  -0.1176  -0.0896
    -0.0633  -0.0148   0.0084   0.0317   0.0456   0.0695   0.0831   0.1032
     0.1261   0.1316   0.1818   0.2444   0.2674   0.2914   0.3344   0.3742
     0.3985   0.4095   0.4275   0.4384   0.4523   0.4765   0.5325   0.5504
     0.5901   0.6081   0.6174   0.6340   0.6557   0.6656   0.6686   0.6727
     0.6837   0.7321   0.7493   0.8711   0.8927   0.9096   0.9164   0.9263
     0.9434   0.9753   0.9835   1.0122   1.0299   1.0566   1.1314   1.1433
     1.1579   1.3099   1.3231   1.3309   1.4023   1.5870   1.8062   2.0318
     2.5294   2.5460   2.6547   2.9722   3.6278   3.9772   4.2090   4.6381
     4.6429   4.8137   4.9427   5.2155   5.5720   5.6396   5.6983   6.0066
     6.0204   6.0658   6.3031

          k = 0.2000 0.1155 0.0000 ( 93316 PWs)   bands (ev):

   -20.3778 -18.1830  -8.1476  -7.7383  -6.5709  -6.2684  -5.9621  -5.5731
    -5.5646  -5.3458  -5.3150  -5.2660  -5.2239  -5.2147  -5.0127  -4.9948
    -4.8429  -4.8389  -4.8236  -4.8069  -4.5406  -4.4126  -4.4089  -4.3821
    -4.3776  -4.3152  -4.3094  -4.2504  -4.2458  -4.2399  -4.2368  -4.1680
    -4.1441  -4.1357  -4.0818  -4.0415  -4.0077  -3.9936  -3.9732  -3.9545
    -3.9340  -3.7953  -3.7769  -3.7740  -3.7565  -3.7306  -3.4952  -3.4885
    -3.4452  -3.4141  -3.4077  -3.3761  -3.3566  -3.2063  -3.1801  -3.1306
    -3.1138  -3.0721  -3.0517  -3.0458  -2.8388  -2.7533  -2.7353  -2.6574
    -2.6545  -2.6317  -2.5788  -2.5463  -2.5329  -2.5121  -2.5016  -2.4916
    -2.4433  -2.4163  -2.3640  -2.3493  -2.3395  -2.2725  -2.2659  -2.2436
    -2.2167  -2.1943  -2.1865  -2.1307  -2.0842  -2.0796  -2.0673  -2.0589
    -1.9994  -1.9814  -1.9614  -1.9596  -1.9462  -1.9153  -1.8909  -1.8654
    -1.8352  -1.8148  -1.7808  -1.7767  -1.7483  -1.7274  -1.7093  -1.6837
    -1.6732  -1.6242  -1.5818  -1.5404  -1.5033  -1.4974  -1.4845  -1.4748
    -1.4628  -1.4276  -1.4065  -1.3936  -1.3858  -1.3671  -1.3076  -1.1138
    -1.0805  -1.0565  -1.0093  -0.9875  -0.9645  -0.9561  -0.9421  -0.9169
    -0.8368  -0.7845  -0.7559  -0.6581  -0.6394  -0.6130  -0.5881  -0.5816
    -0.5700  -0.5035  -0.4960  -0.4682  -0.4140  -0.4022  -0.3959  -0.3657
    -0.3563  -0.2699  -0.1907  -0.1532  -0.1505  -0.1386  -0.1240  -0.1048
    -0.0744  -0.0281   0.0151   0.0205   0.0370   0.0686   0.0952   0.1142
     0.1267   0.1343   0.2223   0.2443   0.2600   0.2973   0.3332   0.3710
     0.3944   0.4066   0.4261   0.4433   0.4534   0.4740   0.5323   0.5509
     0.5629   0.6095   0.6169   0.6371   0.6551   0.6664   0.6719   0.6738
     0.6833   0.7315   0.7474   0.8686   0.8933   0.9140   0.9188   0.9251
     0.9450   0.9758   0.9848   1.0128   1.0297   1.0523   1.1322   1.1458
     1.1585   1.3116   1.3226   1.3314   1.4000   1.5933   1.8089   2.0253
     2.5290   2.5458   2.6553   2.9707   3.6246   3.9783   4.2117   4.6377
     4.6432   4.8179   4.9420   5.2107   5.5693   5.6428   5.6914   6.0059
     6.0198   6.0758   6.3044

          k = 0.2000 0.3464 0.0000 ( 93342 PWs)   bands (ev):

   -20.3778 -18.1830  -8.1468  -7.4554  -6.5009  -6.2268  -6.1975  -6.0580
    -5.1497  -5.1437  -5.1193  -5.1073  -5.0791  -5.0648  -5.0566  -5.0352
    -4.9598  -4.9504  -4.5776  -4.5707  -4.5603  -4.5548  -4.5033  -4.4722
    -4.3338  -4.3149  -4.3075  -4.2901  -4.2852  -4.2168  -4.1657  -4.1523
    -4.1396  -4.1262  -4.0901  -4.0719  -4.0496  -4.0202  -3.9879  -3.9786
    -3.9715  -3.8912  -3.6426  -3.5482  -3.5410  -3.5251  -3.5030  -3.4967
    -3.4787  -3.4651  -3.4249  -3.4149  -3.2701  -3.2525  -3.2495  -3.1654
    -3.1371  -3.0838  -3.0780  -3.0643  -2.9970  -2.9829  -2.8302  -2.8094
    -2.7883  -2.7203  -2.7092  -2.6782  -2.6676  -2.6593  -2.6048  -2.5926
    -2.4795  -2.4405  -2.4243  -2.4136  -2.3705  -2.3508  -2.3137  -2.2965
    -2.2832  -2.2694  -2.2063  -2.1404  -2.1244  -2.1152  -2.0990  -2.0962
    -2.0896  -2.0474  -2.0362  -1.9919  -1.9666  -1.9560  -1.9443  -1.8774
    -1.8708  -1.8455  -1.7994  -1.7772  -1.7563  -1.7376  -1.7257  -1.7136
    -1.6879  -1.6783  -1.6495  -1.6422  -1.6386  -1.6123  -1.5842  -1.5629
    -1.4928  -1.4650  -1.4333  -1.4158  -1.3736  -1.3463  -1.3370  -1.2411
    -1.1582  -1.1390  -1.0816  -0.9987  -0.9839  -0.9521  -0.9428  -0.9228
    -0.9043  -0.8923  -0.8609  -0.8505  -0.8131  -0.7643  -0.7381  -0.6691
    -0.6183  -0.5548  -0.5315  -0.5149  -0.4960  -0.4647  -0.4419  -0.4070
    -0.3353  -0.3075  -0.2760  -0.2537  -0.2429  -0.1887  -0.1359  -0.1017
    -0.0840  -0.0785  -0.0266  -0.0094  -0.0006   0.0073   0.0238   0.0304
     0.0499   0.0697   0.1164   0.1528   0.2472   0.2792   0.3450   0.3795
     0.4127   0.4517   0.5513   0.5592   0.5769   0.6077   0.6821   0.6907
     0.7051   0.7150   0.7338   0.7515   0.7606   0.7781   0.7866   0.8240
     0.8438   0.8476   0.9049   0.9407   0.9513   0.9757   0.9881   1.0246
     1.0844   1.1817   1.2245   1.2370   1.2927   1.3113   1.3233   1.4432
     1.4549   1.5928   1.9758   1.9853   2.1286   2.5185   2.5298   2.5825
     2.7052   3.2700   3.3023   3.4381   3.4891   3.5126   3.8030   4.1666
     4.6251   4.7308   4.8453   4.8776   5.3471   5.4200   5.4733   5.5144
     5.5302   5.7289   5.8806

          k = 0.2000-0.5774 0.0000 ( 93312 PWs)   bands (ev):

   -20.3778 -18.1830  -8.1466  -6.9388  -6.9197  -6.4434  -6.2626  -5.6603
    -5.5977  -5.1466  -5.1225  -5.0079  -4.9713  -4.8643  -4.8568  -4.7617
    -4.7524  -4.6440  -4.6316  -4.6271  -4.5942  -4.5820  -4.5727  -4.5582
    -4.4396  -4.4219  -4.4130  -4.3818  -4.3771  -4.2869  -4.2016  -4.1664
    -4.1232  -4.0753  -4.0352  -4.0064  -3.9963  -3.9906  -3.9730  -3.9553
    -3.8675  -3.8582  -3.7683  -3.7592  -3.5923  -3.5787  -3.5123  -3.4355
    -3.4195  -3.3806  -3.3671  -3.2633  -3.2255  -3.1792  -3.1719  -3.1471
    -3.1044  -3.0883  -3.0654  -2.9714  -2.9610  -2.9412  -2.9313  -2.9234
    -2.9152  -2.9112  -2.8596  -2.8396  -2.7262  -2.7020  -2.6524  -2.6454
    -2.5415  -2.5244  -2.4906  -2.4829  -2.4473  -2.4155  -2.4046  -2.3781
    -2.3172  -2.2964  -2.2817  -2.2553  -2.2288  -2.2062  -2.1705  -2.1375
    -2.0982  -2.0743  -2.0543  -2.0469  -1.9689  -1.9271  -1.8879  -1.8780
    -1.8608  -1.8442  -1.8063  -1.7996  -1.7896  -1.7600  -1.7548  -1.7287
    -1.7070  -1.6993  -1.6563  -1.6479  -1.6460  -1.6431  -1.6311  -1.5949
    -1.5683  -1.5396  -1.5271  -1.4004  -1.3276  -1.2806  -1.2306  -1.2248
    -1.1838  -1.1110  -1.1042  -1.0898  -1.0317  -1.0145  -0.9930  -0.9692
    -0.9601  -0.9191  -0.8844  -0.8548  -0.8298  -0.7930  -0.7491  -0.7227
    -0.7027  -0.6210  -0.5624  -0.5219  -0.4691  -0.4414  -0.4280  -0.4105
    -0.3517  -0.3294  -0.3126  -0.3088  -0.2758  -0.2535  -0.2361  -0.1867
    -0.1404  -0.1074  -0.0978  -0.0663  -0.0608  -0.0429  -0.0333   0.0068
     0.0377   0.1358   0.1765   0.2421   0.2527   0.3043   0.3846   0.3961
     0.4294   0.4957   0.5235   0.5267   0.5686   0.6518   0.6836   0.6954
     0.7294   0.7417   0.7608   0.7834   0.8076   0.8202   0.8896   0.9051
     0.9156   0.9315   0.9568   0.9725   0.9876   1.0252   1.1367   1.1506
     1.1736   1.1785   1.1848   1.2369   1.2825   1.3607   1.4934   1.6860
     2.3195   2.3234   2.5669   2.6221   2.7123   2.7204   2.7525   2.8816
     3.3155   3.3373   3.3655   3.8054   3.8446   3.9187   3.9433   3.9512
     4.1767   4.2556   4.3858   4.5724   4.7530   4.7867   4.9040   5.4034
     5.4183   5.4820   5.5991

          k = 0.2000-0.3464 0.0000 ( 93342 PWs)   bands (ev):

   -20.3778 -18.1830  -8.1469  -7.4554  -6.5012  -6.2267  -6.1966  -6.0578
    -5.1490  -5.1416  -5.1195  -5.1060  -5.0803  -5.0645  -5.0565  -5.0396
    -4.9594  -4.9522  -4.5771  -4.5665  -4.5621  -4.5584  -4.4984  -4.4757
    -4.3355  -4.3148  -4.3076  -4.2898  -4.2859  -4.2174  -4.1642  -4.1521
    -4.1383  -4.1271  -4.0878  -4.0712  -4.0502  -4.0209  -3.9907  -3.9754
    -3.9677  -3.8912  -3.6394  -3.5531  -3.5399  -3.5283  -3.5141  -3.4977
    -3.4891  -3.4642  -3.4261  -3.4108  -3.2573  -3.2527  -3.2375  -3.1680
    -3.1388  -3.0820  -3.0750  -3.0673  -3.0035  -2.9842  -2.8172  -2.8034
    -2.7941  -2.7182  -2.6997  -2.6864  -2.6744  -2.6595  -2.6007  -2.5925
    -2.4670  -2.4331  -2.4256  -2.4123  -2.3686  -2.3485  -2.3277  -2.3019
    -2.2900  -2.2685  -2.2139  -2.1476  -2.1246  -2.1212  -2.1020  -2.0925
    -2.0914  -2.0563  -2.0458  -2.0144  -1.9694  -1.9481  -1.9297  -1.8789
    -1.8684  -1.8410  -1.8197  -1.7699  -1.7514  -1.7429  -1.7257  -1.7044
    -1.6874  -1.6744  -1.6566  -1.6437  -1.6362  -1.6079  -1.5839  -1.5642
    -1.4760  -1.4690  -1.4280  -1.4032  -1.3639  -1.3400  -1.3153  -1.2442
    -1.1584  -1.1265  -1.0941  -0.9999  -0.9870  -0.9543  -0.9416  -0.9161
    -0.9113  -0.8964  -0.8672  -0.8466  -0.7963  -0.7807  -0.7515  -0.6756
    -0.6197  -0.5510  -0.5395  -0.5152  -0.4982  -0.4729  -0.4424  -0.4065
    -0.3310  -0.3092  -0.2787  -0.2494  -0.2307  -0.1744  -0.1271  -0.1085
    -0.0861  -0.0754  -0.0321  -0.0150  -0.0011   0.0136   0.0241   0.0306
     0.0436   0.0670   0.1049   0.1390   0.2596   0.2871   0.3253   0.3859
     0.4286   0.4586   0.5569   0.5622   0.5785   0.6103   0.6839   0.6869
     0.6938   0.7130   0.7335   0.7491   0.7622   0.7776   0.7850   0.8246
     0.8398   0.8481   0.9043   0.9410   0.9527   0.9756   0.9875   1.0254
     1.0792   1.1796   1.2234   1.2369   1.2915   1.3097   1.3233   1.4444
     1.4556   1.5970   1.9804   1.9885   2.1220   2.5162   2.5308   2.5826
     2.7065   3.2726   3.3010   3.4380   3.4915   3.5110   3.8053   4.1653
     4.6244   4.7300   4.8416   4.8787   5.3578   5.4278   5.4661   5.5136
     5.5359   5.7119   5.8688

          k = 0.4000-0.2309 0.0000 ( 93390 PWs)   bands (ev):

   -20.3778 -18.1830  -8.1479  -7.3184  -6.7009  -6.4232  -5.9736  -5.6067
    -5.5989  -5.4465  -5.2353  -5.0877  -4.9603  -4.9244  -4.8848  -4.8801
    -4.7107  -4.6880  -4.6681  -4.6565  -4.6552  -4.5383  -4.5031  -4.5004
    -4.4505  -4.4483  -4.3955  -4.3624  -4.3127  -4.3078  -4.2879  -4.0931
    -4.0571  -4.0351  -4.0312  -4.0285  -4.0163  -4.0134  -3.9721  -3.7886
    -3.7851  -3.7459  -3.7433  -3.7288  -3.7111  -3.5492  -3.4545  -3.4491
    -3.4333  -3.4278  -3.3669  -3.3613  -3.3171  -3.2987  -3.2884  -3.2298
    -3.2180  -3.0954  -3.0864  -3.0557  -3.0386  -2.9359  -2.9161  -2.8775
    -2.8628  -2.8560  -2.7118  -2.6516  -2.6272  -2.6207  -2.6162  -2.5439
    -2.5215  -2.5025  -2.4611  -2.3907  -2.3826  -2.3674  -2.3234  -2.2649
    -2.2524  -2.2451  -2.2387  -2.2017  -2.1669  -2.1553  -2.1425  -2.1403
    -2.1307  -2.1239  -2.1170  -2.0788  -2.0328  -1.9939  -1.9870  -1.9620
    -1.9512  -1.9398  -1.8880  -1.8182  -1.7961  -1.7613  -1.7460  -1.6943
    -1.6905  -1.6593  -1.6494  -1.6339  -1.5479  -1.5140  -1.5037  -1.4565
    -1.4160  -1.3925  -1.3218  -1.2976  -1.2331  -1.2092  -1.1693  -1.1396
    -1.0980  -1.0689  -1.0503  -1.0336  -1.0248  -1.0041  -0.9498  -0.9408
    -0.9230  -0.9093  -0.8936  -0.8916  -0.8613  -0.8300  -0.8099  -0.7501
    -0.7072  -0.6904  -0.6629  -0.6055  -0.5433  -0.5119  -0.4929  -0.4157
    -0.3697  -0.3193  -0.2587  -0.2354  -0.2070  -0.1757  -0.1524  -0.1377
    -0.1121  -0.0918  -0.0468  -0.0154   0.0013   0.0172   0.0683   0.0878
     0.1333   0.1535   0.1625   0.1864   0.2084   0.2513   0.3268   0.3963
     0.4295   0.4346   0.4586   0.4669   0.4830   0.5569   0.5774   0.6249
     0.6788   0.6842   0.6938   0.7390   0.7527   0.7722   0.7845   0.8464
     0.8936   0.9098   0.9191   0.9337   0.9381   0.9509   0.9583   1.1183
     1.1258   1.1648   1.1744   1.1789   1.3487   1.3874   1.3949   1.8103
     1.8650   1.9408   2.2056   2.2192   2.3312   2.6175   2.6282   2.9408
     2.9691   3.4222   3.4311   3.4789   3.6838   3.7329   3.7819   3.8723
     4.0871   4.1044   4.2205   4.7506   4.9141   5.2777   5.3504   5.5983
     5.8322   5.9192   6.4756

          k = 0.4000-0.0000 0.0000 ( 93342 PWs)   bands (ev):

   -20.3778 -18.1830  -8.1480  -7.4542  -6.4975  -6.2278  -6.1951  -6.0612
    -5.1477  -5.1407  -5.1203  -5.1062  -5.0818  -5.0681  -5.0562  -5.0377
    -4.9593  -4.9512  -4.5749  -4.5645  -4.5602  -4.5551  -4.4999  -4.4739
    -4.3371  -4.3145  -4.3059  -4.2896  -4.2868  -4.2220  -4.1674  -4.1529
    -4.1395  -4.1273  -4.0824  -4.0727  -4.0512  -4.0154  -3.9970  -3.9760
    -3.9535  -3.8986  -3.6371  -3.5543  -3.5417  -3.5269  -3.5062  -3.4990
    -3.4888  -3.4695  -3.4272  -3.4133  -3.2609  -3.2533  -3.2466  -3.1676
    -3.1380  -3.0837  -3.0780  -3.0692  -2.9998  -2.9832  -2.8283  -2.8076
    -2.7937  -2.7273  -2.7051  -2.6801  -2.6732  -2.6614  -2.6030  -2.5932
    -2.4632  -2.4379  -2.4180  -2.4102  -2.3624  -2.3475  -2.3285  -2.2998
    -2.2855  -2.2681  -2.2158  -2.1599  -2.1236  -2.1170  -2.0978  -2.0938
    -2.0903  -2.0507  -2.0455  -2.0102  -1.9616  -1.9457  -1.9251  -1.8881
    -1.8687  -1.8397  -1.8264  -1.7745  -1.7495  -1.7407  -1.7275  -1.6939
    -1.6906  -1.6766  -1.6507  -1.6446  -1.6387  -1.6194  -1.5736  -1.5574
    -1.4819  -1.4652  -1.4499  -1.4146  -1.3576  -1.3380  -1.3234  -1.2239
    -1.1593  -1.1218  -1.0896  -1.0066  -0.9837  -0.9572  -0.9430  -0.9273
    -0.9102  -0.8968  -0.8618  -0.8489  -0.8067  -0.7786  -0.7552  -0.6413
    -0.6161  -0.5524  -0.5363  -0.5190  -0.4898  -0.4814  -0.4343  -0.3630
    -0.3351  -0.3186  -0.2829  -0.2524  -0.2296  -0.1815  -0.1346  -0.1109
    -0.0893  -0.0529  -0.0322  -0.0156   0.0009   0.0126   0.0171   0.0281
     0.0457   0.0529   0.1014   0.1484   0.2630   0.2894   0.3222   0.3868
     0.3966   0.4617   0.5518   0.5665   0.5810   0.6130   0.6823   0.6919
     0.6947   0.7122   0.7390   0.7503   0.7628   0.7770   0.7850   0.8259
     0.8404   0.8444   0.9059   0.9449   0.9534   0.9757   0.9873   1.0263
     1.0800   1.1740   1.2198   1.2332   1.2931   1.3098   1.3192   1.4494
     1.4575   1.5964   1.9753   1.9898   2.1230   2.5086   2.5281   2.5841
     2.7017   3.2712   3.3023   3.4375   3.4914   3.5138   3.7938   4.1653
     4.6243   4.7192   4.8511   4.8815   5.3563   5.3868   5.4711   5.5279
     5.5406   5.7931   5.8251

          k = 0.4000 0.2309 0.0000 ( 93390 PWs)   bands (ev):

   -20.3778 -18.1830  -8.1478  -7.3184  -6.7004  -6.4249  -5.9737  -5.6064
    -5.5977  -5.4461  -5.2400  -5.0871  -4.9601  -4.9249  -4.8844  -4.8760
    -4.7104  -4.6883  -4.6681  -4.6587  -4.6528  -4.5382  -4.5020  -4.4987
    -4.4522  -4.4488  -4.3945  -4.3635  -4.3120  -4.3105  -4.2907  -4.0933
    -4.0563  -4.0349  -4.0301  -4.0279  -4.0175  -4.0140  -3.9715  -3.7897
    -3.7854  -3.7467  -3.7420  -3.7223  -3.7115  -3.5315  -3.4572  -3.4492
    -3.4335  -3.4264  -3.3759  -3.3657  -3.3121  -3.2982  -3.2893  -3.2318
    -3.2280  -3.0965  -3.0862  -3.0582  -3.0368  -2.9371  -2.9100  -2.8686
    -2.8610  -2.8500  -2.7143  -2.6702  -2.6424  -2.6231  -2.6178  -2.5519
    -2.5375  -2.5103  -2.4451  -2.3950  -2.3878  -2.3711  -2.3009  -2.2622
    -2.2520  -2.2440  -2.2393  -2.1947  -2.1687  -2.1588  -2.1413  -2.1380
    -2.1284  -2.1229  -2.1012  -2.0745  -2.0016  -1.9898  -1.9766  -1.9614
    -1.9499  -1.9360  -1.9049  -1.8173  -1.7909  -1.7597  -1.7346  -1.6974
    -1.6889  -1.6709  -1.6499  -1.6343  -1.5333  -1.5142  -1.5026  -1.4640
    -1.4343  -1.3893  -1.3645  -1.2908  -1.2425  -1.2152  -1.1736  -1.1404
    -1.0944  -1.0686  -1.0539  -1.0343  -1.0284  -1.0151  -0.9759  -0.9491
    -0.9276  -0.9080  -0.8951  -0.8882  -0.8625  -0.8257  -0.7932  -0.7283
    -0.7045  -0.6923  -0.6453  -0.6062  -0.5292  -0.5062  -0.4985  -0.4099
    -0.3684  -0.3254  -0.2636  -0.2455  -0.2086  -0.1744  -0.1551  -0.1393
    -0.1093  -0.0915  -0.0564  -0.0210   0.0076   0.0150   0.0671   0.1162
     0.1348   0.1588   0.1791   0.1873   0.2110   0.2510   0.3032   0.3972
     0.4287   0.4340   0.4441   0.4655   0.4802   0.5572   0.5779   0.6122
     0.6775   0.6828   0.6983   0.7448   0.7638   0.7713   0.7858   0.8473
     0.8931   0.9098   0.9192   0.9342   0.9390   0.9538   0.9592   1.1236
     1.1275   1.1636   1.1741   1.1814   1.3489   1.3912   1.3948   1.8135
     1.8534   1.9380   2.2093   2.2195   2.3257   2.6171   2.6293   2.9448
     2.9660   3.4226   3.4308   3.4805   3.6816   3.7312   3.7783   3.8747
     4.0860   4.1054   4.2239   4.7514   4.9098   5.2768   5.3480   5.6162
     5.8166   5.9181   6.4699

          k = 0.4000-0.6928 0.0000 ( 93312 PWs)   bands (ev):

   -20.3778 -18.1830  -8.1476  -6.9368  -6.9168  -6.4514  -6.2563  -5.6583
    -5.6032  -5.1442  -5.1235  -5.0071  -4.9710  -4.8645  -4.8565  -4.7615
    -4.7528  -4.6395  -4.6304  -4.6264  -4.5951  -4.5830  -4.5688  -4.5574
    -4.4346  -4.4223  -4.4143  -4.3837  -4.3769  -4.2861  -4.2038  -4.1690
    -4.1206  -4.0835  -4.0370  -4.0076  -4.0010  -3.9961  -3.9718  -3.9436
    -3.8638  -3.8569  -3.7703  -3.7603  -3.5884  -3.5801  -3.5136  -3.4416
    -3.4171  -3.3796  -3.3688  -3.2580  -3.2269  -3.1825  -3.1739  -3.1470
    -3.1052  -3.0950  -3.0659  -2.9720  -2.9620  -2.9390  -2.9319  -2.9271
    -2.9182  -2.9098  -2.8587  -2.8393  -2.7448  -2.7013  -2.6577  -2.6500
    -2.5413  -2.5081  -2.4868  -2.4818  -2.4460  -2.4221  -2.3987  -2.3770
    -2.3149  -2.2936  -2.2850  -2.2593  -2.2312  -2.2041  -2.1674  -2.1328
    -2.1028  -2.0830  -2.0584  -2.0513  -1.9652  -1.9176  -1.8897  -1.8783
    -1.8565  -1.8380  -1.8059  -1.7953  -1.7798  -1.7601  -1.7509  -1.7244
    -1.7072  -1.6898  -1.6637  -1.6550  -1.6457  -1.6409  -1.6330  -1.6014
    -1.5682  -1.5427  -1.5231  -1.4352  -1.3440  -1.2417  -1.2320  -1.2175
    -1.1519  -1.1101  -1.1038  -1.0838  -1.0528  -1.0080  -0.9903  -0.9705
    -0.9564  -0.9303  -0.8893  -0.8663  -0.8158  -0.7800  -0.7469  -0.7168
    -0.6939  -0.6604  -0.5708  -0.5252  -0.4726  -0.4407  -0.4276  -0.3843
    -0.3494  -0.3327  -0.3236  -0.3024  -0.2852  -0.2738  -0.2357  -0.1796
    -0.1464  -0.1113  -0.0886  -0.0739  -0.0575  -0.0349  -0.0150   0.0186
     0.0544   0.1221   0.1946   0.2206   0.2821   0.3104   0.3839   0.3909
     0.3991   0.4807   0.5242   0.5294   0.5780   0.6487   0.6799   0.6994
     0.7363   0.7414   0.7645   0.7772   0.7991   0.8255   0.8866   0.9054
     0.9147   0.9385   0.9588   0.9752   0.9818   1.0266   1.1355   1.1502
     1.1715   1.1741   1.1831   1.2368   1.2837   1.3609   1.4990   1.6811
     2.3190   2.3232   2.5766   2.6111   2.7149   2.7226   2.7442   2.8772
     3.3185   3.3398   3.3580   3.8022   3.8440   3.9317   3.9446   3.9533
     4.1589   4.2449   4.3952   4.5467   4.7385   4.7956   4.9131   5.3988
     5.4247   5.4590   5.7022

          k = 0.4000-0.4619 0.0000 ( 93312 PWs)   bands (ev):

   -20.3778 -18.1830  -8.1477  -6.9367  -6.9170  -6.4499  -6.2574  -5.6578
    -5.6039  -5.1429  -5.1198  -5.0078  -4.9718  -4.8654  -4.8603  -4.7610
    -4.7507  -4.6390  -4.6315  -4.6292  -4.5960  -4.5856  -4.5684  -4.5572
    -4.4336  -4.4239  -4.4119  -4.3836  -4.3734  -4.2874  -4.1995  -4.1690
    -4.1220  -4.0837  -4.0370  -4.0102  -3.9978  -3.9943  -3.9720  -3.9447
    -3.8656  -3.8573  -3.7708  -3.7660  -3.5859  -3.5805  -3.5320  -3.4245
    -3.4164  -3.3804  -3.3647  -3.2554  -3.2256  -3.1780  -3.1703  -3.1494
    -3.1122  -3.0951  -3.0656  -2.9702  -2.9673  -2.9451  -2.9332  -2.9307
    -2.9146  -2.9097  -2.8595  -2.8425  -2.7166  -2.6981  -2.6550  -2.6434
    -2.5414  -2.5291  -2.4922  -2.4838  -2.4463  -2.4153  -2.3972  -2.3736
    -2.3148  -2.2952  -2.2877  -2.2607  -2.2358  -2.2116  -2.1700  -2.1358
    -2.0974  -2.0783  -2.0577  -2.0487  -1.9654  -1.9407  -1.8917  -1.8731
    -1.8496  -1.8356  -1.8068  -1.8004  -1.7908  -1.7537  -1.7432  -1.7264
    -1.7046  -1.6996  -1.6748  -1.6578  -1.6462  -1.6424  -1.6237  -1.6027
    -1.5671  -1.5624  -1.5237  -1.3847  -1.3127  -1.2767  -1.2272  -1.2169
    -1.1360  -1.1124  -1.1055  -1.0798  -1.0317  -1.0195  -0.9925  -0.9763
    -0.9676  -0.9310  -0.8784  -0.8523  -0.8148  -0.7920  -0.7487  -0.7255
    -0.6887  -0.6759  -0.5771  -0.5235  -0.4676  -0.4471  -0.4250  -0.3776
    -0.3471  -0.3257  -0.3190  -0.3041  -0.2859  -0.2686  -0.2385  -0.1922
    -0.1498  -0.1082  -0.0881  -0.0730  -0.0555  -0.0310  -0.0186   0.0033
     0.0529   0.1345   0.1596   0.2460   0.2867   0.3068   0.3691   0.3885
     0.4203   0.4789   0.5261   0.5308   0.5907   0.6455   0.6814   0.6990
     0.7315   0.7405   0.7631   0.7818   0.7971   0.8235   0.8862   0.9048
     0.9151   0.9377   0.9584   0.9702   0.9841   1.0269   1.1293   1.1503
     1.1713   1.1747   1.1810   1.2347   1.2846   1.3598   1.4993   1.6850
     2.3198   2.3228   2.5738   2.6124   2.7148   2.7235   2.7551   2.8727
     3.3099   3.3376   3.3691   3.8023   3.8441   3.9253   3.9437   3.9529
     4.1562   4.2464   4.3966   4.5511   4.7478   4.7950   4.9078   5.4100
     5.4222   5.4530   5.6758

     the Fermi energy is     0.9455 ev

!    total energy              =  -27859.42180226 Ry

     total all-electron energy =  -1327021.645106 Ry
     estimated scf accuracy    <       0.00000035 Ry
     smearing contrib. (-TS)   =       0.00117462 Ry
     internal energy E=F+TS    =  -27859.42297688 Ry

     The total energy is F=E-TS. E is the sum of the following terms:
     one-electron contribution =  -29671.54518996 Ry
     hartree contribution      =   15129.85067675 Ry
     xc contribution           =    -910.92309988 Ry
     ewald contribution        =   13093.99180504 Ry
     one-center paw contrib.   =  -25500.79716882 Ry

     convergence has been achieved in  22 iterations

     negative rho (up, down):  1.436E-02 0.000E+00

     Forces acting on atoms (cartesian axes, Ry/au):

     atom    1 type  1   force =    -0.00048358   -0.00022270   -0.00767589
     atom    2 type  1   force =    -0.00078038    0.00024482   -0.00310087
     atom    3 type  1   force =     0.00067036    0.00006939   -0.00357572
     atom    4 type  1   force =    -0.00052460   -0.00057080   -0.00326085
     atom    5 type  1   force =    -0.00000406    0.00000640   -0.00360900
     atom    6 type  1   force =     0.00051909   -0.00053813   -0.00318587
     atom    7 type  1   force =     0.00029989    0.00099984   -0.00321680
     atom    8 type  1   force =    -0.00042681    0.00079557   -0.00328975
     atom    9 type  1   force =     0.00008773    0.00009269   -0.00293172
     atom   10 type  1   force =     0.00062760    0.00032787    0.00145619
     atom   11 type  1   force =     0.00006862    0.00150195    0.00686366
     atom   12 type  1   force =     0.00020378    0.00019142    0.00120431
     atom   13 type  1   force =     0.00159458   -0.00130145    0.00779160
     atom   14 type  1   force =    -0.00154267   -0.00122652    0.00697288
     atom   15 type  1   force =     0.00002727   -0.00015311    0.00179924
     atom   16 type  1   force =    -0.00008216   -0.00123202    0.00130012
     atom   17 type  1   force =     0.00038781   -0.00073204    0.00170760
     atom   18 type  1   force =     0.00000294   -0.00051220    0.00149415
     atom   19 type  1   force =    -0.00001836    0.00020601   -0.00036070
     atom   20 type  1   force =     0.00026922    0.00034075    0.00031687
     atom   21 type  1   force =     0.00007871    0.00012876    0.00035216
     atom   22 type  1   force =     0.00022126    0.00007367   -0.00002267
     atom   23 type  1   force =    -0.00008125   -0.00002553    0.00023708
     atom   24 type  1   force =     0.00016304   -0.00003668   -0.00040156
     atom   25 type  1   force =     0.00003797   -0.00015984   -0.00014875
     atom   26 type  1   force =     0.00002946    0.00002580    0.00013793
     atom   27 type  1   force =     0.00022113   -0.00003985    0.00006770
     atom   28 type  1   force =     0.00005185    0.00037338    0.00000693
     atom   29 type  1   force =     0.00008094    0.00010511    0.00006106
     atom   30 type  1   force =     0.00018783    0.00028336   -0.00020442
     atom   31 type  1   force =    -0.00008435    0.00030077    0.00013103
     atom   32 type  1   force =     0.00044565    0.00016157   -0.00032011
     atom   33 type  1   force =     0.00010856    0.00010277    0.00057693
     atom   34 type  1   force =     0.00011157    0.00011200    0.00004688
     atom   35 type  1   force =     0.00003974    0.00016958   -0.00000207
     atom   36 type  1   force =     0.00019243    0.00004877    0.00006434
     atom   37 type  2   force =     0.00279048   -0.00101923    0.02544910
     atom   38 type  3   force =     0.00079320   -0.00000607    0.00126532
     atom   39 type  4   force =    -0.00275385   -0.00003192    0.00393008
     atom   40 type  4   force =    -0.00353067    0.00114584   -0.02792640

     Total force =     0.038440     Total SCF correction =     0.001765

     negative rho (up, down):  1.436E-02 0.000E+00

     negative rho (up, down):  1.436E-02 0.000E+00

     negative rho (up, down):  1.436E-02 0.000E+00

     negative rho (up, down):  1.436E-02 0.000E+00

     negative rho (up, down):  1.436E-02 0.000E+00

     negative rho (up, down):  1.436E-02 0.000E+00

     negative rho (up, down):  1.436E-02 0.000E+00

     negative rho (up, down):  1.436E-02 0.000E+00

     negative rho (up, down):  1.436E-02 0.000E+00

     negative rho (up, down):  1.436E-02 0.000E+00

     negative rho (up, down):  1.436E-02 0.000E+00

     negative rho (up, down):  1.436E-02 0.000E+00

     negative rho (up, down):  1.436E-02 0.000E+00

     negative rho (up, down):  1.436E-02 0.000E+00

     negative rho (up, down):  1.436E-02 0.000E+00

     negative rho (up, down):  1.436E-02 0.000E+00

     negative rho (up, down):  1.436E-02 0.000E+00

     negative rho (up, down):  1.436E-02 0.000E+00

     negative rho (up, down):  1.436E-02 0.000E+00

     negative rho (up, down):  1.436E-02 0.000E+00

     negative rho (up, down):  1.436E-02 0.000E+00

     negative rho (up, down):  1.436E-02 0.000E+00

     negative rho (up, down):  1.436E-02 0.000E+00

     negative rho (up, down):  1.436E-02 0.000E+00

     negative rho (up, down):  1.436E-02 0.000E+00

     negative rho (up, down):  1.436E-02 0.000E+00

     negative rho (up, down):  1.436E-02 0.000E+00

     negative rho (up, down):  1.436E-02 0.000E+00

     negative rho (up, down):  1.436E-02 0.000E+00

     negative rho (up, down):  1.436E-02 0.000E+00

     negative rho (up, down):  1.436E-02 0.000E+00

     negative rho (up, down):  1.436E-02 0.000E+00

     negative rho (up, down):  1.436E-02 0.000E+00

     negative rho (up, down):  1.436E-02 0.000E+00
 BEEFens 2000 ensemble energies
             -0.609722107845117E+02
             -0.362711101793656E+01
             -0.159074429443934E+02
              0.431603525455371E+02
             -0.222296750640348E+02
             -0.206347325829744E+02
             -0.354408924549386E+02
             -0.869550610259157E+02
             -0.467677217900236E+02
             -0.475346622719013E+02
             -0.371029973062469E+02
              0.229289668094187E+01
              0.407206476901027E+01
              0.764938864323540E+01
              0.267349394145447E+01
              0.477309276667104E+02
             -0.210073435601755E+02
             -0.231431438992529E+02
              0.193597834488041E+02
             -0.112972085057764E+03
              0.539244710603140E+02
             -0.291087388472801E+02
             -0.336518395142922E+01
             -0.114808383352690E+02
             -0.887151995771046E+01
             -0.469789504125458E+01
              0.887412722556053E+02
             -0.187725671278976E+02
             -0.906881182175687E+01
             -0.521005690570798E+02
              0.819788372444227E+02
             -0.188260461706049E+02
             -0.376935114379402E+02
              0.250686448843449E+02
             -0.286063092345529E+01
              0.164739149276055E+02
             -0.488412415291600E+01
              0.108645934127486E+02
              0.289299378546738E+02
             -0.103827776526465E+03
              0.561220251685727E+02
              0.143014872698420E+02
             -0.172994175212420E+01
             -0.363413258027070E+02
              0.123716386540049E+02
             -0.147483605439101E+02
              0.400507556211638E+02
              0.366843294908655E+02
             -0.309689591862019E+02
             -0.276504381474668E+02
             -0.329610749827407E+02
             -0.353874855456073E+02
              0.136695206550216E+02
             -0.493545122340727E+02
              0.116246362047372E+02
              0.626277317100716E+02
              0.638614806171659E+02
              0.357721754797102E+02
              0.155224329494108E+02
              0.271835622590646E+02
              0.896051864399392E+02
              0.213954999904918E+02
             -0.551465722419157E+02
             -0.157934559537053E+02
             -0.237108364938408E+02
              0.632997534851843E+02
             -0.777739470615130E+02
             -0.674870798974925E+02
             -0.260582753428529E+02
             -0.650549583929546E+01
             -0.473401085401353E+02
              0.272093941474662E+02
              0.806114066949465E+01
              0.873927758783475E+01
             -0.399156934706050E+02
             -0.348600038446215E+02
             -0.544618063062669E+02
              0.392361234642362E+02
             -0.297471048958157E+02
              0.266431408171182E+02
             -0.717684352022946E+01
             -0.319646929310854E+02
             -0.579477249177552E+02
             -0.177463572144404E+02
             -0.910397199050317E+01
             -0.125733853711177E+02
              0.414329551215342E+02
              0.686135537476296E+02
             -0.387760740193948E+02
             -0.798907910273905E+02
             -0.220722474967876E+02
              0.112095360696887E+03
             -0.595238087868835E+02
              0.357756893830089E+02
             -0.962119443968686E+01
             -0.666685599988046E+02
              0.255871804351812E+02
              0.400296050040527E+02
             -0.199464792188730E+02
              0.402046740220231E+02
             -0.297447781535793E+02
             -0.480597268149345E+02
              0.870151971940655E+02
              0.456254086346838E+02
              0.338289404839720E+02
              0.147115775922090E+02
              0.206592541107653E+02
              0.860820658124031E+02
             -0.258150437348560E+02
              0.790543327060934E+01
             -0.143133228499157E+03
              0.182379424488325E+02
             -0.719762508296234E+02
              0.151682817791477E+02
              0.205707731273383E+02
             -0.334550525967311E+02
             -0.560006349479912E+02
              0.656678707306025E+01
             -0.305546190534658E+02
              0.309595250404967E+02
             -0.532395156650695E+02
              0.171711482655428E+01
             -0.358817947487261E+02
             -0.425641872442657E+01
             -0.106835200069946E+01
              0.181714895781560E+02
              0.141897734587849E+01
             -0.656325807923577E+01
              0.593334801317460E+02
              0.912893443043161E+02
              0.486460381499685E+02
              0.834686184485187E+02
             -0.115899383832444E+02
              0.143631906745371E+02
              0.544051670426185E+02
             -0.111525772415540E+02
             -0.739711673871234E+02
             -0.385846132852521E+02
             -0.524252985358073E+02
             -0.278227054481039E+02
              0.328595825738295E+02
             -0.117379788575876E+03
             -0.188030854299797E+02
              0.416111957316960E+02
             -0.388221145272688E+02
             -0.367139285178476E+02
              0.546669838569472E+02
              0.403083908758020E+02
             -0.355721870485558E+02
              0.138377421106329E+02
             -0.274413802602195E+02
              0.344983224151253E+02
              0.449694791475474E+01
              0.212157356396911E+02
             -0.889335961552589E+02
             -0.482821030643602E+02
             -0.100073874891928E+02
              0.322979058402394E+01
             -0.368796478136064E+02
              0.106551395338386E+03
             -0.232180581155114E+02
             -0.400419406830464E+02
              0.390926485731593E+02
             -0.496791822549373E+02
             -0.364833832103951E+02
              0.326301720697601E+02
              0.124917666289210E+02
              0.165261570435109E+02
              0.116918264335832E+02
             -0.133371106062093E+02
              0.226312862348111E+02
              0.593352464518484E+02
             -0.313342887639535E+02
              0.163353455476563E+02
              0.939152252071449E+02
              0.342288011219104E+02
             -0.734394364440220E+01
             -0.189305243763343E+02
              0.154128223007849E+03
             -0.164808299229086E+02
              0.364947638445242E+02
              0.195466294003390E+02
              0.363593724970891E+02
              0.896682694162752E+02
              0.545421341966322E+02
             -0.242423114012519E+01
              0.228684956682029E+02
              0.487042369484200E+02
              0.365456828744371E+02
             -0.528449249242948E+02
              0.940725143252976E+02
             -0.830048730804639E+02
             -0.199085921184561E+02
              0.585853327455754E+02
              0.676610724431706E+01
              0.790894965376697E+01
              0.342739763055473E+02
              0.300365554031804E+02
              0.355541407278526E+02
             -0.640839790711202E+02
              0.289960909012245E+01
             -0.298949978973180E+02
             -0.876110276476651E+01
             -0.145242321484659E+01
             -0.725286799919378E+01
             -0.417340833060689E+01
              0.863663545035190E+02
             -0.101557170386560E+02
             -0.277832347775737E+02
             -0.498256030864490E+01
              0.140461921687632E+02
             -0.566861505098550E+02
             -0.409196834798928E+02
             -0.383938208737631E+02
             -0.633244388213483E+02
             -0.170392226211316E+02
             -0.449579606142246E+02
              0.164477007186339E+02
             -0.240807784462420E+01
             -0.105016113734002E+02
             -0.938980873452920E+01
              0.811596416698950E+01
             -0.244169226526046E+02
              0.692640680774463E+02
             -0.811292120243381E+02
             -0.141820925432984E+02
             -0.175012869911931E+02
              0.182940182221973E+02
              0.215005495641350E+02
             -0.466024245092688E+02
             -0.202791362187946E+02
              0.443082844093549E+02
             -0.277451193291106E+02
              0.187618046374055E+02
              0.384923156410372E+02
             -0.322875126782208E+01
              0.114708919913989E+03
             -0.231250330953882E+02
             -0.342734391819253E+02
              0.582471194722058E+01
             -0.229305690535774E+02
              0.530197245322849E+02
             -0.338942747720940E+02
              0.106864659198907E+02
              0.643911634328867E+02
             -0.127192644923567E+02
              0.120831458422877E+03
              0.126520992127110E+03
             -0.653193727053451E+02
              0.593391220940682E+02
              0.167184649094426E+02
             -0.520440685110102E+02
              0.217241725873103E+02
              0.355534836909605E+02
              0.364569247601929E+02
              0.136656828102085E+01
              0.160119891152168E+02
              0.699322338634695E+02
             -0.248062314709292E+02
              0.182120681529640E+02
              0.743110858901445E+02
             -0.374567761386128E+02
             -0.130280153914090E+02
              0.511080110797562E+02
              0.298733470255419E+02
              0.784223816208217E+02
              0.223967961588643E+02
              0.627832318597927E+01
              0.281831748841015E+02
              0.385229924936232E+02
             -0.473940477704468E+02
              0.332246032822650E+01
              0.130369142207941E+02
              0.114096640370350E+02
              0.221561687633970E+02
             -0.577786178430074E+02
              0.367775862470689E+02
             -0.446104574907959E+02
             -0.348931422280106E+02
              0.178690505798786E+02
             -0.182335542364268E+02
              0.557527752875867E+02
             -0.257538310265228E+02
              0.268163364371180E+02
              0.369782187830368E+02
              0.833238201549342E+02
              0.577516548292323E+02
              0.464278420643621E+02
             -0.106447127161308E+02
             -0.392306694084010E+01
             -0.333793961709225E+02
              0.754396544228819E+02
              0.801146037731241E+02
              0.363680616726101E+02
             -0.193076391779231E+02
              0.514362491100588E+02
             -0.163500173727457E+02
              0.216161705082216E+02
              0.617603936661335E+02
              0.212649658428444E+01
             -0.104904331662680E+02
             -0.284363656776776E+02
             -0.514084380376116E+02
              0.950147508145412E+02
              0.441822178155986E+02
             -0.561749918281196E+02
             -0.969754287667917E+01
              0.251458316147247E+02
             -0.100438562078067E+02
              0.595187651239282E+02
              0.152815358864900E+02
              0.803127315432143E+02
              0.280864128233901E+02
             -0.265490525112917E+02
              0.250224026120653E+02
             -0.504393607665577E+01
             -0.325315276820942E+02
              0.134087586789300E+02
              0.206740970934010E+02
              0.937213088750637E+02
              0.801417445338389E+02
              0.553622922263440E+02
              0.734369602647885E+02
              0.804427453808577E+01
             -0.275070498709281E+02
              0.163807382158076E+02
             -0.369866621063178E+02
             -0.478768347478069E+02
             -0.566711599071085E+02
             -0.268016314046020E+02
             -0.110256962670186E+03
             -0.292823063521382E+02
             -0.841594250650922E+02
              0.210969407489210E+02
             -0.479498523777906E+02
              0.398816844138125E+02
             -0.946050929338320E+02
             -0.331570703150198E+02
              0.551289115775518E+02
              0.208735933467940E+02
             -0.834802890707563E+02
              0.634208683134503E+02
             -0.258056179820540E+02
              0.515195446623365E+02
             -0.244229941365370E+02
             -0.755326942435242E+02
              0.112785740217143E+02
             -0.614643777525149E+02
             -0.169132300650147E+02
             -0.147655571037355E+01
              0.420617290967970E+02
              0.127637842866711E+03
             -0.464098640881467E+02
             -0.364378919149124E+02
             -0.983029652698747E+00
             -0.131218526311798E+02
             -0.826600039716373E+02
             -0.599819115265815E+02
              0.519838817663528E+02
             -0.290432118654549E+02
              0.169806286889156E+02
             -0.491938323295448E+02
             -0.132594127282177E+02
             -0.439361927967196E+02
              0.568178058093849E+02
              0.151941844751349E+02
             -0.232719255307372E+02
             -0.127481252665048E+02
              0.671789264695043E+01
             -0.625732030072936E+01
              0.443851158350960E+02
             -0.253397671999942E+02
              0.278400289630758E+01
              0.340910067639908E+02
              0.172282619579665E+02
             -0.160593557751503E+02
              0.157056658140377E+03
              0.540634754780189E+02
              0.117820971103714E+01
              0.162089972229506E+02
             -0.618002858637250E+02
              0.316509939124911E+02
             -0.725411813036904E+02
             -0.253347205411478E+02
             -0.525402382337354E+02
             -0.220915526930961E+02
              0.571862089963669E+02
             -0.539923646149347E+02
              0.161666882253546E+02
             -0.408603284602270E+01
              0.389676879913949E+01
             -0.435836973028835E+02
             -0.480533218560866E+02
             -0.399328457627598E+01
             -0.427440180159498E+02
             -0.218415089797560E+02
             -0.440463772291010E+02
             -0.119851927419461E+02
             -0.360816302612254E+02
             -0.519206363434664E+02
              0.214233611592863E+02
             -0.210410294913665E+02
              0.188798544742538E+02
              0.981664425160584E+01
             -0.741693848515416E+02
             -0.551020611224670E+02
             -0.400037479158604E+02
              0.356359656577035E+02
              0.271695442236259E+01
             -0.630166922230774E+02
              0.588568687420762E+02
             -0.403196841562719E+02
              0.547327031824498E+02
             -0.291104934712828E+02
             -0.448596662220475E+02
              0.299940390268322E+02
             -0.661148828797447E+02
             -0.382017240613100E+02
              0.676254804565753E+02
              0.204886737703251E+02
             -0.361975483883019E+02
              0.492232797673432E+02
             -0.174963765930354E+02
             -0.324707806988306E+02
             -0.303508241152999E+02
             -0.503132068295542E+02
              0.250515975180453E+02
             -0.937650336196970E+02
             -0.844685720224969E+02
             -0.738515785806567E+01
             -0.308257256600001E+02
             -0.578492263034227E+02
              0.725467327329884E+02
              0.132196790007990E+03
             -0.362840000631983E+02
             -0.255281740339450E+01
             -0.640571585789925E+02
              0.653738637778129E+02
              0.171789100353671E+02
             -0.182649290729512E+02
             -0.412045953169374E+02
              0.149514014075142E+02
             -0.589394476895376E+02
             -0.198775113624009E+02
             -0.909507093695660E+02
              0.338801238454038E+02
              0.169896459023261E+02
              0.184323282946957E+01
             -0.707039410572679E+01
             -0.331339020825726E+02
             -0.761756830327147E+01
              0.126171587232574E+03
             -0.199885225109134E+02
             -0.439709657001178E+02
             -0.687300567794256E+02
              0.109869523879312E+02
             -0.343826456595328E+02
              0.594193852778821E+01
              0.263000923604741E+02
              0.102417023142731E+02
              0.279353397697909E+02
              0.120449141031615E+02
              0.632591855837322E+02
              0.318490094886257E+02
             -0.328163176718657E+02
              0.357455303664209E+02
              0.381393236878606E+02
              0.121527844110329E+02
              0.489454430799597E+02
             -0.225759745009582E+02
              0.769536111843078E+02
              0.173175354083092E+02
             -0.273705734397429E+02
             -0.727475240110974E+01
             -0.187291562092063E+02
              0.263125637173850E+02
             -0.235980012718695E+02
             -0.123991534806379E+00
             -0.856053830630174E+01
              0.813816442031864E+02
              0.502889942673990E+02
             -0.690957276182680E+02
             -0.477939249525309E+01
             -0.558449860462306E+02
             -0.160424877098438E+02
             -0.269583963931046E+02
              0.379598358054341E+01
              0.570507586110695E+00
             -0.258905333988450E+02
              0.819011412655044E+01
             -0.606421452663240E+01
             -0.129338827972873E+02
              0.863374469725183E+02
              0.182842025271102E+02
             -0.810855637348185E+02
             -0.460721100974388E+02
              0.949461307180127E+02
              0.279175178775745E+02
             -0.107233611628754E+02
              0.105114692756373E+03
             -0.195999580840717E+02
             -0.123603776767822E+02
             -0.541661446266357E+01
              0.108215923581001E+02
              0.273658489863292E+02
              0.783091837308356E+01
              0.306817896548476E+02
             -0.188762871422393E+02
             -0.305183788880803E+02
             -0.419877500294497E+02
             -0.479525896437905E+02
              0.466350958967478E+02
              0.127584477332765E+02
              0.389614909646246E+02
              0.134238639185093E+02
              0.860121049190621E+02
              0.157280356574333E+02
             -0.850035151172408E+02
             -0.336258601025942E+02
              0.134457960933745E+02
             -0.304331313719867E+02
              0.629700154478953E+02
             -0.894397528990498E+01
              0.149728886548284E+02
              0.499771881730621E+02
             -0.711054696651088E+02
              0.150515065159457E+03
              0.209721277715275E+02
              0.272513552520678E+02
              0.349409378157841E+02
              0.104416011741434E+02
             -0.157642922667020E+01
              0.360417489514066E+02
             -0.358961973239659E+02
              0.777272984861091E+02
              0.688380330126622E+02
             -0.408129968209335E+02
              0.150555838309321E+02
              0.673820197079554E+02
             -0.225125645918422E+02
              0.154982353961076E+02
              0.437512157037073E+02
              0.424599771533184E+02
             -0.788954245931201E+02
             -0.153494132853571E+02
             -0.358178624511457E+02
             -0.151834174024958E+01
             -0.769069655328942E+01
             -0.547401240276247E+01
             -0.181769254103197E+02
             -0.295292050042322E+02
              0.637133642887190E+01
              0.112349495482958E+02
              0.538504750792815E+02
             -0.392366559102619E+02
              0.376170374252343E+02
              0.440849998110924E+02
             -0.187744482298907E+02
              0.876918790417639E+02
             -0.701334877680320E+02
             -0.103720274578632E+03
             -0.660039586322518E+01
             -0.273623091469972E+01
              0.387492224272216E+01
              0.793359157426553E+02
             -0.107580626290418E+02
              0.418738177814492E+02
              0.446097197945850E+02
              0.387224712427161E+02
             -0.998000309358815E+01
              0.631044216390721E+02
             -0.134475037988495E+02
             -0.309090111103237E+02
             -0.482239828103326E+02
              0.589912279325304E+01
              0.371970262769794E+02
             -0.605534643934530E+01
              0.395154542703368E+02
             -0.174862135350617E+01
              0.658616888693096E+02
              0.188568494052986E+02
              0.100184266532356E+02
             -0.122168449633220E+02
              0.334005539625806E+02
              0.364527700846826E+02
              0.233825524158577E+02
             -0.517657261396778E+00
             -0.553273773352508E+02
              0.262190883060765E+02
              0.176168216153073E+02
              0.404758992327597E+02
              0.273937944336128E+02
              0.374188513775056E+02
             -0.607242589279318E+01
              0.252343263477524E+02
             -0.299740528823215E+02
             -0.199140396716132E+01
             -0.572167691289213E+02
             -0.309524385248048E+02
              0.380879602121239E+02
             -0.940397733828596E+02
              0.296087880504843E+02
              0.184913477356920E+02
              0.844370418721008E+02
             -0.302208582186893E+02
              0.330960516979262E+02
             -0.138318428927143E+02
             -0.466408164196564E+02
             -0.765527662100903E+02
             -0.528884189467647E+01
             -0.864605615399406E+02
              0.200709839686833E+02
             -0.248628866080231E+02
              0.307282826484207E+02
              0.237718670978221E+02
             -0.242391448686152E+02
             -0.266693792369194E+02
              0.393045971237246E+02
             -0.591174244497053E+02
             -0.117227035981832E+02
             -0.197147963352190E+02
              0.213841144855897E+02
             -0.896148893546513E+01
              0.364411936694455E+01
             -0.201866448192769E+02
              0.561621864967610E+02
             -0.441714520343861E+02
              0.794845230049066E+01
              0.588419278977701E+02
             -0.325023088180416E+02
              0.360461482006269E+01
             -0.884973394266933E+01
             -0.673257684350156E+02
             -0.485266739649648E+02
             -0.866342463471278E+01
              0.242021886288505E+02
              0.303780593664379E+02
              0.863131288005775E+01
             -0.416705283286865E+01
              0.153179661323273E+02
             -0.442445607145236E+02
              0.333021322636864E+01
             -0.533803422027809E+02
             -0.326033953077517E+02
              0.477111717092921E+02
             -0.296647044470522E+02
              0.625677238177181E+02
             -0.215747435799840E+02
              0.355743179618283E+02
              0.243098397561828E+02
             -0.647311424217335E+02
             -0.282112217913212E+02
              0.934854814219389E+01
             -0.373500601108221E+02
             -0.341619138019306E+02
             -0.834169339090354E+02
             -0.542388710670654E+02
             -0.513216638614651E+02
             -0.417783175420657E+02
             -0.967555566473095E+00
              0.100153173571636E+02
              0.102963069932403E+01
              0.154115751649240E+02
             -0.552316442021205E+02
              0.142548236073012E+02
              0.257602090038014E+02
             -0.670365290575942E+02
             -0.705383592122465E+02
             -0.433252454506269E+02
             -0.173021961953516E+02
              0.179688473428645E+02
              0.455670503836143E+01
             -0.428457882830913E+02
              0.368249972646173E+02
             -0.217074028603573E+02
              0.520139957118731E+02
             -0.891658341682220E+02
              0.600555971694520E+02
             -0.211783575527426E+01
             -0.370528930498381E+02
             -0.217784643965011E+02
              0.472129544374539E+01
              0.376811814734625E+02
             -0.760264913062533E+02
             -0.121451138231212E+02
             -0.217707027561119E+02
[...]
              0.284732517127006E+02
              0.142512347646854E+03
              0.243760263542589E+02
              0.123408919462988E+02
             -0.466982108308703E+02
             -0.641131735689232E+02
             -0.189855325924555E+02
              0.331189040603301E+02
             -0.430827822904848E+01
              0.190875314374363E+02
              0.337770711354348E+02
             -0.589717069470353E+02
              0.223783047694884E+02
              0.584872564655282E+02
              0.556041600063244E+02
             -0.422087299034769E+01
             -0.137827457395269E+01
             -0.998789398834154E+01
             -0.484998817302509E+02
             -0.678341452560662E+02
              0.789828460590712E+02
             -0.526476354295193E+01
             -0.590967204051316E+02
              0.169791174799718E+01
             -0.206441838576450E+02
              0.943089967683106E+02
             -0.217486452848492E+02
             -0.355196721750746E+02
              0.336674950621069E+02
             -0.146415348158529E+02
              0.391808291691726E+02
             -0.242524984452251E+01
              0.101598062154453E+03
              0.491874393986965E+02
             -0.514745539834739E+01
             -0.323658637037851E+02
              0.233573671310755E+02
             -0.531298826301503E+02
             -0.128442873386007E+02
              0.588756208821368E+02
             -0.289036016002474E+02
             -0.440688754588061E+02
             -0.224149053816467E+02
              0.521255044085840E+02
              0.125603650100147E+02
             -0.853200249999479E+02
              0.305605519772810E+02
              0.153073090631651E+02
              0.580483662624695E+01
             -0.515908839577926E+02
             -0.376246992706257E+01
              0.324867182860428E+02
              0.515660948646413E+02
              0.635525802256308E+02
              0.230262348570222E+02
              0.784833173961204E+00
             -0.500396080172740E+02
             -0.512321457959678E+02
             -0.751830719219219E+02
             -0.617466135401287E+01
              0.310585111895456E+02
             -0.382976537399196E+01
              0.549462010225329E+02
             -0.319566726308855E+02
              0.167272856140066E+02
             -0.103129621626024E+02
             -0.290989716991969E+02
              0.588533398488139E+02
              0.796138285138431E+01
              0.607141340196450E+02
              0.512105761590806E+01
              0.266347647447235E+02
             -0.193479480325324E+02
              0.589270917685219E+02
             -0.111919183650600E+02
             -0.137994747144912E+00
             -0.793974914585306E+02
             -0.128950585271186E+02
              0.722779655390867E+02
              0.676751870950733E+02
              0.252838227188606E+02
             -0.130968600005522E+02
              0.342944860293670E+01
             -0.174184932529992E+02
             -0.205583159784047E+01
              0.912012586900565E+02
              0.123418145595770E+01
             -0.191478569006384E+02
             -0.111310256598236E+03
             -0.555619959307836E+02
             -0.376806194881396E+02
             -0.662064666115242E+02
             -0.558335404340228E+02
             -0.686291341602370E+02
             -0.449374950318677E+02
             -0.412781343158360E+02
             -0.454100060571875E+02
              0.485872905141303E+02
             -0.295581498501307E+02
             -0.100087188963137E+03
              0.421114367684161E+02
             -0.261400745621620E+02
             -0.794799777270001E+02
              0.948762213965130E+02
             -0.220820043258988E+02
              0.229118116932123E+02
              0.457381804243877E+02
             -0.135811369033740E+01
              0.255390793227825E+02
              0.470999042409565E+01
              0.405937964747935E+00
             -0.151231236557300E+02
             -0.719239894318475E+02
              0.133861862830241E+02
             -0.130049751344923E+03
              0.627090509846702E+02
             -0.442728736048683E+02
             -0.163343841005817E+02
             -0.158764098629213E+02
              0.718595968523246E+01
             -0.228726559220406E+02
              0.298711291474419E+02
             -0.523075830634219E+02
              0.369293866511831E+02
              0.372754988907738E+02
              0.169399223357289E+02
              0.101001215507700E+02
              0.198805487730552E+02
              0.623950306747628E+01
              0.312004528520892E+02
             -0.806107177560975E+01
             -0.594960766314691E+02
              0.763287472895780E+01
             -0.153784973872084E+02
             -0.195499738034783E+01
              0.508455154068277E+02
             -0.831001733586888E+02
             -0.149334761337673E+01
              0.566565454579461E+00
              0.999310638398254E+01
              0.320093889153914E+02
             -0.124306965873714E+02
              0.839786999665713E+02
              0.490387326481239E+02
             -0.184234818292960E+02
             -0.963380573974229E+01
              0.107081133243844E+01
              0.773481821436618E+02
             -0.588925578368965E+02
             -0.106287537956219E+03
              0.310664517957394E+02
             -0.163523798162234E+02
             -0.140132422682753E+02
              0.131286242990706E+02
              0.772523399320788E+02
              0.466594500054820E+02
             -0.154340797405535E+02
             -0.505347376814052E+02
             -0.551103641943106E+01
              0.307888154681246E+02
             -0.112186308227766E+02
             -0.759235415622393E+02
             -0.271107369183321E+01
             -0.894258804367664E+02
             -0.477765383217921E+02
              0.772151703201696E+02
             -0.485970624702775E+02
             -0.639752059251152E+02
             -0.517051091759662E+02
             -0.351356889101458E+02
              0.342595118309170E+02
              0.825613069875706E+02
             -0.357427245689985E+01
              0.277877060425519E+02
             -0.184512908473109E+02
             -0.697168287270233E+02
              0.467471429142468E+02
             -0.447199031471910E+02
              0.323382564365681E+02
              0.378126247591222E+02
             -0.659383821044622E+01
              0.392853047356974E+02
              0.440642423754590E+02
              0.101160210041006E+03
             -0.156946395319472E+02
             -0.457889684160279E+02
             -0.615847906914464E+02
             -0.124421122695148E+02
             -0.234092608398197E+02
              0.103537423818258E+03
             -0.451275471206272E+02
              0.105556986765792E+02
              0.976147811506434E+01
             -0.265924840202602E+02
             -0.802594603330995E+02
             -0.703003389997491E+01
              0.984596266913570E+02
              0.941937072455829E+01
              0.813590090863272E+01
             -0.529225741582869E+02
             -0.608110325071264E+02
             -0.565975692728331E+01
              0.502611082429021E+02
             -0.223059950016010E+02
              0.108492117693569E+03
             -0.437530362175477E+02
              0.147112364252810E+02
             -0.225331721035843E+02
             -0.721677016281019E+02
              0.169262880830854E+01
             -0.504075005407640E+02
             -0.764151030778195E+02
              0.618331811472649E+01
              0.236315009385993E+01
              0.516573912290328E+02
              0.188225035290797E+02
             -0.325192549365063E+02
              0.231330525599474E+02
             -0.814694638682037E+02
             -0.524332524360026E+02
              0.906247101448171E+02
              0.143064462496073E+02
             -0.188841992126352E+02
             -0.354056656801147E+02
             -0.271402642519627E+01
             -0.588979815776361E+01
              0.834247174054857E+02
              0.419718530453141E+02
             -0.166863243709855E+02
             -0.122466464298493E+02
             -0.429734409351237E+02
             -0.201858379370201E+02
             -0.673294694847731E+02
              0.462054292655859E+02
              0.550181930206057E+01
              0.145588402569912E+02
              0.156611356174919E+02
             -0.583803331252668E+00
             -0.169256912137703E+02
             -0.312860121853033E+01
             -0.100923514294669E+03
             -0.230861613707268E+02
             -0.767378877307681E+01
             -0.952390198833740E+01
              0.549213476146721E+02
              0.626744177771078E+02
              0.165458314149006E+02
             -0.975206102290679E+02
              0.650574835230565E+02
             -0.216030215043030E+02
             -0.378821829080463E+02
             -0.868411313244551E+02
             -0.388820845130458E+02
              0.567057389654057E+02
              0.245618238741962E+02
              0.519611494438652E+01
              0.293716852997668E+02
             -0.567660807147080E+02
             -0.424327488882151E+02
              0.517957361469618E+02
              0.389053562589020E+02
              0.521434986444500E+02
             -0.126072075928164E+01
              0.688413857101460E+01
              0.572099154027208E+02
              0.967607155773522E+02
             -0.301537511896796E+02
              0.324621474418743E+02
             -0.118925009980420E+02
             -0.414279049032768E+02
             -0.315911634597793E+02
             -0.301486692893294E+02
             -0.131940544853384E+02
             -0.525803485045756E+02
             -0.218497857595953E+02
             -0.141843228684995E+03
              0.370644360787920E+02
              0.207665990815771E+02
             -0.394527951623230E+01
             -0.382029448049440E+02
             -0.205414871204201E+02
             -0.529202130388601E+02
              0.151980053449388E+02
              0.824029101459572E+02
             -0.253116562245916E+02
             -0.163764373594418E+02
              0.238910913402849E+02
             -0.491670788321302E+02
              0.884899483370949E+02
              0.155354353443972E+02
              0.227254505348815E+02
              0.492757129787364E+02
              0.322410402603617E+01
              0.544740044317625E+02
              0.143671315230807E+02
             -0.107099008851490E+02
              0.735367802816768E+01
              0.778029801733965E+00
              0.730796747126425E+02
              0.101651645446688E+02
              0.121146848527358E+02
             -0.130516233442448E+02
              0.133035068758408E+02
             -0.915678379730534E+02
             -0.327838325599520E+02
             -0.459457139686501E+02
              0.487950165446633E+02
             -0.292493358847223E+02
             -0.661770887468898E+02
              0.541208363532592E+02
             -0.122758614724101E+02
              0.442216963555603E+02
             -0.903283488235089E+02
              0.233489860807204E+02
              0.861462865520377E+01
              0.582649788103754E+01
             -0.834938892498371E+01
             -0.906264020159631E+01
              0.481929937382382E+02
              0.200947753436412E+01
             -0.477131540617748E+02
             -0.176896136312479E+02
              0.278064224489220E+02
             -0.118509149940689E+03
             -0.934390289082699E+02
              0.397814375799908E+01
              0.118030760010327E+02
             -0.415130472230194E+02
             -0.392522914665648E+01
              0.112645559940719E+03
              0.308338879820776E+02
             -0.574281415448236E+02
              0.929525325646071E+01
             -0.968046763228597E+01
              0.106195575098217E+02
             -0.339114961078610E+02
              0.196164629202325E+02
              0.285896068963639E+02
             -0.301798487988867E+01
              0.108699803941766E+03
             -0.140972120927012E+02
             -0.317684015755740E+02
              0.143823557853251E+02
              0.468676248743769E+02
             -0.357823252566582E+02
             -0.318458225225238E+01
              0.969415798572578E+02
             -0.467180357745406E+01
              0.624316989248293E+02
              0.136194558763038E+02
             -0.907591651413956E+01
             -0.306507037726755E+02
              0.569402699292425E+02
             -0.516913694378939E+02
             -0.223791989812156E+01
             -0.170746725784781E+02
             -0.407406291836610E+02
              0.185623104426394E+02
              0.240215948167476E+02
              0.116628023311805E+02
              0.707486215333574E+00
             -0.386102951342481E+02
              0.216295743471101E+02
             -0.675992161950484E+01
             -0.247752882726457E+02
             -0.211738643770954E+02
              0.204557099622946E+02
             -0.601255932562276E+01
             -0.350927316019912E+02
             -0.107139728813476E+03
              0.103111565727449E+02
              0.250227235438273E+02
             -0.389347960562742E+02
             -0.211898365312671E+02
              0.810956537000269E+02
              0.653124813080376E+01
              0.312332694092775E+02
              0.391669368560073E+01
              0.323510239772125E+02
              0.649797031593670E+01
             -0.374884021784724E+02
             -0.231471846300991E+01
              0.880237060145123E+01
              0.275079637369908E+02
              0.786010062165116E+02
              0.509760763854381E+02
              0.189174998585884E+00
              0.169882884763373E+02
              0.616074323872259E+02
              0.237051093352488E+02
             -0.756564399993412E+02
             -0.275111400853174E+02
              0.152001150379474E+02
              0.565427701613953E+01
              0.256217600428795E+02
             -0.550457888259731E+02
              0.904992051966246E+01
              0.387736078556267E+02
              0.500394586191474E+02
             -0.437045120813476E+02
             -0.694418487771344E+01
             -0.209131007249505E+01
             -0.134511560819663E+02
             -0.367178625779356E+02
             -0.216251902584470E+02
             -0.200813650913815E+01
              0.796526628899056E+01
              0.423342855211938E+02
             -0.309624288471340E+02
              0.830000538062666E+02
              0.329199316963163E+02
              0.220932026514477E+02
              0.334643770387377E+02
              0.324866311333082E+02
              0.347511245328652E+02
              0.539793528752305E+02
             -0.436090454834926E+02
              0.622617262483251E+02
             -0.112798469975851E+03
              0.308970199428767E+02
             -0.107055204424613E+03
              0.858658335766060E+02
              0.694218225788895E+02
             -0.110395033896272E+02
             -0.495778797191799E+02
             -0.431515742287407E+02
             -0.626461670216286E+02
             -0.631638504503466E+02
              0.554498126649004E+02
              0.407540466243858E+02
              0.237949025917261E+02
              0.375593797715064E+02
              0.404761782208241E+02
             -0.383940310342642E+02
             -0.198805076260510E+02
              0.589310972695080E+02
             -0.116629927211602E+02
              0.554242859931084E+02
              0.702753470983740E+02
             -0.555133578655307E+01
             -0.709687784073000E+02
             -0.903555034575106E+00
             -0.246236166394954E+01
             -0.887149911775009E+01
             -0.179384724258819E+01
             -0.656290083511412E+02
             -0.211850428401118E+02
              0.542202864771248E+01
              0.901821170999136E+01
              0.471121522924238E+02
             -0.399513051760970E+02
              0.660819818318660E+02
             -0.427282359934743E+02
              0.211360955919864E+02
              0.352208680805415E+02
 
 BEEF-vdW xc energy contributions
           1 :   -786.635415507925     
           2 :    722.531654235591     
           3 :   -611.676830587097     
           4 :    481.321738897648     
           5 :   -358.983342397358     
           6 :    264.409658846215     
           7 :   -205.205279438424     
           8 :    176.868663448882     
           9 :   -166.792952049939     
          10 :    160.373070914099     
          11 :   -146.756891863313     
          12 :    122.079625380723     
          13 :   -89.3331199551143     
          14 :    55.4895658934419     
          15 :   -27.5494083644862     
          16 :    9.29614949000484     
          17 :   2.390302340359085E-003
          18 :   -4.68012758961731     
          19 :    10.2201485100223     
          20 :   -20.5551323827794     
          21 :    36.3614646962583     
          22 :   -55.0268888646544     
          23 :    72.1445835701027     
          24 :   -83.7178838676850     
          25 :    87.9871313000799     
          26 :   -86.0747813931885     
          27 :    81.2454268029570     
          28 :   -77.2255403974004     
          29 :    76.4328550051141     
          30 :   -78.9603104903248     
          31 :   -86.1554140992405     
          32 :   -65.9828788115434     

     Writing output data file ./pwscf.save/
 
     init_run     :    350.36s CPU    354.88s WALL (       1 calls)
     electrons    :  15820.85s CPU  15985.36s WALL (       1 calls)
     forces       :    105.50s CPU    106.81s WALL (       1 calls)

     Called by init_run:
     wfcinit      :    302.50s CPU    305.96s WALL (       1 calls)
     potinit      :     44.41s CPU     44.76s WALL (       1 calls)
     hinit0       :      1.49s CPU      1.53s WALL (       1 calls)

     Called by electrons:
     c_bands      :  13046.02s CPU  13160.72s WALL (      23 calls)
     sum_band     :   1911.87s CPU   1927.65s WALL (      23 calls)
     v_of_rho     :    119.51s CPU    124.37s WALL (      23 calls)
     newd         :     38.02s CPU     52.68s WALL (      23 calls)
     PAW_pot      :    153.32s CPU    153.32s WALL (      23 calls)
     mix_rho      :    597.15s CPU    597.92s WALL (      23 calls)
     vdW_kernel   :     33.46s CPU     33.47s WALL (       1 calls)

     Called by c_bands:
     init_us_2    :     93.43s CPU     93.73s WALL (     624 calls)
     cegterg      :  12089.14s CPU  12203.50s WALL (     299 calls)

     Called by *egterg:
     cdiaghg      :    102.96s CPU    103.00s WALL (    1786 calls)
     h_psi        :   7831.28s CPU   7870.84s WALL (    1812 calls)
     s_psi        :   1256.68s CPU   1256.70s WALL (    1812 calls)
     g_psi        :     18.84s CPU     18.85s WALL (    1500 calls)

     Called by h_psi:
     h_psi:calbec :   1192.49s CPU   1192.63s WALL (    1812 calls)
     vloc_psi     :   5351.54s CPU   5353.14s WALL (    1812 calls)
     add_vuspsi   :   1256.98s CPU   1257.09s WALL (    1812 calls)

     General routines
     calbec       :   1752.47s CPU   1752.65s WALL (    2163 calls)
     fft          :     54.57s CPU     54.60s WALL (    3403 calls)
     ffts         :    192.01s CPU    192.04s WALL (   12652 calls)
     fftw         :   5480.17s CPU   5481.20s WALL (  378149 calls)
 
     Parallel routines
 
     PWSCF        :      4h33m CPU      4h36m WALL

 
   This run was terminated on:   2:44:40  27Sep2022            

=------------------------------------------------------------------------------=
   JOB DONE.
=------------------------------------------------------------------------------=
