
     Program PWSCF v.6.7MaX starts on 20May2022 at 15:53:23 

     This program is part of the open-source Quantum ESPRESSO suite
     for quantum simulation of materials; please cite
         "P. Giannozzi et al., J. Phys.:Condens. Matter 21 395502 (2009);
         "P. Giannozzi et al., J. Phys.:Condens. Matter 29 465901 (2017);
          URL http://www.quantum-espresso.org", 
     in publications or presentations arising from this work. More details at
     http://www.quantum-espresso.org/quote

     Parallel version (MPI), running on     1 processors

     MPI processes distributed on     1 nodes
     Reading input from hcooh-ensemble.in
Warning: card &CELL ignored
Warning: card / ignored

     Current dimensions of program PWSCF are:
     Max number of different atomic species (ntypx) = 10
     Max number of k-points (npk) =  40000
     Max angular momentum in pseudopotentials (lmaxx) =  3
     file Pt.pbe-n-kjpaw_psl.1.0.0.UPF: wavefunction(s)  6S 5D renormalized
     file O.pbe-nl-kjpaw_psl.1.0.0.UPF: wavefunction(s)  2S 2P renormalized
     file C.pbe-n-kjpaw_psl.1.0.0.UPF: wavefunction(s)  2S 2P renormalized
     file H.pbe-kjpaw_psl.1.0.0.UPF: wavefunction(s)  1S renormalized

     **************************************************************************
     Initializing libbeef V0.1.2 with the BEEF-vdW functional.
     Citation: Wellendorff et al., PRB 85, 235149 (2012).
     **************************************************************************


     IMPORTANT: XC functional enforced from input :
     Exchange-correlation= BEEF-VDW
                           (   1   4  43  14   2   0   0)
     Any further DFT definition will be discarded
     Please, verify this is what you really want


     Subspace diagonalization in iterative solution of the eigenvalue problem:
     a serial algorithm will be used

 
     G-vector sticks info
     --------------------
     sticks:   dense  smooth     PW     G-vecs:    dense   smooth      PW
     Sum        4267    4267   1159               767077   767077  108159
 


     bravais-lattice index     =            0
     lattice parameter (alat)  =      16.0349  a.u.
     unit-cell volume          =   12213.2798 (a.u.)^3
     number of atoms/cell      =           41
     number of atomic types    =            4
     number of electrons       =       378.00
     number of Kohn-Sham states=          227
     kinetic-energy cutoff     =      60.0000  Ry
     charge density cutoff     =     240.0000  Ry
     scf convergence threshold =      1.0E-06
     mixing beta               =       0.7000
     number of iterations used =            8  local-TF  mixing
     Exchange-correlation= BEEF-VDW
                           (   1   4  43  14   2   0   0)

     celldm(1)=  16.034858  celldm(2)=   0.000000  celldm(3)=   0.000000
     celldm(4)=   0.000000  celldm(5)=   0.000000  celldm(6)=   0.000000

     crystal axes: (cart. coord. in units of alat)
               a(1) = (   1.000000   0.000000   0.000000 )  
               a(2) = (   0.500000   0.866025   0.000000 )  
               a(3) = (   0.000000   0.000000   3.420632 )  

     reciprocal axes: (cart. coord. in units 2 pi/alat)
               b(1) = (  1.000000 -0.577350  0.000000 )  
               b(2) = (  0.000000  1.154701  0.000000 )  
               b(3) = (  0.000000  0.000000  0.292344 )  


     PseudoPot. # 1 for Pt read from file:
     /users/bkreitz1/quantum-espresso/potentials/Pt.pbe-n-kjpaw_psl.1.0.0.UPF
     MD5 check sum: 04dc8a03c51ece93fc7b5889c2958091
     Pseudo is Projector augmented-wave + core cor, Zval = 10.0
     Generated using 'atomic' code by A. Dal Corso  v.6.7MaX
     Shape of augmentation charge: PSQ
     Using radial grid of 1277 points,  6 beta functions with: 
                l(1) =   0
                l(2) =   0
                l(3) =   1
                l(4) =   1
                l(5) =   2
                l(6) =   2
     Q(r) pseudized with 0 coefficients 


     PseudoPot. # 2 for O  read from file:
     /users/bkreitz1/quantum-espresso/potentials/O.pbe-nl-kjpaw_psl.1.0.0.UPF
     MD5 check sum: eef08af8b58d9ec80f8fdb78829eb7cf
     Pseudo is Projector augmented-wave + core cor, Zval =  6.0
     Generated using 'atomic' code by A. Dal Corso  v.6.7MaX
     Shape of augmentation charge: PSQ
     Using radial grid of 1095 points,  4 beta functions with: 
                l(1) =   0
                l(2) =   0
                l(3) =   1
                l(4) =   1
     Q(r) pseudized with 0 coefficients 


     PseudoPot. # 3 for C  read from file:
     /users/bkreitz1/quantum-espresso/potentials/C.pbe-n-kjpaw_psl.1.0.0.UPF
     MD5 check sum: a169b0ebad56f5ec0d79c4633f80bf22
     Pseudo is Projector augmented-wave + core cor, Zval =  4.0
     Generated using 'atomic' code by A. Dal Corso  v.6.7MaX
     Shape of augmentation charge: PSQ
     Using radial grid of 1073 points,  4 beta functions with: 
                l(1) =   0
                l(2) =   0
                l(3) =   1
                l(4) =   1
     Q(r) pseudized with 0 coefficients 


     PseudoPot. # 4 for H  read from file:
     /users/bkreitz1/quantum-espresso/potentials/H.pbe-kjpaw_psl.1.0.0.UPF
     MD5 check sum: ae98473e6dc62675f0d0baffdab24f65
     Pseudo is Projector augmented-wave, Zval =  1.0
     Generated using 'atomic' code by A. Dal Corso  v.6.7MaX
     Shape of augmentation charge: PSQ
     Using radial grid of  929 points,  2 beta functions with: 
                l(1) =   0
                l(2) =   0
     Q(r) pseudized with 0 coefficients 


     atomic species   valence    mass     pseudopotential
        Pt            10.00   195.08400     Pt( 1.00)
        O              6.00    15.99900     O ( 1.00)
        C              4.00    12.01100     C ( 1.00)
        H              1.00     1.00800     H ( 1.00)

     No symmetry found



   Cartesian axes

     site n.     atom                  positions (alat units)
         1           Pt  tau(   1) = (   0.0000000   0.0000000   1.0017346  )
         2           Pt  tau(   2) = (   0.3333333   0.0000000   1.0017346  )
         3           Pt  tau(   3) = (   0.6666667   0.0000000   1.0017346  )
         4           Pt  tau(   4) = (   0.1666667   0.2886751   1.0017346  )
         5           Pt  tau(   5) = (   0.5000000   0.2886751   1.0017346  )
         6           Pt  tau(   6) = (   0.8333333   0.2886751   1.0017346  )
         7           Pt  tau(   7) = (   0.3333333   0.5773503   1.0017346  )
         8           Pt  tau(   8) = (   0.6666667   0.5773503   1.0017346  )
         9           Pt  tau(   9) = (   1.0000000   0.5773503   1.0017346  )
        10           Pt  tau(  10) = (   0.1666667   0.0962250   1.2739001  )
        11           Pt  tau(  11) = (   0.5000000   0.0962250   1.2739001  )
        12           Pt  tau(  12) = (   0.8333333   0.0962250   1.2739001  )
        13           Pt  tau(  13) = (   0.3333333   0.3849002   1.2739001  )
        14           Pt  tau(  14) = (   0.6666667   0.3849002   1.2739001  )
        15           Pt  tau(  15) = (   1.0000000   0.3849002   1.2739001  )
        16           Pt  tau(  16) = (   0.5000000   0.6735753   1.2739001  )
        17           Pt  tau(  17) = (   0.8333333   0.6735753   1.2739001  )
        18           Pt  tau(  18) = (   1.1666667   0.6735753   1.2739001  )
        19           Pt  tau(  19) = (  -0.0001949   0.1924386   1.5424586  )
        20           Pt  tau(  20) = (   0.3330559   0.1924812   1.5426523  )
        21           Pt  tau(  21) = (   0.6662304   0.1924929   1.5424408  )
        22           Pt  tau(  22) = (   0.1664248   0.4811756   1.5426849  )
        23           Pt  tau(  23) = (   0.4996928   0.4811395   1.5426914  )
        24           Pt  tau(  24) = (   0.8330845   0.4812825   1.5424479  )
        25           Pt  tau(  25) = (   0.3331222   0.7698254   1.5425872  )
        26           Pt  tau(  26) = (   0.6664078   0.7699497   1.5425019  )
        27           Pt  tau(  27) = (   0.9996543   0.7698562   1.5425686  )
        28           Pt  tau(  28) = (  -0.0006057   0.0000104   1.8167492  )
        29           Pt  tau(  29) = (   0.3326581   0.0000562   1.8167618  )
        30           Pt  tau(  30) = (   0.6659688  -0.0001334   1.8163909  )
        31           Pt  tau(  31) = (   0.1660024   0.2888897   1.8167043  )
        32           Pt  tau(  32) = (   0.4990600   0.2888877   1.8165847  )
        33           Pt  tau(  33) = (   0.8328514   0.2888518   1.8153784  )
        34           Pt  tau(  34) = (   0.3325540   0.5775640   1.8168404  )
        35           Pt  tau(  35) = (   0.6659901   0.5777166   1.8163705  )
        36           Pt  tau(  36) = (   0.9994508   0.5776054   1.8167171  )
        37           O   tau(  37) = (   0.5025574   0.2893653   2.2308881  )
        38           C   tau(  38) = (   0.6313488   0.2885471   2.2906342  )
        39           O   tau(  39) = (   0.7656993   0.2906215   2.2031163  )
        40           H   tau(  40) = (   0.6524611   0.2860541   2.4188972  )
        41           H   tau(  41) = (   0.8580598   0.2893259   2.2717547  )

     number of k points=    13  Marzari-Vanderbilt smearing, width (Ry)=  0.0200
                       cart. coord. in units 2pi/alat
        k(    1) = (   0.0000000   0.0000000   0.0000000), wk =   0.0800000
        k(    2) = (   0.0000000   0.2309401   0.0000000), wk =   0.1600000
        k(    3) = (   0.0000000   0.4618802   0.0000000), wk =   0.1600000
        k(    4) = (   0.2000000  -0.1154701   0.0000000), wk =   0.1600000
        k(    5) = (   0.2000000   0.1154701   0.0000000), wk =   0.1600000
        k(    6) = (   0.2000000   0.3464102   0.0000000), wk =   0.1600000
        k(    7) = (   0.2000000  -0.5773503   0.0000000), wk =   0.1600000
        k(    8) = (   0.2000000  -0.3464102   0.0000000), wk =   0.1600000
        k(    9) = (   0.4000000  -0.2309401   0.0000000), wk =   0.1600000
        k(   10) = (   0.4000000  -0.0000000   0.0000000), wk =   0.1600000
        k(   11) = (   0.4000000   0.2309401   0.0000000), wk =   0.1600000
        k(   12) = (   0.4000000  -0.6928203   0.0000000), wk =   0.1600000
        k(   13) = (   0.4000000  -0.4618802   0.0000000), wk =   0.1600000

     Dense  grid:   767077 G-vectors     FFT dimensions: (  80,  80, 288)

     Estimated max dynamical RAM per process >       9.36 GB

     Check: negative core charge=   -0.000002

     Initial potential from superposition of free atoms

     starting charge  377.99383, renormalised to  378.00000

     negative rho (up, down):  1.222E-02 0.000E+00


     %%%%%%%%%%%%%%%%%%%%%%%%%%%%%%%%%%%%%%%%%%%%%%%%%%%%%%%%%%%%%%%%%%%%%%%%
     %                                                                      %
     % You are using vdW-DF, which was implemented by the Thonhauser group. %
     % Please cite the following two papers that made this development      %
     % possible and the two reviews that describe the various versions:     %
     %                                                                      %
     %   T. Thonhauser et al., PRL 115, 136402 (2015).                      %
     %   T. Thonhauser et al., PRB 76, 125112 (2007).                       %
     %   K. Berland et al., Rep. Prog. Phys. 78, 066501 (2015).             %
     %   D.C. Langreth et al., J. Phys.: Condens. Matter 21, 084203 (2009). %
     %                                                                      %
     %                                                                      %
     % If you are calculating the stress with vdW-DF, please also cite:     %
     %                                                                      %
     %   R. Sabatini et al., J. Phys.: Condens. Matter 24, 424209 (2012).   %
     %                                                                      %
     %%%%%%%%%%%%%%%%%%%%%%%%%%%%%%%%%%%%%%%%%%%%%%%%%%%%%%%%%%%%%%%%%%%%%%%%


     Starting wfcs are  338 randomized atomic wfcs
     Checking if some PAW data can be deallocated... 

     total cpu time spent up to now is      344.2 secs

     Self-consistent Calculation

     iteration #  1     ecut=    60.00 Ry     beta= 0.70
     Davidson diagonalization with overlap
     ethr =  1.00E-02,  avg # of iterations =  3.3

     Threshold (ethr) on eigenvalues was too large:
     Diagonalizing with lowered threshold

     Davidson diagonalization with overlap
     ethr =  5.43E-04,  avg # of iterations =  4.3

     negative rho (up, down):  1.137E-02 0.000E+00

     total cpu time spent up to now is     1759.4 secs

     total energy              =  -27860.42211474 Ry
     estimated scf accuracy    <       2.23755157 Ry

     iteration #  2     ecut=    60.00 Ry     beta= 0.70
     Davidson diagonalization with overlap
     ethr =  5.92E-04,  avg # of iterations =  3.0

     negative rho (up, down):  1.009E-02 0.000E+00

     total cpu time spent up to now is     2384.6 secs

     total energy              =  -27860.59505523 Ry
     estimated scf accuracy    <       0.96601829 Ry

     iteration #  3     ecut=    60.00 Ry     beta= 0.70
     Davidson diagonalization with overlap
     ethr =  2.56E-04,  avg # of iterations =  5.3

     negative rho (up, down):  6.967E-03 0.000E+00

     total cpu time spent up to now is     3040.1 secs

     total energy              =  -27860.64115323 Ry
     estimated scf accuracy    <       0.19285583 Ry

     iteration #  4     ecut=    60.00 Ry     beta= 0.70
     Davidson diagonalization with overlap
     c_bands:  1 eigenvalues not converged
     c_bands:  1 eigenvalues not converged
     c_bands:  1 eigenvalues not converged
     c_bands:  2 eigenvalues not converged
     c_bands:  1 eigenvalues not converged
     c_bands:  1 eigenvalues not converged
     ethr =  5.10E-05,  avg # of iterations = 16.2

     negative rho (up, down):  4.538E-03 0.000E+00

     total cpu time spent up to now is     4034.9 secs

     total energy              =  -27860.68661905 Ry
     estimated scf accuracy    <       0.07874484 Ry

     iteration #  5     ecut=    60.00 Ry     beta= 0.70
     Davidson diagonalization with overlap
     c_bands:  1 eigenvalues not converged
     ethr =  2.08E-05,  avg # of iterations =  6.7

     negative rho (up, down):  3.669E-03 0.000E+00

     total cpu time spent up to now is     4718.3 secs

     total energy              =  -27860.69088072 Ry
     estimated scf accuracy    <       0.04789296 Ry

     iteration #  6     ecut=    60.00 Ry     beta= 0.70
     Davidson diagonalization with overlap
     ethr =  1.27E-05,  avg # of iterations =  4.3

     negative rho (up, down):  2.766E-03 0.000E+00

     total cpu time spent up to now is     5351.0 secs

     total energy              =  -27860.69089870 Ry
     estimated scf accuracy    <       0.00717881 Ry

     iteration #  7     ecut=    60.00 Ry     beta= 0.70
     Davidson diagonalization with overlap
     c_bands:  1 eigenvalues not converged
     c_bands:  1 eigenvalues not converged
     c_bands:  1 eigenvalues not converged
     c_bands:  1 eigenvalues not converged
     ethr =  1.90E-06,  avg # of iterations = 15.0

     negative rho (up, down):  2.659E-03 0.000E+00

     total cpu time spent up to now is     6301.1 secs

     total energy              =  -27860.69241293 Ry
     estimated scf accuracy    <       0.00667891 Ry

     iteration #  8     ecut=    60.00 Ry     beta= 0.70
     Davidson diagonalization with overlap
     ethr =  1.77E-06,  avg # of iterations =  2.8

     negative rho (up, down):  3.353E-03 0.000E+00

     total cpu time spent up to now is     6914.2 secs

     total energy              =  -27860.69280289 Ry
     estimated scf accuracy    <       0.00296314 Ry

     iteration #  9     ecut=    60.00 Ry     beta= 0.70
     Davidson diagonalization with overlap
     c_bands:  1 eigenvalues not converged
     c_bands:  1 eigenvalues not converged
     c_bands:  1 eigenvalues not converged
     ethr =  7.84E-07,  avg # of iterations = 15.8

     negative rho (up, down):  4.643E-03 0.000E+00

     total cpu time spent up to now is     7685.5 secs

     total energy              =  -27860.69302607 Ry
     estimated scf accuracy    <       0.00163758 Ry

     iteration # 10     ecut=    60.00 Ry     beta= 0.70
     Davidson diagonalization with overlap
     c_bands:  1 eigenvalues not converged
     ethr =  4.33E-07,  avg # of iterations =  9.0

     negative rho (up, down):  7.210E-03 0.000E+00

     total cpu time spent up to now is     8357.8 secs

     total energy              =  -27860.69319074 Ry
     estimated scf accuracy    <       0.00120133 Ry

     iteration # 11     ecut=    60.00 Ry     beta= 0.70
     Davidson diagonalization with overlap
     ethr =  3.18E-07,  avg # of iterations =  7.4

     negative rho (up, down):  8.129E-03 0.000E+00

     total cpu time spent up to now is     9013.5 secs

     total energy              =  -27860.69329145 Ry
     estimated scf accuracy    <       0.00063620 Ry

     iteration # 12     ecut=    60.00 Ry     beta= 0.70
     Davidson diagonalization with overlap
     ethr =  1.68E-07,  avg # of iterations =  4.7

     negative rho (up, down):  8.947E-03 0.000E+00

     total cpu time spent up to now is     9641.5 secs

     total energy              =  -27860.69332635 Ry
     estimated scf accuracy    <       0.00043929 Ry

     iteration # 13     ecut=    60.00 Ry     beta= 0.70
     Davidson diagonalization with overlap
     ethr =  1.16E-07,  avg # of iterations =  4.1

     negative rho (up, down):  1.025E-02 0.000E+00

     total cpu time spent up to now is    10264.1 secs

     total energy              =  -27860.69331137 Ry
     estimated scf accuracy    <       0.00033386 Ry

     iteration # 14     ecut=    60.00 Ry     beta= 0.70
     Davidson diagonalization with overlap
     ethr =  8.83E-08,  avg # of iterations =  5.5

     negative rho (up, down):  9.333E-03 0.000E+00

     total cpu time spent up to now is    10900.8 secs

     total energy              =  -27860.69332249 Ry
     estimated scf accuracy    <       0.00027655 Ry

     iteration # 15     ecut=    60.00 Ry     beta= 0.70
     Davidson diagonalization with overlap
     ethr =  7.32E-08,  avg # of iterations =  1.0

     negative rho (up, down):  1.315E-02 0.000E+00

     total cpu time spent up to now is    11456.9 secs

     total energy              =  -27860.69327611 Ry
     estimated scf accuracy    <       0.00018211 Ry

     iteration # 16     ecut=    60.00 Ry     beta= 0.70
     Davidson diagonalization with overlap
     ethr =  4.82E-08,  avg # of iterations =  1.8

     negative rho (up, down):  1.255E-02 0.000E+00

     total cpu time spent up to now is    12055.0 secs

     total energy              =  -27860.69328133 Ry
     estimated scf accuracy    <       0.00018162 Ry

     iteration # 17     ecut=    60.00 Ry     beta= 0.70
     Davidson diagonalization with overlap
     ethr =  4.80E-08,  avg # of iterations =  2.3

     negative rho (up, down):  1.377E-02 0.000E+00

     total cpu time spent up to now is    12670.7 secs

     total energy              =  -27860.69328099 Ry
     estimated scf accuracy    <       0.00006225 Ry

     iteration # 18     ecut=    60.00 Ry     beta= 0.70
     Davidson diagonalization with overlap
     ethr =  1.65E-08,  avg # of iterations =  1.8

     negative rho (up, down):  1.423E-02 0.000E+00

     total cpu time spent up to now is    13274.3 secs

     total energy              =  -27860.69328183 Ry
     estimated scf accuracy    <       0.00005130 Ry

     iteration # 19     ecut=    60.00 Ry     beta= 0.70
     Davidson diagonalization with overlap
     ethr =  1.36E-08,  avg # of iterations =  2.0

     negative rho (up, down):  1.406E-02 0.000E+00

     total cpu time spent up to now is    13868.6 secs

     total energy              =  -27860.69328163 Ry
     estimated scf accuracy    <       0.00002487 Ry

     iteration # 20     ecut=    60.00 Ry     beta= 0.70
     Davidson diagonalization with overlap
     ethr =  6.58E-09,  avg # of iterations =  2.0

     negative rho (up, down):  1.376E-02 0.000E+00

     total cpu time spent up to now is    14468.8 secs

     total energy              =  -27860.69328115 Ry
     estimated scf accuracy    <       0.00001795 Ry

     iteration # 21     ecut=    60.00 Ry     beta= 0.70
     Davidson diagonalization with overlap
     ethr =  4.75E-09,  avg # of iterations =  2.0

     negative rho (up, down):  1.368E-02 0.000E+00

     total cpu time spent up to now is    15067.7 secs

     total energy              =  -27860.69328179 Ry
     estimated scf accuracy    <       0.00000310 Ry

     iteration # 22     ecut=    60.00 Ry     beta= 0.70
     Davidson diagonalization with overlap
     ethr =  8.20E-10,  avg # of iterations =  4.5

     negative rho (up, down):  1.358E-02 0.000E+00

     total cpu time spent up to now is    15801.3 secs

     total energy              =  -27860.69328273 Ry
     estimated scf accuracy    <       0.00000166 Ry

     iteration # 23     ecut=    60.00 Ry     beta= 0.70
     Davidson diagonalization with overlap
     c_bands:  1 eigenvalues not converged
     ethr =  4.40E-10,  avg # of iterations =  3.4

     negative rho (up, down):  1.371E-02 0.000E+00

     total cpu time spent up to now is    16397.0 secs

     End of self-consistent calculation

          k = 0.0000 0.0000 0.0000 ( 95835 PWs)   bands (ev):

   -21.7226 -19.7744  -9.7013  -8.1364  -7.2309  -5.9198  -4.8536  -4.8439
    -4.8105  -4.8092  -4.8085  -4.8073  -4.8064  -4.8038  -4.7958  -4.6727
    -4.2518  -4.2510  -4.2502  -4.2495  -4.2493  -4.2489  -3.7787  -3.7767
    -3.7762  -3.7750  -3.7747  -3.7744  -3.5871  -3.5601  -3.5595  -3.5592
    -3.5586  -3.5583  -3.4891  -3.3336  -3.3334  -3.3273  -3.3266  -3.3131
    -3.3120  -3.3119  -3.3115  -3.3111  -3.3084  -3.2965  -3.2949  -2.7158
    -2.7155  -2.6834  -2.6830  -2.6274  -2.6270  -2.6258  -2.6256  -2.6250
    -2.6235  -2.4887  -2.4883  -2.3869  -2.3856  -1.8832  -1.8792  -1.8790
    -1.8775  -1.8770  -1.8746  -1.8130  -1.7969  -1.7244  -1.7243  -1.6927
    -1.6925  -1.6797  -1.6790  -1.6653  -1.6597  -1.6591  -1.6580  -1.6576
    -1.6567  -1.6559  -1.6227  -1.6222  -1.4662  -1.4654  -1.4633  -1.4629
    -1.4619  -1.4601  -1.3134  -1.3125  -1.3107  -1.3091  -1.3080  -1.3063
    -1.2120  -1.2116  -1.1135  -1.1130  -1.0502  -1.0501  -1.0392  -1.0380
    -1.0038  -1.0035  -0.9894  -0.9877  -0.8821  -0.8399  -0.8383  -0.8377
    -0.8360  -0.8358  -0.8313  -0.5928  -0.3459  -0.3449  -0.3426  -0.3413
    -0.3411  -0.3405  -0.2702  -0.2692  -0.2676  -0.2665  -0.2653  -0.2617
    -0.1961  -0.1952  -0.0260  -0.0241  -0.0233  -0.0210  -0.0167  -0.0085
     0.1196   0.1198   0.1208   0.1269   0.1314   0.1315   0.3869   0.3872
     0.3880   0.3896   0.3902   0.3903   0.4673   0.4692   0.6483   0.6495
     0.6509   0.6520   0.6532   0.6579   0.8203   0.8209   0.8214   0.8230
     0.8235   0.8243   0.8634   0.8655   0.8662   0.8674   0.8751   0.8838
     0.9991   0.9999   1.0180   1.0185   1.0191   1.0195   1.0206   1.0207
     1.1227   1.1234   1.1260   1.1270   1.1279   1.1283   1.1321   1.1327
     1.2266   1.2272   1.2293   1.2297   1.2313   1.2317   1.3320   1.3331
     1.3390   1.3397   1.3412   1.3419   1.4401   1.5554   1.5599   1.6650
     1.6655   1.6660   1.6664   1.6672   1.6682   2.4946   2.5469   2.5499
     2.5532   2.5559   2.5768   2.6217   4.7292   4.8529   4.8724   4.8812
     4.8898   4.9152   4.9313   5.0070   5.9888   6.4227   6.4236   6.4756
     6.4785   6.4798   6.4814

          k = 0.0000 0.2309 0.0000 ( 95844 PWs)   bands (ev):

   -21.7226 -19.7744  -9.7013  -8.1364  -7.0839  -5.7749  -5.3243  -4.9269
    -4.9245  -4.8465  -4.6971  -4.6739  -4.6587  -4.6177  -4.5749  -4.5732
    -4.3655  -4.3458  -4.1894  -4.1887  -4.1690  -4.1680  -3.8924  -3.7577
    -3.7569  -3.7292  -3.7196  -3.6607  -3.6588  -3.5942  -3.5900  -3.5882
    -3.5872  -3.5212  -3.4934  -3.4813  -3.4800  -3.3591  -3.3580  -3.3508
    -3.2978  -3.2960  -3.1417  -3.1395  -3.1061  -3.1047  -3.0776  -2.8404
    -2.8394  -2.7968  -2.7527  -2.7514  -2.7077  -2.7069  -2.5312  -2.5296
    -2.4633  -2.4610  -2.4176  -2.3843  -2.3830  -2.1801  -2.0837  -2.0826
    -1.9995  -1.9968  -1.9581  -1.9191  -1.8810  -1.8790  -1.8618  -1.8409
    -1.8378  -1.7937  -1.7932  -1.7188  -1.7039  -1.6888  -1.6862  -1.6192
    -1.5955  -1.5940  -1.5427  -1.5273  -1.5259  -1.4597  -1.4269  -1.4083
    -1.4068  -1.4032  -1.3130  -1.3106  -1.3027  -1.3012  -1.2887  -1.2126
    -1.2123  -1.1976  -1.1864  -1.1246  -1.1195  -1.1170  -1.0661  -1.0648
    -1.0277  -1.0248  -1.0125  -0.9357  -0.8519  -0.8414  -0.8351  -0.8338
    -0.8288  -0.8086  -0.7979  -0.7960  -0.7486  -0.7391  -0.7139  -0.7123
    -0.6069  -0.5027  -0.4312  -0.3719  -0.3234  -0.3217  -0.3125  -0.3101
    -0.2859  -0.2841  -0.1252  -0.1126  -0.1104  -0.0069   0.0341   0.0360
     0.0428   0.0558   0.1554   0.1561   0.1683   0.1705   0.2519   0.2627
     0.2637   0.2917   0.2941   0.4832   0.5026   0.5180   0.5190   0.5211
     0.5463   0.5555   0.6416   0.6432   0.6686   0.6958   0.7169   0.7614
     0.7623   0.7636   0.7651   0.8788   0.8805   0.9085   0.9097   1.0010
     1.0554   1.0565   1.0641   1.0660   1.0873   1.1279   1.1356   1.1946
     1.1958   1.2550   1.2555   1.2620   1.3099   1.3115   1.3121   1.3165
     1.3170   1.3237   1.3921   1.3925   1.5521   1.5531   1.5641   1.5800
     1.5895   1.5912   1.6282   1.6675   1.6693   1.6860   1.7846   1.7850
     1.8091   1.9670   1.9719   1.9726   2.0024   2.0577   2.4293   2.4337
     3.1364   3.1521   3.1856   3.3074   4.1595   4.6115   4.6222   4.7551
     5.0380   5.2904   5.2910   5.4510   5.4599   5.7247   6.0684   6.2706
     6.2742   6.3228   6.4999

          k = 0.0000 0.4619 0.0000 ( 95894 PWs)   bands (ev):

   -21.7226 -19.7744  -9.7013  -8.1364  -6.6608  -6.0255  -5.3684  -4.9604
    -4.9584  -4.8465  -4.8136  -4.6728  -4.5916  -4.4372  -4.3071  -4.2682
    -4.2336  -4.2323  -4.0491  -4.0473  -4.0182  -4.0096  -4.0084  -3.8863
    -3.8512  -3.8508  -3.7991  -3.7978  -3.7350  -3.7111  -3.6614  -3.6608
    -3.6258  -3.5104  -3.3876  -3.3870  -3.3698  -3.3686  -3.3678  -3.3656
    -3.1429  -3.1409  -3.0820  -3.0810  -3.0708  -3.0703  -2.8894  -2.7859
    -2.7852  -2.7768  -2.7753  -2.7097  -2.7089  -2.6614  -2.6456  -2.6444
    -2.5653  -2.5644  -2.4371  -2.4363  -2.3841  -2.3828  -2.2893  -2.2523
    -2.2076  -2.2064  -2.2047  -2.0651  -1.9876  -1.9766  -1.9637  -1.9619
    -1.8773  -1.8726  -1.8522  -1.7946  -1.7386  -1.7345  -1.7175  -1.7152
    -1.5960  -1.5945  -1.5928  -1.5921  -1.5893  -1.5147  -1.4989  -1.4977
    -1.4933  -1.4662  -1.4649  -1.4628  -1.4482  -1.4069  -1.3419  -1.3233
    -1.3201  -1.3141  -1.2723  -1.2701  -1.2434  -1.1680  -1.1018  -1.0660
    -1.0649  -1.0267  -1.0241  -0.9927  -0.9848  -0.9822  -0.8548  -0.8522
    -0.8390  -0.7762  -0.7724  -0.7239  -0.6763  -0.5866  -0.5852  -0.5443
    -0.5039  -0.4173  -0.4150  -0.4021  -0.3840  -0.3805  -0.3780  -0.3766
    -0.2874  -0.2806  -0.2519  -0.2498  -0.2282  -0.2256  -0.2047  -0.2029
    -0.1607  -0.1362  -0.0447  -0.0097  -0.0080   0.0606   0.1299   0.1524
     0.1534   0.2911   0.2916   0.3540   0.4109   0.4568   0.4576   0.4875
     0.5084   0.5453   0.5474   0.6047   0.6062   0.6535   0.6543   0.7181
     0.7610   0.7624   0.8156   0.8173   0.8289   0.8299   0.9124   1.0134
     1.0161   1.0980   1.1106   1.1119   1.1176   1.2031   1.2185   1.2197
     1.3164   1.3174   1.3241   1.3251   1.3943   1.4166   1.4177   1.4281
     1.5498   1.5512   1.5744   1.5756   1.5820   1.5845   1.6032   1.6056
     1.7762   1.8176   1.8198   1.8251   1.8274   2.0163   2.0521   2.4357
     2.4414   2.4979   2.7434   2.8660   2.8664   3.2679   3.2695   3.4634
     3.6029   4.0783   4.0788   4.1012   4.2311   4.3568   4.3608   4.5115
     4.5188   4.7413   4.7524   4.7642   5.1584   5.3842   5.4025   5.9157
     5.9212   6.2562   6.3873

          k = 0.2000-0.1155 0.0000 ( 95844 PWs)   bands (ev):

   -21.7226 -19.7744  -9.7012  -8.1364  -7.0839  -5.7749  -5.3251  -4.9250
    -4.9245  -4.8483  -4.6962  -4.6732  -4.6595  -4.6188  -4.5739  -4.5730
    -4.3648  -4.3457  -4.1895  -4.1892  -4.1696  -4.1683  -3.8919  -3.7574
    -3.7569  -3.7295  -3.7193  -3.6611  -3.6585  -3.5951  -3.5897  -3.5886
    -3.5876  -3.5180  -3.4976  -3.4805  -3.4797  -3.3602  -3.3583  -3.3514
    -3.2971  -3.2953  -3.1412  -3.1401  -3.1053  -3.1050  -3.0766  -2.8398
    -2.8393  -2.7967  -2.7526  -2.7520  -2.7075  -2.7073  -2.5306  -2.5295
    -2.4625  -2.4617  -2.4175  -2.3845  -2.3833  -2.1788  -2.0837  -2.0831
    -1.9966  -1.9958  -1.9574  -1.9173  -1.8834  -1.8812  -1.8625  -1.8393
    -1.8383  -1.7956  -1.7934  -1.7183  -1.7012  -1.6873  -1.6865  -1.6192
    -1.5995  -1.5988  -1.5426  -1.5267  -1.5253  -1.4600  -1.4290  -1.4052
    -1.4030  -1.4013  -1.3145  -1.3135  -1.3018  -1.3006  -1.2886  -1.2129
    -1.2118  -1.1980  -1.1888  -1.1226  -1.1173  -1.1172  -1.0662  -1.0652
    -1.0276  -1.0266  -1.0123  -0.9355  -0.8517  -0.8411  -0.8381  -0.8344
    -0.8304  -0.8048  -0.7973  -0.7970  -0.7499  -0.7411  -0.7136  -0.7127
    -0.6018  -0.5051  -0.4302  -0.3726  -0.3231  -0.3212  -0.3126  -0.3113
    -0.2863  -0.2840  -0.1259  -0.1119  -0.1118  -0.0091   0.0331   0.0373
     0.0464   0.0525   0.1549   0.1556   0.1685   0.1698   0.2521   0.2626
     0.2634   0.2932   0.2940   0.4816   0.5032   0.5184   0.5193   0.5211
     0.5450   0.5546   0.6393   0.6471   0.6688   0.6956   0.7181   0.7621
     0.7627   0.7635   0.7649   0.8788   0.8813   0.9091   0.9102   0.9998
     1.0555   1.0564   1.0644   1.0652   1.0865   1.1283   1.1335   1.1952
     1.1956   1.2546   1.2563   1.2618   1.3109   1.3114   1.3123   1.3163
     1.3167   1.3234   1.3911   1.3913   1.5511   1.5516   1.5667   1.5804
     1.5908   1.5916   1.6295   1.6695   1.6702   1.6860   1.7844   1.7847
     1.8091   1.9682   1.9720   1.9723   2.0066   2.0501   2.4269   2.4413
     3.1369   3.1449   3.1915   3.3061   4.1576   4.5998   4.6302   4.7677
     5.0389   5.2904   5.2908   5.4454   5.4644   5.7235   6.0580   6.2710
     6.2732   6.3702   6.5281

          k = 0.2000 0.1155 0.0000 ( 95844 PWs)   bands (ev):

   -21.7226 -19.7744  -9.7012  -8.1364  -7.0839  -5.7749  -5.3241  -4.9261
    -4.9246  -4.8485  -4.6962  -4.6732  -4.6594  -4.6168  -4.5750  -4.5739
    -4.3650  -4.3459  -4.1892  -4.1887  -4.1693  -4.1680  -3.8925  -3.7577
    -3.7571  -3.7282  -3.7189  -3.6614  -3.6590  -3.5962  -3.5894  -3.5883
    -3.5876  -3.5185  -3.4944  -3.4816  -3.4807  -3.3589  -3.3581  -3.3502
    -3.2978  -3.2962  -3.1416  -3.1397  -3.1059  -3.1050  -3.0781  -2.8405
    -2.8398  -2.7969  -2.7524  -2.7515  -2.7075  -2.7067  -2.5312  -2.5300
    -2.4629  -2.4613  -2.4177  -2.3839  -2.3830  -2.1807  -2.0835  -2.0828
    -1.9994  -1.9976  -1.9590  -1.9199  -1.8809  -1.8785  -1.8614  -1.8396
    -1.8377  -1.7954  -1.7931  -1.7187  -1.7039  -1.6887  -1.6867  -1.6192
    -1.5932  -1.5924  -1.5428  -1.5277  -1.5271  -1.4595  -1.4260  -1.4095
    -1.4072  -1.4058  -1.3115  -1.3102  -1.3031  -1.3018  -1.2887  -1.2131
    -1.2121  -1.1973  -1.1853  -1.1236  -1.1207  -1.1169  -1.0661  -1.0647
    -1.0272  -1.0248  -1.0127  -0.9356  -0.8521  -0.8409  -0.8352  -0.8334
    -0.8312  -0.8052  -0.7972  -0.7968  -0.7495  -0.7416  -0.7132  -0.7124
    -0.5989  -0.5101  -0.4316  -0.3717  -0.3237  -0.3216  -0.3116  -0.3099
    -0.2854  -0.2841  -0.1249  -0.1118  -0.1111  -0.0077   0.0337   0.0374
     0.0423   0.0568   0.1555   0.1564   0.1687   0.1702   0.2519   0.2630
     0.2638   0.2918   0.2933   0.4839   0.5027   0.5183   0.5188   0.5210
     0.5444   0.5550   0.6391   0.6467   0.6686   0.6959   0.7163   0.7617
     0.7626   0.7631   0.7654   0.8783   0.8812   0.9085   0.9094   1.0014
     1.0556   1.0565   1.0648   1.0656   1.0877   1.1279   1.1361   1.1950
     1.1955   1.2543   1.2560   1.2621   1.3100   1.3113   1.3119   1.3168
     1.3170   1.3233   1.3926   1.3930   1.5529   1.5535   1.5630   1.5799
     1.5894   1.5907   1.6277   1.6671   1.6685   1.6860   1.7846   1.7852
     1.8091   1.9666   1.9717   1.9725   2.0074   2.0515   2.4246   2.4396
     3.1379   3.1450   3.1933   3.3060   4.1603   4.5976   4.6277   4.7683
     5.0392   5.2907   5.2908   5.4446   5.4639   5.7249   6.0574   6.2714
     6.2738   6.3694   6.5309

          k = 0.2000 0.3464 0.0000 ( 95820 PWs)   bands (ev):

   -21.7226 -19.7744  -9.7012  -8.1363  -6.7981  -5.5723  -5.5716  -5.4976
    -4.8491  -4.6738  -4.4953  -4.4943  -4.4631  -4.4602  -4.4228  -4.4206
    -4.4179  -4.4000  -4.3056  -4.3045  -3.9158  -3.9147  -3.9131  -3.9125
    -3.8474  -3.8266  -3.6853  -3.6599  -3.6554  -3.6285  -3.6265  -3.5649
    -3.5265  -3.5064  -3.5040  -3.4638  -3.4581  -3.4252  -3.3757  -3.3680
    -3.3330  -3.3298  -3.2565  -2.9851  -2.8830  -2.8816  -2.8709  -2.8481
    -2.8469  -2.8293  -2.8289  -2.7753  -2.7567  -2.5967  -2.5961  -2.5864
    -2.5104  -2.4830  -2.4341  -2.4326  -2.4082  -2.3284  -2.3273  -2.1561
    -2.1542  -2.1379  -2.0542  -2.0533  -2.0224  -2.0197  -2.0148  -1.9421
    -1.9414  -1.8031  -1.7840  -1.7656  -1.7627  -1.7579  -1.6957  -1.6945
    -1.6311  -1.6290  -1.6251  -1.6229  -1.4987  -1.4612  -1.4600  -1.4489
    -1.4473  -1.4431  -1.4270  -1.3979  -1.3802  -1.3061  -1.3045  -1.2773
    -1.2718  -1.2132  -1.2102  -1.1463  -1.1248  -1.0840  -1.0822  -1.0797
    -1.0322  -1.0304  -1.0262  -1.0117  -1.0082  -0.9828  -0.9744  -0.9676
    -0.9083  -0.9065  -0.8061  -0.7705  -0.7610  -0.7190  -0.6875  -0.6840
    -0.6820  -0.6204  -0.5011  -0.4993  -0.3553  -0.3387  -0.3000  -0.2966
    -0.2851  -0.2705  -0.2691  -0.2217  -0.2192  -0.1902  -0.1822  -0.1296
    -0.1026   0.0147   0.0917   0.0933   0.1415   0.1429   0.1568   0.1993
     0.2129   0.3383   0.3443   0.3450   0.3981   0.3992   0.4803   0.5317
     0.5425   0.5587   0.5606   0.6328   0.6403   0.6408   0.6560   0.6563
     0.6810   0.6826   0.6871   0.6931   0.8265   0.8936   0.8985   1.0342
     1.0378   1.0569   1.2026   1.2043   1.2061   1.2076   1.3123   1.3423
     1.3461   1.3541   1.3560   1.3940   1.3952   1.4207   1.4257   1.4269
     1.4862   1.4882   1.5036   1.5750   1.6006   1.6018   1.6365   1.6371
     1.6813   1.8139   1.8665   1.8679   1.9512   1.9529   1.9538   1.9694
     2.1047   2.1066   2.5546   2.6330   2.6338   3.1698   3.1714   3.2082
     3.2118   3.8871   3.8974   3.9746   4.0894   4.1435   4.1562   4.7506
     4.8069   5.1449   5.2785   5.3523   5.3623   5.5228   5.9442   5.9960
     6.0949   6.1129   6.1275

          k = 0.2000-0.5774 0.0000 ( 95844 PWs)   bands (ev):

   -21.7226 -19.7744  -9.7012  -8.1363  -6.2635  -6.2621  -5.6551  -5.0035
    -5.0021  -4.8485  -4.6729  -4.4914  -4.4855  -4.3564  -4.3227  -4.2137
    -4.2123  -4.1057  -4.1043  -3.9813  -3.9793  -3.9776  -3.9411  -3.9398
    -3.9110  -3.9073  -3.7825  -3.7720  -3.7709  -3.7294  -3.7267  -3.6266
    -3.5424  -3.5190  -3.5065  -3.4409  -3.3562  -3.3542  -3.3385  -3.3366
    -3.3211  -3.2081  -3.2064  -3.1140  -3.1128  -2.9390  -2.9312  -2.8715
    -2.7707  -2.7706  -2.7196  -2.7191  -2.6105  -2.5612  -2.5126  -2.5114
    -2.4910  -2.4478  -2.4457  -2.4158  -2.3103  -2.3096  -2.2799  -2.2794
    -2.2711  -2.2706  -2.2688  -2.1973  -2.1947  -2.0657  -2.0414  -1.9940
    -1.9908  -1.8746  -1.8407  -1.8355  -1.8331  -1.7926  -1.7879  -1.7447
    -1.7436  -1.6570  -1.6332  -1.6295  -1.6252  -1.5937  -1.5612  -1.5138
    -1.5096  -1.4698  -1.4129  -1.4113  -1.3926  -1.3911  -1.2812  -1.2360
    -1.2319  -1.1879  -1.1867  -1.1460  -1.1446  -1.1277  -1.1264  -1.0991
    -1.0939  -1.0462  -1.0453  -1.0142  -0.9982  -0.9965  -0.9955  -0.9938
    -0.9749  -0.9455  -0.8821  -0.8757  -0.8751  -0.7084  -0.6648  -0.6337
    -0.5648  -0.5643  -0.4581  -0.4448  -0.4432  -0.4165  -0.3572  -0.3531
    -0.3516  -0.3331  -0.3199  -0.2431  -0.2118  -0.2090  -0.1425  -0.1259
    -0.1042  -0.0605  -0.0386  -0.0037   0.1352   0.1993   0.1997   0.2204
     0.2214   0.3139   0.3206   0.3219   0.3430   0.3532   0.3733   0.3991
     0.4001   0.5175   0.5204   0.5293   0.5865   0.5879   0.6082   0.6170
     0.6311   0.6408   0.7947   0.8448   0.8718   0.9503   0.9595   1.0352
     1.0368   1.1215   1.1631   1.1700   1.1719   1.2761   1.2802   1.3496
     1.3813   1.3900   1.4002   1.4021   1.4435   1.4506   1.4816   1.5575
     1.5590   1.5828   1.6099   1.6115   1.6122   1.6314   1.6757   1.8167
     1.8216   1.8234   1.8243   1.8256   1.8999   1.9684   2.0138   2.1540
     2.9731   2.9735   3.1951   3.2302   3.2631   3.3768   3.3791   3.3856
     3.8261   3.9852   3.9861   4.4408   4.4691   4.4799   4.5904   4.5922
     4.7371   4.8131   4.8943   4.9359   4.9485   5.3040   5.3552   5.4258
     5.4329   5.9383   6.0664

          k = 0.2000-0.3464 0.0000 ( 95820 PWs)   bands (ev):

   -21.7226 -19.7744  -9.7012  -8.1363  -6.7982  -5.5732  -5.5711  -5.4977
    -4.8491  -4.6738  -4.4961  -4.4951  -4.4628  -4.4604  -4.4216  -4.4191
    -4.4180  -4.4004  -4.3053  -4.3047  -3.9169  -3.9162  -3.9130  -3.9123
    -3.8489  -3.8262  -3.6840  -3.6599  -3.6565  -3.6282  -3.6269  -3.5630
    -3.5236  -3.5069  -3.5032  -3.4639  -3.4590  -3.4249  -3.3764  -3.3694
    -3.3320  -3.3305  -3.2587  -2.9850  -2.8820  -2.8809  -2.8698  -2.8475
    -2.8456  -2.8296  -2.8287  -2.7756  -2.7568  -2.5974  -2.5951  -2.5861
    -2.5102  -2.4833  -2.4335  -2.4321  -2.4092  -2.3282  -2.3275  -2.1555
    -2.1531  -2.1370  -2.0524  -2.0502  -2.0220  -2.0200  -2.0135  -1.9425
    -1.9412  -1.8018  -1.7842  -1.7680  -1.7640  -1.7592  -1.6972  -1.6956
    -1.6300  -1.6285  -1.6262  -1.6229  -1.4961  -1.4603  -1.4589  -1.4495
    -1.4472  -1.4419  -1.4269  -1.3993  -1.3799  -1.3080  -1.3058  -1.2781
    -1.2733  -1.2128  -1.2098  -1.1461  -1.1259  -1.0861  -1.0838  -1.0793
    -1.0328  -1.0300  -1.0268  -1.0107  -1.0068  -0.9823  -0.9751  -0.9682
    -0.9088  -0.9069  -0.8061  -0.7693  -0.7606  -0.7228  -0.6900  -0.6850
    -0.6823  -0.6183  -0.5019  -0.4973  -0.3580  -0.3385  -0.3016  -0.2964
    -0.2861  -0.2704  -0.2680  -0.2203  -0.2182  -0.1899  -0.1824  -0.1296
    -0.0994   0.0123   0.0912   0.0931   0.1413   0.1429   0.1566   0.1985
     0.2124   0.3391   0.3422   0.3454   0.3983   0.3987   0.4796   0.5320
     0.5439   0.5592   0.5599   0.6341   0.6388   0.6412   0.6563   0.6576
     0.6800   0.6827   0.6883   0.6950   0.8245   0.8952   0.8981   1.0344
     1.0363   1.0568   1.2032   1.2042   1.2059   1.2072   1.3116   1.3437
     1.3466   1.3548   1.3553   1.3937   1.3957   1.4198   1.4239   1.4256
     1.4842   1.4887   1.5070   1.5737   1.5994   1.6017   1.6365   1.6373
     1.6809   1.8167   1.8684   1.8704   1.9512   1.9530   1.9541   1.9706
     2.1044   2.1062   2.5531   2.6318   2.6338   3.1712   3.1725   3.2090
     3.2126   3.8877   3.8960   3.9734   4.0896   4.1436   4.1566   4.7505
     4.8075   5.1447   5.2787   5.3541   5.3642   5.5217   5.9456   5.9952
     6.0928   6.1122   6.1298

          k = 0.4000-0.2309 0.0000 ( 95894 PWs)   bands (ev):

   -21.7226 -19.7744  -9.7010  -8.1363  -6.6609  -6.0258  -5.3688  -4.9588
    -4.9584  -4.8557  -4.8051  -4.6729  -4.5925  -4.4372  -4.3072  -4.2683
    -4.2327  -4.2320  -4.0505  -4.0477  -4.0178  -4.0098  -4.0091  -3.8867
    -3.8508  -3.8504  -3.7990  -3.7986  -3.7348  -3.7113  -3.6610  -3.6604
    -3.6249  -3.5148  -3.3871  -3.3870  -3.3691  -3.3681  -3.3675  -3.3650
    -3.1424  -3.1408  -3.0814  -3.0805  -3.0705  -3.0697  -2.8893  -2.7858
    -2.7852  -2.7765  -2.7756  -2.7097  -2.7092  -2.6593  -2.6459  -2.6450
    -2.5656  -2.5647  -2.4363  -2.4360  -2.3835  -2.3831  -2.2885  -2.2499
    -2.2056  -2.2052  -2.2045  -2.0650  -1.9883  -1.9764  -1.9646  -1.9632
    -1.8757  -1.8737  -1.8503  -1.7969  -1.7413  -1.7401  -1.7169  -1.7157
    -1.5948  -1.5944  -1.5927  -1.5923  -1.5876  -1.5143  -1.4978  -1.4975
    -1.4951  -1.4648  -1.4643  -1.4631  -1.4474  -1.4067  -1.3425  -1.3215
    -1.3198  -1.3139  -1.2703  -1.2688  -1.2448  -1.1699  -1.1019  -1.0680
    -1.0676  -1.0257  -1.0240  -0.9938  -0.9872  -0.9853  -0.8542  -0.8525
    -0.8353  -0.7791  -0.7736  -0.7237  -0.6770  -0.5871  -0.5855  -0.5446
    -0.5040  -0.4167  -0.4164  -0.4028  -0.3818  -0.3789  -0.3778  -0.3740
    -0.2873  -0.2801  -0.2523  -0.2509  -0.2275  -0.2267  -0.2085  -0.2009
    -0.1580  -0.1374  -0.0461  -0.0094  -0.0093   0.0604   0.1284   0.1517
     0.1526   0.2910   0.2912   0.3544   0.4091   0.4567   0.4581   0.4856
     0.5069   0.5468   0.5475   0.6038   0.6092   0.6543   0.6550   0.7180
     0.7617   0.7630   0.8166   0.8174   0.8292   0.8295   0.9103   1.0116
     1.0186   1.0976   1.1105   1.1114   1.1175   1.2022   1.2192   1.2195
     1.3149   1.3175   1.3240   1.3252   1.3946   1.4155   1.4158   1.4282
     1.5499   1.5506   1.5746   1.5757   1.5842   1.5856   1.6026   1.6063
     1.7762   1.8193   1.8202   1.8274   1.8285   2.0162   2.0518   2.4353
     2.4467   2.4965   2.7424   2.8660   2.8662   3.2679   3.2692   3.4608
     3.6050   4.0783   4.0786   4.1065   4.2281   4.3524   4.3608   4.4995
     4.5354   4.7324   4.7516   4.7841   5.1576   5.3854   5.4355   5.9135
     5.9225   6.1445   6.4013

          k = 0.4000-0.0000 0.0000 ( 95820 PWs)   bands (ev):

   -21.7226 -19.7744  -9.7010  -8.1363  -6.7982  -5.5728  -5.5714  -5.4978
    -4.8497  -4.6734  -4.4961  -4.4944  -4.4621  -4.4610  -4.4218  -4.4199
    -4.4178  -4.4000  -4.3057  -4.3044  -3.9169  -3.9156  -3.9131  -3.9123
    -3.8484  -3.8264  -3.6844  -3.6596  -3.6562  -3.6280  -3.6266  -3.5636
    -3.5268  -3.5059  -3.5030  -3.4639  -3.4596  -3.4250  -3.3769  -3.3686
    -3.3323  -3.3298  -3.2580  -2.9850  -2.8823  -2.8811  -2.8703  -2.8482
    -2.8455  -2.8294  -2.8288  -2.7755  -2.7567  -2.5973  -2.5953  -2.5862
    -2.5103  -2.4831  -2.4340  -2.4321  -2.4088  -2.3282  -2.3276  -2.1556
    -2.1536  -2.1373  -2.0529  -2.0510  -2.0225  -2.0198  -2.0139  -1.9424
    -1.9412  -1.8001  -1.7888  -1.7674  -1.7623  -1.7586  -1.6965  -1.6951
    -1.6306  -1.6284  -1.6266  -1.6223  -1.4968  -1.4608  -1.4590  -1.4501
    -1.4465  -1.4423  -1.4270  -1.3988  -1.3800  -1.3082  -1.3049  -1.2780
    -1.2725  -1.2131  -1.2098  -1.1459  -1.1259  -1.0854  -1.0833  -1.0792
    -1.0320  -1.0296  -1.0268  -1.0109  -1.0070  -0.9824  -0.9735  -0.9710
    -0.9090  -0.9067  -0.8061  -0.7700  -0.7630  -0.7172  -0.6886  -0.6831
    -0.6821  -0.6233  -0.5015  -0.4983  -0.3572  -0.3386  -0.3001  -0.2981
    -0.2859  -0.2698  -0.2678  -0.2211  -0.2185  -0.1905  -0.1817  -0.1296
    -0.1006   0.0131   0.0909   0.0940   0.1415   0.1431   0.1563   0.1988
     0.2126   0.3382   0.3426   0.3461   0.3983   0.3990   0.4798   0.5305
     0.5453   0.5590   0.5601   0.6333   0.6393   0.6410   0.6559   0.6573
     0.6804   0.6824   0.6879   0.6944   0.8251   0.8944   0.8980   1.0343
     1.0366   1.0575   1.2017   1.2054   1.2057   1.2086   1.3116   1.3424
     1.3470   1.3541   1.3566   1.3935   1.3956   1.4202   1.4237   1.4263
     1.4845   1.4888   1.5059   1.5740   1.5990   1.6028   1.6365   1.6373
     1.6810   1.8158   1.8675   1.8699   1.9495   1.9524   1.9537   1.9732
     2.1039   2.1068   2.5524   2.6321   2.6338   3.1707   3.1724   3.2034
     3.2183   3.8858   3.8995   3.9753   4.0896   4.1440   4.1563   4.7517
     4.8020   5.1610   5.2788   5.3497   5.3641   5.5230   5.9935   6.0059
     6.0384   6.1136   6.1399

          k = 0.4000 0.2309 0.0000 ( 95894 PWs)   bands (ev):

   -21.7226 -19.7744  -9.7010  -8.1363  -6.6607  -6.0254  -5.3687  -4.9594
    -4.9588  -4.8558  -4.8050  -4.6729  -4.5908  -4.4373  -4.3069  -4.2677
    -4.2336  -4.2329  -4.0497  -4.0472  -4.0182  -4.0092  -4.0084  -3.8856
    -3.8514  -3.8510  -3.7988  -3.7978  -3.7346  -3.7101  -3.6615  -3.6610
    -3.6250  -3.5139  -3.3877  -3.3872  -3.3700  -3.3690  -3.3682  -3.3648
    -3.1428  -3.1412  -3.0821  -3.0812  -3.0712  -3.0705  -2.8895  -2.7857
    -2.7852  -2.7765  -2.7756  -2.7095  -2.7088  -2.6623  -2.6451  -2.6447
    -2.5650  -2.5642  -2.4371  -2.4368  -2.3841  -2.3832  -2.2896  -2.2533
    -2.2079  -2.2071  -2.2046  -2.0652  -1.9873  -1.9776  -1.9633  -1.9618
    -1.8746  -1.8720  -1.8541  -1.7969  -1.7373  -1.7346  -1.7161  -1.7147
    -1.5950  -1.5943  -1.5932  -1.5928  -1.5898  -1.5148  -1.4990  -1.4983
    -1.4926  -1.4659  -1.4653  -1.4632  -1.4486  -1.4067  -1.3417  -1.3239
    -1.3213  -1.3141  -1.2730  -1.2712  -1.2422  -1.1671  -1.1017  -1.0646
    -1.0641  -1.0271  -1.0255  -0.9919  -0.9832  -0.9818  -0.8551  -0.8521
    -0.8365  -0.7766  -0.7724  -0.7240  -0.6758  -0.5868  -0.5850  -0.5471
    -0.5038  -0.4166  -0.4155  -0.4018  -0.3855  -0.3808  -0.3778  -0.3742
    -0.2874  -0.2822  -0.2511  -0.2497  -0.2276  -0.2262  -0.2056  -0.1980
    -0.1614  -0.1372  -0.0441  -0.0089  -0.0086   0.0606   0.1289   0.1530
     0.1539   0.2911   0.2917   0.3538   0.4067   0.4569   0.4577   0.4884
     0.5089   0.5452   0.5466   0.6033   0.6085   0.6533   0.6539   0.7181
     0.7608   0.7621   0.8156   0.8171   0.8292   0.8296   0.9125   1.0120
     1.0196   1.0983   1.1111   1.1117   1.1177   1.2027   1.2190   1.2195
     1.3154   1.3182   1.3242   1.3260   1.3941   1.4175   1.4181   1.4280
     1.5501   1.5510   1.5744   1.5755   1.5810   1.5840   1.6027   1.6043
     1.7762   1.8174   1.8190   1.8248   1.8264   2.0163   2.0522   2.4328
     2.4448   2.4987   2.7439   2.8662   2.8664   3.2677   3.2693   3.4629
     3.6026   4.0783   4.0787   4.1036   4.2300   4.3532   4.3616   4.4967
     4.5330   4.7328   4.7520   4.7840   5.1586   5.3816   5.4380   5.9142
     5.9236   6.1410   6.4014

          k = 0.4000-0.6928 0.0000 ( 95844 PWs)   bands (ev):

   -21.7226 -19.7744  -9.7010  -8.1363  -6.2639  -6.2615  -5.6552  -5.0061
    -5.0019  -4.8452  -4.6733  -4.4907  -4.4861  -4.3566  -4.3228  -4.2136
    -4.2128  -4.1052  -4.1045  -3.9815  -3.9785  -3.9776  -3.9413  -3.9401
    -3.9106  -3.9065  -3.7823  -3.7720  -3.7710  -3.7290  -3.7269  -3.6262
    -3.5417  -3.5209  -3.5084  -3.4402  -3.3559  -3.3544  -3.3383  -3.3367
    -3.3216  -3.2083  -3.2064  -3.1145  -3.1129  -2.9386  -2.9316  -2.8716
    -2.7710  -2.7702  -2.7195  -2.7189  -2.6100  -2.5610  -2.5122  -2.5113
    -2.4913  -2.4480  -2.4472  -2.4159  -2.3106  -2.3092  -2.2800  -2.2799
    -2.2710  -2.2707  -2.2687  -2.1976  -2.1943  -2.0658  -2.0413  -1.9936
    -1.9911  -1.8744  -1.8394  -1.8350  -1.8330  -1.7996  -1.7849  -1.7441
    -1.7432  -1.6563  -1.6330  -1.6300  -1.6254  -1.5930  -1.5604  -1.5143
    -1.5099  -1.4690  -1.4141  -1.4123  -1.3923  -1.3906  -1.2803  -1.2358
    -1.2323  -1.1884  -1.1873  -1.1456  -1.1444  -1.1284  -1.1261  -1.0976
    -1.0939  -1.0458  -1.0440  -1.0164  -0.9989  -0.9965  -0.9957  -0.9937
    -0.9739  -0.9461  -0.8800  -0.8761  -0.8749  -0.7071  -0.6658  -0.6343
    -0.5650  -0.5644  -0.4579  -0.4449  -0.4433  -0.4168  -0.3551  -0.3537
    -0.3507  -0.3332  -0.3211  -0.2429  -0.2114  -0.2088  -0.1430  -0.1238
    -0.1064  -0.0586  -0.0433  -0.0009   0.1357   0.1985   0.2005   0.2203
     0.2209   0.3142   0.3198   0.3220   0.3433   0.3552   0.3705   0.3991
     0.3999   0.5179   0.5195   0.5293   0.5869   0.5877   0.6080   0.6173
     0.6318   0.6404   0.7945   0.8451   0.8728   0.9514   0.9577   1.0353
     1.0365   1.1215   1.1646   1.1701   1.1715   1.2773   1.2787   1.3497
     1.3821   1.3900   1.4007   1.4024   1.4443   1.4496   1.4808   1.5576
     1.5588   1.5838   1.6100   1.6112   1.6146   1.6279   1.6755   1.8168
     1.8214   1.8228   1.8237   1.8249   1.8998   1.9690   2.0138   2.1543
     2.9731   2.9735   3.2003   3.2241   3.2630   3.3773   3.3785   3.3867
     3.8279   3.9852   3.9857   4.4450   4.4721   4.4763   4.5854   4.5920
     4.7586   4.8031   4.8724   4.8900   5.0078   5.3156   5.3696   5.4300
     5.4314   5.9271   6.0684

          k = 0.4000-0.4619 0.0000 ( 95844 PWs)   bands (ev):

   -21.7226 -19.7744  -9.7010  -8.1363  -6.2634  -6.2625  -5.6549  -5.0060
    -5.0022  -4.8452  -4.6733  -4.4922  -4.4862  -4.3564  -4.3225  -4.2131
    -4.2120  -4.1058  -4.1047  -3.9816  -3.9799  -3.9770  -3.9409  -3.9389
    -3.9118  -3.9067  -3.7838  -3.7721  -3.7707  -3.7287  -3.7275  -3.6266
    -3.5380  -3.5228  -3.5097  -3.4393  -3.3559  -3.3549  -3.3382  -3.3368
    -3.3200  -3.2078  -3.2057  -3.1134  -3.1120  -2.9401  -2.9306  -2.8714
    -2.7711  -2.7703  -2.7196  -2.7192  -2.6119  -2.5617  -2.5130  -2.5118
    -2.4904  -2.4459  -2.4436  -2.4157  -2.3100  -2.3091  -2.2794  -2.2784
    -2.2707  -2.2704  -2.2692  -2.1976  -2.1947  -2.0657  -2.0416  -1.9934
    -1.9909  -1.8751  -1.8381  -1.8342  -1.8332  -1.8002  -1.7847  -1.7470
    -1.7462  -1.6573  -1.6322  -1.6298  -1.6249  -1.5933  -1.5598  -1.5128
    -1.5089  -1.4712  -1.4113  -1.4090  -1.3930  -1.3917  -1.2832  -1.2346
    -1.2327  -1.1873  -1.1857  -1.1466  -1.1458  -1.1288  -1.1260  -1.0992
    -1.0972  -1.0482  -1.0464  -1.0095  -0.9996  -0.9974  -0.9952  -0.9937
    -0.9776  -0.9443  -0.8784  -0.8775  -0.8755  -0.7115  -0.6663  -0.6345
    -0.5652  -0.5640  -0.4583  -0.4449  -0.4440  -0.4134  -0.3571  -0.3541
    -0.3521  -0.3302  -0.3192  -0.2407  -0.2121  -0.2104  -0.1414  -0.1246
    -0.1058  -0.0610  -0.0426  -0.0038   0.1355   0.1990   0.2001   0.2213
     0.2218   0.3141   0.3204   0.3217   0.3423   0.3540   0.3721   0.3992
     0.4000   0.5178   0.5203   0.5305   0.5860   0.5882   0.6091   0.6172
     0.6307   0.6387   0.7954   0.8432   0.8717   0.9510   0.9582   1.0359
     1.0371   1.1219   1.1643   1.1705   1.1720   1.2773   1.2782   1.3496
     1.3796   1.3902   1.4003   1.4005   1.4446   1.4509   1.4818   1.5580
     1.5589   1.5807   1.6098   1.6113   1.6148   1.6290   1.6753   1.8163
     1.8236   1.8244   1.8251   1.8266   1.8997   1.9709   2.0139   2.1538
     2.9732   2.9734   3.1986   3.2239   3.2636   3.3771   3.3787   3.3849
     3.8304   3.9852   3.9858   4.4459   4.4711   4.4759   4.5860   4.5910
     4.7589   4.8103   4.8705   4.8913   5.0076   5.3166   5.3698   5.4272
     5.4314   5.9273   6.0666

     the Fermi energy is     1.5898 ev

!    total energy              =  -27860.69328197 Ry

     total all-electron energy =  -1327022.916581 Ry
     estimated scf accuracy    <       0.00000070 Ry
     smearing contrib. (-TS)   =       0.00235597 Ry
     internal energy E=F+TS    =  -27860.69563794 Ry

     The total energy is F=E-TS. E is the sum of the following terms:
     one-electron contribution =  -30948.26169199 Ry
     hartree contribution      =   15776.47649097 Ry
     xc contribution           =    -911.68499065 Ry
     ewald contribution        =   13723.55436257 Ry
     one-center paw contrib.   =  -25500.77980884 Ry

     convergence has been achieved in  23 iterations

     negative rho (up, down):  1.371E-02 0.000E+00

     Forces acting on atoms (cartesian axes, Ry/au):

     atom    1 type  1   force =     0.00014083    0.00005908   -0.00369622
     atom    2 type  1   force =    -0.00013740    0.00004597   -0.00355535
     atom    3 type  1   force =     0.00011538   -0.00001966   -0.00331142
     atom    4 type  1   force =     0.00004364   -0.00014378   -0.00329278
     atom    5 type  1   force =     0.00000676   -0.00002450   -0.00336685
     atom    6 type  1   force =     0.00008183   -0.00008577   -0.00342973
     atom    7 type  1   force =     0.00003159   -0.00000376   -0.00332511
     atom    8 type  1   force =     0.00003286    0.00003011   -0.00337078
     atom    9 type  1   force =     0.00007771   -0.00003721   -0.00332767
     atom   10 type  1   force =     0.00001082    0.00018727    0.00377260
     atom   11 type  1   force =    -0.00021939    0.00002098    0.00294398
     atom   12 type  1   force =    -0.00018533   -0.00001384    0.00316593
     atom   13 type  1   force =    -0.00011884    0.00002308    0.00308329
     atom   14 type  1   force =    -0.00020278   -0.00003675    0.00275072
     atom   15 type  1   force =     0.00006140    0.00012622    0.00284674
     atom   16 type  1   force =    -0.00021114   -0.00016937    0.00343171
     atom   17 type  1   force =     0.00004051    0.00001199    0.00316630
     atom   18 type  1   force =    -0.00010525   -0.00014070    0.00305956
     atom   19 type  1   force =     0.00001543    0.00002326    0.00035463
     atom   20 type  1   force =    -0.00002401    0.00000991    0.00027912
     atom   21 type  1   force =    -0.00002135    0.00000363    0.00025240
     atom   22 type  1   force =    -0.00003338   -0.00005280    0.00039365
     atom   23 type  1   force =     0.00000097   -0.00002682    0.00029705
     atom   24 type  1   force =     0.00001168   -0.00001681    0.00030090
     atom   25 type  1   force =     0.00000667    0.00001429    0.00037402
     atom   26 type  1   force =     0.00000746    0.00001707    0.00035271
     atom   27 type  1   force =    -0.00003029   -0.00000930    0.00035819
     atom   28 type  1   force =     0.00004219    0.00002213    0.00016492
     atom   29 type  1   force =     0.00001704   -0.00002862    0.00001271
     atom   30 type  1   force =     0.00004050   -0.00001039   -0.00002367
     atom   31 type  1   force =     0.00002903   -0.00003926    0.00009281
     atom   32 type  1   force =     0.00003533   -0.00004814    0.00019375
     atom   33 type  1   force =     0.00009802   -0.00001889    0.00009615
     atom   34 type  1   force =     0.00007233   -0.00001749    0.00001022
     atom   35 type  1   force =     0.00003966   -0.00003311    0.00005171
     atom   36 type  1   force =    -0.00000631   -0.00005688    0.00014490
     atom   37 type  2   force =     0.00024232    0.00000387    0.00049843
     atom   38 type  3   force =    -0.00077506    0.00038673   -0.00209594
     atom   39 type  2   force =     0.00884837   -0.00012103    0.00818044
     atom   40 type  4   force =     0.00002855    0.00001806   -0.00023386
     atom   41 type  4   force =    -0.00810834    0.00015124   -0.00760018

     Total force =     0.016595     Total SCF correction =     0.002703
     SCF correction compared to forces is large: reduce conv_thr to get better values

     negative rho (up, down):  1.371E-02 0.000E+00

     negative rho (up, down):  1.371E-02 0.000E+00

     negative rho (up, down):  1.371E-02 0.000E+00

     negative rho (up, down):  1.371E-02 0.000E+00

     negative rho (up, down):  1.371E-02 0.000E+00

     negative rho (up, down):  1.371E-02 0.000E+00

     negative rho (up, down):  1.371E-02 0.000E+00

     negative rho (up, down):  1.371E-02 0.000E+00

     negative rho (up, down):  1.371E-02 0.000E+00

     negative rho (up, down):  1.371E-02 0.000E+00

     negative rho (up, down):  1.371E-02 0.000E+00

     negative rho (up, down):  1.371E-02 0.000E+00

     negative rho (up, down):  1.371E-02 0.000E+00

     negative rho (up, down):  1.371E-02 0.000E+00

     negative rho (up, down):  1.371E-02 0.000E+00

     negative rho (up, down):  1.371E-02 0.000E+00

     negative rho (up, down):  1.371E-02 0.000E+00

     negative rho (up, down):  1.371E-02 0.000E+00

     negative rho (up, down):  1.371E-02 0.000E+00

     negative rho (up, down):  1.371E-02 0.000E+00

     negative rho (up, down):  1.371E-02 0.000E+00

     negative rho (up, down):  1.371E-02 0.000E+00

     negative rho (up, down):  1.371E-02 0.000E+00

     negative rho (up, down):  1.371E-02 0.000E+00

     negative rho (up, down):  1.371E-02 0.000E+00

     negative rho (up, down):  1.371E-02 0.000E+00

     negative rho (up, down):  1.371E-02 0.000E+00

     negative rho (up, down):  1.371E-02 0.000E+00

     negative rho (up, down):  1.371E-02 0.000E+00

     negative rho (up, down):  1.371E-02 0.000E+00

     negative rho (up, down):  1.371E-02 0.000E+00

     negative rho (up, down):  1.371E-02 0.000E+00

     negative rho (up, down):  1.371E-02 0.000E+00

     negative rho (up, down):  1.371E-02 0.000E+00
 BEEFens 2000 ensemble energies
             -0.610235044837174E+02
             -0.362381013777906E+01
             -0.159189912585142E+02
              0.432085621772140E+02
             -0.222579102437971E+02
             -0.206521420004639E+02
             -0.354958632515078E+02
             -0.870490928912429E+02
             -0.468059133351676E+02
             -0.475785731844929E+02
             -0.371239723760773E+02
              0.229831276814481E+01
              0.406144195795611E+01
              0.765537055616923E+01
              0.267930627180078E+01
              0.477671510522994E+02
             -0.210381352568367E+02
             -0.231522798705109E+02
              0.193579238582536E+02
             -0.113078075202711E+03
              0.539724644847838E+02
             -0.291193763045779E+02
             -0.337859097439161E+01
             -0.115005492727618E+02
             -0.885881775658004E+01
             -0.469987121719080E+01
              0.888279886042822E+02
             -0.187816326785737E+02
             -0.908219135902164E+01
             -0.521341356668002E+02
              0.820402218744491E+02
             -0.188324432235211E+02
             -0.377274469688906E+02
              0.250868037760049E+02
             -0.286911545500584E+01
              0.164868332435831E+02
             -0.488576862651240E+01
              0.108752454660780E+02
              0.289491743408751E+02
             -0.103926208453255E+03
              0.561839992257992E+02
              0.143071917967117E+02
             -0.173989630582685E+01
             -0.363670693875945E+02
              0.123788533874958E+02
             -0.147786437154278E+02
              0.400923661937567E+02
              0.367166594307691E+02
             -0.309884733709139E+02
             -0.276629267015142E+02
             -0.329732536585988E+02
             -0.354194437257187E+02
              0.136834962428798E+02
             -0.494069001563726E+02
              0.116472480764013E+02
              0.626811644547023E+02
              0.639238440814293E+02
              0.358165061398607E+02
              0.155465655622375E+02
              0.272138893562958E+02
              0.896920340767515E+02
              0.214126928705248E+02
             -0.552076857401489E+02
             -0.158071713501715E+02
             -0.237436464414430E+02
              0.633507791044724E+02
             -0.778605080771448E+02
             -0.675380235150698E+02
             -0.260929077889528E+02
             -0.652644982299785E+01
             -0.473676645559466E+02
              0.272355127609045E+02
              0.807203305422604E+01
              0.874685052770371E+01
             -0.399558834204791E+02
             -0.348928010924381E+02
             -0.545075240289392E+02
              0.392679736125300E+02
             -0.297806971473849E+02
              0.266731265784119E+02
             -0.718086212250563E+01
             -0.319932324779497E+02
             -0.580000717838504E+02
             -0.177469686900363E+02
             -0.910943144066050E+01
             -0.125945050005092E+02
              0.414774241695438E+02
              0.686822135775110E+02
             -0.388126877917413E+02
             -0.799699624860723E+02
             -0.220874102893356E+02
              0.112205725502159E+03
             -0.595827833357239E+02
              0.357972637512031E+02
             -0.962318669862202E+01
             -0.667264077496731E+02
              0.256155498534052E+02
              0.400581002456057E+02
             -0.199503629107414E+02
              0.402223083072284E+02
             -0.297625175766154E+02
             -0.481127473059565E+02
              0.870952458538635E+02
              0.456549447153453E+02
              0.338646535526702E+02
              0.147128284878181E+02
              0.206658544939777E+02
              0.861517802954265E+02
             -0.258463325251639E+02
              0.790947739706893E+01
             -0.143255070043404E+03
              0.182665669039145E+02
             -0.720317230593761E+02
              0.151875249323313E+02
              0.205919924585221E+02
             -0.334850181728237E+02
             -0.560492926605295E+02
              0.656208527276465E+01
             -0.305775612874510E+02
              0.309929355941642E+02
             -0.532765756474928E+02
              0.171890675950522E+01
             -0.359116569725926E+02
             -0.425582725558979E+01
             -0.107844909080782E+01
              0.181831039007109E+02
              0.141184530454382E+01
             -0.657425404311334E+01
              0.593953234754878E+02
              0.913755871738375E+02
              0.486842408487958E+02
              0.835374092061980E+02
             -0.116142230568359E+02
              0.143632446214527E+02
              0.544691452415584E+02
             -0.111589222847386E+02
             -0.740609881516406E+02
             -0.386333082375169E+02
             -0.524709035948766E+02
             -0.278571367847865E+02
              0.328728443487603E+02
             -0.117478714280409E+03
             -0.188131138845403E+02
              0.416434428203097E+02
             -0.388552813681588E+02
             -0.367397402654874E+02
              0.547033945433988E+02
              0.403514723969940E+02
             -0.356048255992638E+02
              0.138537195117381E+02
             -0.274747944792377E+02
              0.345405943908198E+02
              0.450458447259660E+01
              0.212243280419648E+02
             -0.890189618862569E+02
             -0.483305314171244E+02
             -0.100351929003007E+02
              0.321190821234115E+01
             -0.369249723578054E+02
              0.106635753358282E+03
             -0.232365463210760E+02
             -0.400750175512128E+02
              0.391371113604087E+02
             -0.497173192881752E+02
             -0.365062211372492E+02
              0.326428342575293E+02
              0.124918444111789E+02
              0.165345898957020E+02
              0.116943363580907E+02
             -0.133430672804157E+02
              0.226437539738026E+02
              0.593869663418409E+02
             -0.313711321788223E+02
              0.163410087896756E+02
              0.940046276915530E+02
              0.342544409985852E+02
             -0.735354899661138E+01
             -0.189422006193353E+02
              0.154265006835760E+03
             -0.164939901624001E+02
              0.365279578757318E+02
              0.195736487363608E+02
              0.363888465050162E+02
              0.897529467029904E+02
              0.545733252463613E+02
             -0.242587861695088E+01
              0.228869590556303E+02
              0.487440025816120E+02
              0.365913888638563E+02
             -0.529144606601639E+02
              0.941514118286077E+02
             -0.831050726820579E+02
             -0.199259728069189E+02
              0.586348840998957E+02
              0.676931906634407E+01
              0.788636110827815E+01
              0.343090200721895E+02
              0.300461843409257E+02
              0.355927310082610E+02
             -0.641301336874815E+02
              0.289559674890734E+01
             -0.299136276241728E+02
             -0.876283311608232E+01
             -0.144065370278702E+01
             -0.726185938271047E+01
             -0.418231623546302E+01
              0.864544097154301E+02
             -0.101558412765609E+02
             -0.278192226283735E+02
             -0.498686185018094E+01
              0.140497555970590E+02
             -0.567381168973543E+02
             -0.409612289279205E+02
             -0.384135340990823E+02
             -0.633786156381375E+02
             -0.170476378250275E+02
             -0.449883729558175E+02
              0.164719314298629E+02
             -0.241042350289197E+01
             -0.105179010829841E+02
             -0.940031270684727E+01
              0.812174985356705E+01
             -0.244366381869280E+02
              0.693185051312468E+02
             -0.812123073377431E+02
             -0.141928098312623E+02
             -0.175157826940841E+02
              0.183116169409293E+02
              0.215027283040961E+02
             -0.466327781376799E+02
             -0.202799866235659E+02
              0.443559793597061E+02
             -0.277741753968607E+02
              0.187732270205429E+02
              0.385341537055774E+02
             -0.322174775586154E+01
              0.114808417796693E+03
             -0.231289698521917E+02
             -0.343084626483565E+02
              0.583227260290386E+01
             -0.229573517115613E+02
              0.530545355190861E+02
             -0.339310527060121E+02
              0.106828358134920E+02
              0.644400890707415E+02
             -0.127475153932764E+02
              0.120941442395400E+03
              0.126648141014149E+03
             -0.653883629162065E+02
              0.593874080484580E+02
              0.167250641875122E+02
             -0.520947384651901E+02
              0.217402871893058E+02
              0.355898009610048E+02
              0.364976553496060E+02
              0.137079648781614E+01
              0.160120009879571E+02
              0.700096075566321E+02
             -0.248201897198327E+02
              0.182225807302086E+02
              0.743839601641513E+02
             -0.374901952862659E+02
             -0.130507865069131E+02
              0.511605638771896E+02
              0.299011049021468E+02
              0.784753766873346E+02
              0.224251636352940E+02
              0.629186562721344E+01
              0.281994985007253E+02
              0.385653051596337E+02
             -0.474386497443161E+02
              0.332389614287291E+01
              0.130564769033019E+02
              0.114183286949587E+02
              0.221750827495907E+02
             -0.578395055864721E+02
              0.367992119254533E+02
             -0.446461337022893E+02
             -0.349214800013040E+02
              0.178825878723254E+02
             -0.182449272052737E+02
              0.557922172981121E+02
             -0.257769349940159E+02
              0.268400581162351E+02
              0.369809889924139E+02
              0.833926020567975E+02
              0.578069979266268E+02
              0.464894308049225E+02
             -0.106607614834379E+02
             -0.392305101781892E+01
             -0.334200743605302E+02
              0.755066873374015E+02
              0.801839949128681E+02
              0.364033983646407E+02
             -0.193327331513726E+02
              0.514726346864320E+02
             -0.163572719816982E+02
              0.216457670156068E+02
              0.618187991314678E+02
              0.211713919591199E+01
             -0.105071623149391E+02
             -0.284548388320904E+02
             -0.514665831438247E+02
              0.951069921610531E+02
              0.442275693225077E+02
             -0.562329876099301E+02
             -0.971799013490505E+01
              0.251713378126130E+02
             -0.100663854040311E+02
              0.595751207036913E+02
              0.152909114600422E+02
              0.803658726568611E+02
              0.281047731681721E+02
             -0.265667373067306E+02
              0.250356116382128E+02
             -0.504245436311288E+01
             -0.325503094851533E+02
              0.134203179529051E+02
              0.206848775520692E+02
              0.937950036945242E+02
              0.802087872247982E+02
              0.554120317204688E+02
              0.734898687474356E+02
              0.805467054430417E+01
             -0.275352528944072E+02
              0.163845317722009E+02
             -0.370157158515830E+02
             -0.479317985178901E+02
             -0.567335871606637E+02
             -0.268244916794682E+02
             -0.110353543828317E+03
             -0.293101625952396E+02
             -0.842449078946816E+02
              0.211114309166107E+02
             -0.479953812305502E+02
              0.399159730072242E+02
             -0.946891147856493E+02
             -0.331839976086981E+02
              0.551674760168208E+02
              0.208877996356305E+02
             -0.835556604382735E+02
              0.634603992953375E+02
             -0.258394063475690E+02
              0.515657864903144E+02
             -0.244543984610462E+02
             -0.756142584349649E+02
              0.112876380053937E+02
             -0.615214261281145E+02
             -0.169285182697812E+02
             -0.147226700260581E+01
              0.421029793310876E+02
              0.127742677876903E+03
             -0.464511622374388E+02
             -0.364616938662425E+02
             -0.983938895544725E+00
             -0.131471014895366E+02
             -0.827249589076875E+02
             -0.600394958692959E+02
              0.520334053575100E+02
             -0.290687295834481E+02
              0.169859550693814E+02
             -0.492295618172777E+02
             -0.132650479830170E+02
             -0.439652332166920E+02
              0.568540043136040E+02
              0.152069383821236E+02
             -0.232928112426468E+02
             -0.127566344758430E+02
              0.672688704910787E+01
             -0.626831507189843E+01
              0.444207252865262E+02
             -0.253598406203134E+02
              0.279807052695480E+01
              0.341303818296191E+02
              0.172370851877254E+02
             -0.160842969489041E+02
              0.157190678637198E+03
              0.541177352921280E+02
              0.118554611212365E+01
              0.161876955966686E+02
             -0.618659689885895E+02
              0.316658230086210E+02
             -0.726020409494078E+02
             -0.253590022242097E+02
             -0.526012690475405E+02
             -0.221024432020201E+02
              0.572384534692250E+02
             -0.540496647319917E+02
              0.161842753410209E+02
             -0.409301600962465E+01
              0.389251906325984E+01
             -0.436083788304724E+02
             -0.480822319288133E+02
             -0.398841941042554E+01
             -0.427859404968522E+02
             -0.218690091808833E+02
             -0.440766219074127E+02
             -0.119893516616955E+02
             -0.361114422506568E+02
             -0.519715812834446E+02
              0.214587496552565E+02
             -0.210555807626988E+02
              0.188890146805779E+02
              0.983859076263560E+01
             -0.742368377119525E+02
             -0.551521483432393E+02
             -0.400454895790767E+02
              0.356824603832888E+02
              0.271765683425429E+01
             -0.630787457723934E+02
              0.589095888689366E+02
             -0.403690056655109E+02
              0.547784474143585E+02
             -0.291437861203668E+02
             -0.449048673690484E+02
              0.300095145737901E+02
             -0.661787889520993E+02
             -0.382517207068411E+02
              0.676863697716637E+02
              0.205149919780970E+02
             -0.362378984811775E+02
              0.492872853061311E+02
             -0.175188450283556E+02
             -0.325177932822908E+02
             -0.303862444066847E+02
             -0.503587512559893E+02
              0.250667038145385E+02
             -0.938457768763845E+02
             -0.845486140381019E+02
             -0.739460097850497E+01
             -0.308428199332380E+02
             -0.579016608617127E+02
              0.726038634062463E+02
              0.132313667839022E+03
             -0.363209561095593E+02
             -0.254312284045182E+01
             -0.641288543281584E+02
              0.654189547598098E+02
              0.172040790647172E+02
             -0.182865459656555E+02
             -0.412395423746846E+02
              0.149636898409913E+02
             -0.589984550457305E+02
             -0.199002225571827E+02
             -0.910353080526492E+02
              0.339146001626768E+02
              0.170067427042842E+02
              0.184110182256666E+01
             -0.707083841539236E+01
             -0.331760421496379E+02
             -0.762798513128740E+01
              0.126307927197284E+03
             -0.199877485567355E+02
             -0.440271593521933E+02
             -0.687800573522387E+02
              0.110067980506067E+02
             -0.344153580727947E+02
              0.594826351012225E+01
              0.263342806595189E+02
              0.102423834709429E+02
              0.279755672495142E+02
              0.120612485209855E+02
              0.633077191939414E+02
              0.318788501002682E+02
             -0.328504115163646E+02
              0.357899398917678E+02
              0.381682004365044E+02
              0.121587140692011E+02
              0.489939283801351E+02
             -0.225955226022076E+02
              0.770073499481849E+02
              0.173225228711912E+02
             -0.273987677343861E+02
             -0.729379351594639E+01
             -0.187528001580993E+02
              0.263276304061504E+02
             -0.236238083999240E+02
             -0.127006888717204E+00
             -0.858210879970682E+01
              0.814451449786189E+02
              0.503456060057517E+02
             -0.691596963041626E+02
             -0.478107176423029E+01
             -0.558888196693964E+02
             -0.160456918166387E+02
             -0.269833942330813E+02
              0.381177452436896E+01
              0.567574087121654E+00
             -0.259193949718839E+02
              0.818969586378907E+01
             -0.606892157640621E+01
             -0.129474232036851E+02
              0.864037017290939E+02
              0.183074365241132E+02
             -0.811627241357453E+02
             -0.461211278272236E+02
              0.950264289286134E+02
              0.279421266896356E+02
             -0.107213264380201E+02
              0.105232376191149E+03
             -0.196129937858882E+02
             -0.123662056930971E+02
             -0.542624469244106E+01
              0.108433899054867E+02
              0.273920311459726E+02
              0.782611088776278E+01
              0.307013481200406E+02
             -0.188836547882251E+02
             -0.305521496533335E+02
             -0.420320507335163E+02
             -0.480098572058614E+02
              0.466827919150828E+02
              0.127681815290353E+02
              0.390020836398590E+02
              0.134462552212751E+02
              0.860904823015860E+02
              0.157338431394241E+02
             -0.850647230644744E+02
             -0.336563301794544E+02
              0.134540646526399E+02
             -0.304505789869606E+02
              0.630210631591030E+02
             -0.897120900990990E+01
              0.149823011009353E+02
              0.500195059222166E+02
             -0.711805059056743E+02
              0.150643258421903E+03
              0.209905416462804E+02
              0.272593870844742E+02
              0.349787983396353E+02
              0.104604523200545E+02
             -0.157391948432877E+01
              0.360645695459860E+02
             -0.359380574916751E+02
              0.778083613267581E+02
              0.689125911000963E+02
             -0.408557812233698E+02
              0.150882781855082E+02
              0.674492571184646E+02
             -0.225299275224484E+02
              0.155065080974170E+02
              0.437904722638482E+02
              0.425017222407482E+02
             -0.789783986235647E+02
             -0.153674087620578E+02
             -0.358538376796220E+02
             -0.154133071466470E+01
             -0.769481187705401E+01
             -0.545849689506986E+01
             -0.182005619303182E+02
             -0.295663378910272E+02
              0.638379410731012E+01
              0.112515197714152E+02
              0.539054173413199E+02
             -0.392796122044793E+02
              0.376583358218096E+02
              0.441336241895164E+02
             -0.187893684999523E+02
              0.877739353564507E+02
             -0.701891586019306E+02
             -0.103819815822312E+03
             -0.659476847607543E+01
             -0.275532591226090E+01
              0.387942136162121E+01
              0.794068883039651E+02
             -0.107617273485776E+02
              0.419091624649897E+02
              0.446619751921413E+02
              0.387521018477297E+02
             -0.996938678935908E+01
              0.631570120934143E+02
             -0.134648649521818E+02
             -0.309459968985842E+02
             -0.482804311172918E+02
              0.589197903478183E+01
              0.372401424180414E+02
             -0.606325784053428E+01
              0.395445707216411E+02
             -0.174478970667059E+01
              0.659113387129448E+02
              0.188779307779174E+02
              0.100200419047035E+02
             -0.122182131411156E+02
              0.334321352971866E+02
              0.364835354046760E+02
              0.233965369235225E+02
             -0.515140865555452E+00
             -0.553689082124260E+02
              0.262478493660607E+02
              0.176345402426882E+02
              0.405105607334473E+02
              0.274305017145904E+02
              0.374381833250604E+02
             -0.605717241284498E+01
              0.252690760804041E+02
             -0.299918159034949E+02
             -0.200485997018257E+01
             -0.572667733322127E+02
             -0.309753930639542E+02
              0.381262878776254E+02
             -0.941276972018246E+02
              0.296385414297824E+02
              0.185067573094041E+02
              0.845222308594616E+02
             -0.302411404159352E+02
              0.331264776472980E+02
             -0.138413257169990E+02
             -0.466847050884089E+02
             -0.766072809378212E+02
             -0.530025188438653E+01
             -0.865566638385189E+02
              0.200806727516002E+02
             -0.248929371504611E+02
              0.307548634576951E+02
              0.237839473209808E+02
             -0.242719688066002E+02
             -0.267079041244100E+02
              0.393393451590539E+02
             -0.591645174661493E+02
             -0.117459580091971E+02
             -0.197336710742016E+02
              0.214015235235216E+02
             -0.896265801702145E+01
              0.365093606322742E+01
             -0.202086774882874E+02
              0.562121739121438E+02
             -0.442177962672284E+02
              0.798330832046724E+01
              0.589118683729874E+02
             -0.325332885125330E+02
              0.360914130921719E+01
             -0.885150134786340E+01
             -0.674044676504039E+02
             -0.485749066944464E+02
             -0.866958051311527E+01
              0.242274778837188E+02
              0.303988384970762E+02
              0.864309519506162E+01
             -0.416129711105680E+01
              0.153459545565961E+02
             -0.442797744783776E+02
              0.332423203569704E+01
             -0.534254236704509E+02
             -0.326162071752917E+02
              0.477613235260345E+02
             -0.296899175060005E+02
              0.626352610928344E+02
             -0.215972793888983E+02
              0.356120456192591E+02
              0.243396666641577E+02
             -0.647846570632759E+02
             -0.282427534079635E+02
              0.934181262123073E+01
             -0.373814202659007E+02
             -0.341988177530513E+02
             -0.834813784389839E+02
             -0.542998230651895E+02
             -0.513799511705375E+02
             -0.418143325601567E+02
             -0.958854760653281E+00
              0.100309518874506E+02
              0.103870976089348E+01
              0.154266944339135E+02
             -0.552885770076840E+02
              0.142768399050467E+02
              0.257859479041401E+02
             -0.670943844020302E+02
             -0.705908404755073E+02
             -0.433521867857658E+02
             -0.173329304250516E+02
              0.179975183307495E+02
              0.455835652375345E+01
[...]
              0.284857257664702E+02
              0.142629402036224E+03
              0.244067593733187E+02
              0.123633450476799E+02
             -0.467393660426019E+02
             -0.641785331922769E+02
             -0.190080564973695E+02
              0.331504508578794E+02
             -0.432198072058134E+01
              0.191227361234076E+02
              0.338081659643088E+02
             -0.590299055917291E+02
              0.224145438335922E+02
              0.585151649950520E+02
              0.556551640286746E+02
             -0.422150724605126E+01
             -0.138462231646736E+01
             -0.998893542165004E+01
             -0.485476204026118E+02
             -0.678919646965710E+02
              0.790613371321100E+02
             -0.527215155693639E+01
             -0.591617310337782E+02
              0.169160021951328E+01
             -0.206696932124537E+02
              0.943904611518483E+02
             -0.217616781930817E+02
             -0.355466597795226E+02
              0.336977955580780E+02
             -0.146603756531479E+02
              0.392267897428360E+02
             -0.242577694560993E+01
              0.101684510473678E+03
              0.492196409416090E+02
             -0.514836429901391E+01
             -0.324010580989484E+02
              0.233873653628013E+02
             -0.531883292771457E+02
             -0.128493044996638E+02
              0.589369285433623E+02
             -0.289333562474583E+02
             -0.441055509675784E+02
             -0.224223720881400E+02
              0.521668663712451E+02
              0.125675364045278E+02
             -0.853926456563914E+02
              0.305997895965868E+02
              0.153398116506704E+02
              0.581852627212047E+01
             -0.516275812902207E+02
             -0.375348152952813E+01
              0.325194509148235E+02
              0.516179664003143E+02
              0.636088248445361E+02
              0.230628866808188E+02
              0.786532518644037E+00
             -0.500796607781744E+02
             -0.512659284540143E+02
             -0.752481519600933E+02
             -0.619298415338255E+01
              0.310951399577378E+02
             -0.383852726084703E+01
              0.549915112021190E+02
             -0.319900878920905E+02
              0.167326604813594E+02
             -0.103309933188138E+02
             -0.291285592029551E+02
              0.589051425304398E+02
              0.796054550109835E+01
              0.607744224348484E+02
              0.513249890767008E+01
              0.266625390309135E+02
             -0.193497528355507E+02
              0.589815444172675E+02
             -0.112058164339035E+02
             -0.136758458488972E+00
             -0.794659235554513E+02
             -0.129031949036369E+02
              0.723391392382788E+02
              0.677414201300185E+02
              0.253004382081977E+02
             -0.130947538921096E+02
              0.342478213151924E+01
             -0.174287726748324E+02
             -0.205192257961335E+01
              0.912716533376882E+02
              0.122391886918081E+01
             -0.191762376459712E+02
             -0.111411663974638E+03
             -0.556112294558184E+02
             -0.377140222258193E+02
             -0.662698005035388E+02
             -0.558978587324215E+02
             -0.686993490704361E+02
             -0.449888472508415E+02
             -0.413065884350923E+02
             -0.454375047310380E+02
              0.486278479380662E+02
             -0.295772096373535E+02
             -0.100177838038819E+03
              0.421622720739844E+02
             -0.261788560689746E+02
             -0.795467595702764E+02
              0.949672431690772E+02
             -0.221058150563295E+02
              0.229235636484212E+02
              0.457774589558780E+02
             -0.135312807380558E+01
              0.255516554534759E+02
              0.469620438240537E+01
              0.400377634036865E+00
             -0.151394463118805E+02
             -0.720021632113276E+02
              0.133977544286524E+02
             -0.130167116352237E+03
              0.627627440855375E+02
             -0.443138181276810E+02
             -0.163301889074636E+02
             -0.158740418427458E+02
              0.721275103288134E+01
             -0.228906471806690E+02
              0.298974189024845E+02
             -0.523531628194590E+02
              0.369765299786339E+02
              0.373202123662944E+02
              0.169576158440278E+02
              0.101146456570436E+02
              0.198992786987121E+02
              0.624798748357256E+01
              0.312336150529302E+02
             -0.808109425228588E+01
             -0.595519561708678E+02
              0.764918300521305E+01
             -0.154161177193771E+02
             -0.196214917701724E+01
              0.508903551088598E+02
             -0.831824021187127E+02
             -0.147580481291897E+01
              0.562817006239584E+00
              0.999483537638304E+01
              0.320417932160084E+02
             -0.124498246327265E+02
              0.840392084264761E+02
              0.490740567355807E+02
             -0.184343287605755E+02
             -0.964196654351110E+01
              0.107292485604404E+01
              0.774131838236577E+02
             -0.589252321265062E+02
             -0.106376063122244E+03
              0.310932838318981E+02
             -0.163643725312591E+02
             -0.140315131531692E+02
              0.131438415716723E+02
              0.773274234510693E+02
              0.467071730442585E+02
             -0.154529916919590E+02
             -0.505787348281880E+02
             -0.551654770862626E+01
              0.308182433709462E+02
             -0.112350422747725E+02
             -0.759821644386254E+02
             -0.272022559015181E+01
             -0.895066759316507E+02
             -0.478037700809273E+02
              0.772979073171333E+02
             -0.486437253066623E+02
             -0.640487612587968E+02
             -0.517677194059930E+02
             -0.351693989499413E+02
              0.342925182944691E+02
              0.826331664794930E+02
             -0.358475789864832E+01
              0.278127713447547E+02
             -0.184610013665451E+02
             -0.697717106894722E+02
              0.468095612228917E+02
             -0.447697648938196E+02
              0.323690240188436E+02
              0.378438544130565E+02
             -0.660866600351153E+01
              0.393306211613604E+02
              0.441014311843320E+02
              0.101258821984450E+03
             -0.157105342925984E+02
             -0.458275485348814E+02
             -0.616429910749159E+02
             -0.124468255763857E+02
             -0.234448005208697E+02
              0.103643657394506E+03
             -0.451830352608273E+02
              0.105492088996637E+02
              0.976180582553428E+01
             -0.266189411298156E+02
             -0.803422058736436E+02
             -0.704071620465970E+01
              0.985492503136696E+02
              0.942311036597130E+01
              0.814026671129602E+01
             -0.529606371292271E+02
             -0.608440798816050E+02
             -0.565946329405911E+01
              0.503029026713591E+02
             -0.223344156245757E+02
              0.108583590597974E+03
             -0.437945924982938E+02
              0.147208859461360E+02
             -0.225539026952770E+02
             -0.722201205909370E+02
              0.169862757807027E+01
             -0.504532913599583E+02
             -0.764708763689366E+02
              0.619014784915043E+01
              0.235820168274756E+01
              0.516967482946702E+02
              0.188436824774791E+02
             -0.325593308875104E+02
              0.231627471196045E+02
             -0.815416929506957E+02
             -0.524745452592545E+02
              0.907133945927252E+02
              0.143091062747677E+02
             -0.188870977297452E+02
             -0.354293721187523E+02
             -0.271785961675391E+01
             -0.588542058198050E+01
              0.835185056895966E+02
              0.420189143248915E+02
             -0.166916405300617E+02
             -0.122478455783488E+02
             -0.430055279813405E+02
             -0.202048649499191E+02
             -0.673844142092009E+02
              0.462691729210419E+02
              0.551146618897354E+01
              0.145672520851195E+02
              0.156678995482550E+02
             -0.592024188008946E+00
             -0.169410879766300E+02
             -0.313653927894255E+01
             -0.101012311356845E+03
             -0.231167369238844E+02
             -0.768265475177822E+01
             -0.953200409902897E+01
              0.549715777858117E+02
              0.627343067168341E+02
              0.165473503742033E+02
             -0.976013603517483E+02
              0.651104766293882E+02
             -0.216246990134670E+02
             -0.379172308770770E+02
             -0.869225154607661E+02
             -0.389175328576776E+02
              0.567536911797500E+02
              0.246069889702019E+02
              0.523041503167633E+01
              0.294010247238011E+02
             -0.568045854156246E+02
             -0.424686890293848E+02
              0.518612651523924E+02
              0.389390001533258E+02
              0.521895032812579E+02
             -0.125797781489160E+01
              0.690687960451231E+01
              0.572486574810974E+02
              0.968624814354798E+02
             -0.301748474177590E+02
              0.325111965125445E+02
             -0.119013193609863E+02
             -0.414710997493265E+02
             -0.316329511167727E+02
             -0.301736236658628E+02
             -0.132020570062368E+02
             -0.526203509152818E+02
             -0.218731192581665E+02
             -0.141968424658737E+03
              0.370987907564379E+02
              0.207844872570299E+02
             -0.394123577200825E+01
             -0.382475920613815E+02
             -0.205681786599527E+02
             -0.529652172026550E+02
              0.152208923617439E+02
              0.824793189577179E+02
             -0.253068230268358E+02
             -0.164006670819530E+02
              0.239107909224327E+02
             -0.492151822183263E+02
              0.885776854920819E+02
              0.155605437689704E+02
              0.227238178068455E+02
              0.493260135906341E+02
              0.321326001731904E+01
              0.545202670035119E+02
              0.143807477762644E+02
             -0.107263628915142E+02
              0.736409022060354E+01
              0.751887891834485E+00
              0.731430948329029E+02
              0.101855199419971E+02
              0.121341357265717E+02
             -0.130620710062725E+02
              0.133104843476229E+02
             -0.916491489957709E+02
             -0.328347872968440E+02
             -0.459726511166303E+02
              0.488499597663113E+02
             -0.292757528540009E+02
             -0.662317177623310E+02
              0.541857795263010E+02
             -0.122888361940082E+02
              0.442717212986003E+02
             -0.904164550187415E+02
              0.233937881408854E+02
              0.861721574830449E+01
              0.582423702019014E+01
             -0.834601664813147E+01
             -0.907256904032465E+01
              0.482353228655181E+02
              0.200801619727162E+01
             -0.477535727761442E+02
             -0.177105294929862E+02
              0.278285963905448E+02
             -0.118631259305981E+03
             -0.935341138125990E+02
              0.397459636362322E+01
              0.118114229542568E+02
             -0.415604408184896E+02
             -0.393793404195907E+01
              0.112737595191990E+03
              0.308749786373679E+02
             -0.574792189533028E+02
              0.929753688498215E+01
             -0.967919929186017E+01
              0.106400199074935E+02
             -0.339464956249524E+02
              0.196309053402007E+02
              0.286124982915717E+02
             -0.301657317705104E+01
              0.108796566821228E+03
             -0.141059213309757E+02
             -0.317984176405180E+02
              0.144051749341311E+02
              0.468985231063295E+02
             -0.358261442077235E+02
             -0.318661588018961E+01
              0.970330093232004E+02
             -0.466208211633432E+01
              0.624708974830843E+02
              0.136431813907014E+02
             -0.908364279032658E+01
             -0.306613593741426E+02
              0.569894013740073E+02
             -0.517409523609321E+02
             -0.224759020253248E+01
             -0.170835544415804E+02
             -0.407889781589639E+02
              0.185790459683816E+02
              0.240454194594368E+02
              0.116757334598408E+02
              0.690684010415680E+00
             -0.386403471606153E+02
              0.216368524443355E+02
             -0.675682669031769E+01
             -0.247881505515273E+02
             -0.211967745742526E+02
              0.204734629653020E+02
             -0.604041622303907E+01
             -0.351267628747420E+02
             -0.107245653626044E+03
              0.103078142103534E+02
              0.250545155563232E+02
             -0.389715272701991E+02
             -0.212053779696221E+02
              0.811790376306298E+02
              0.653559290492427E+01
              0.312743756871064E+02
              0.392413907118075E+01
              0.323771984939336E+02
              0.650586795300353E+01
             -0.375283482646556E+02
             -0.231423415463078E+01
              0.881544322686312E+01
              0.275254106060801E+02
              0.786809750393264E+02
              0.510093973087559E+02
              0.193228513417239E+00
              0.170091822450180E+02
              0.616653990207069E+02
              0.237278941203749E+02
             -0.757240203442417E+02
             -0.275315772954299E+02
              0.152294965685579E+02
              0.565825142136430E+01
              0.256476458009011E+02
             -0.550921481314055E+02
              0.905527026789839E+01
              0.388144513892012E+02
              0.500808951579335E+02
             -0.437403049245557E+02
             -0.695119727960758E+01
             -0.209924912952590E+01
             -0.134627790857152E+02
             -0.367392164664261E+02
             -0.216481206283066E+02
             -0.200625737340249E+01
              0.797275215500031E+01
              0.423727192149189E+02
             -0.309811042656920E+02
              0.830735419173342E+02
              0.329602027871570E+02
              0.221272733798829E+02
              0.335057649436635E+02
              0.325186596763702E+02
              0.347790548799732E+02
              0.540265022245025E+02
             -0.436550541185929E+02
              0.623227551381219E+02
             -0.112903776271516E+03
              0.309209725191577E+02
             -0.107147324574342E+03
              0.859253830040875E+02
              0.694997347968458E+02
             -0.110459779255651E+02
             -0.496187753095318E+02
             -0.431884015670906E+02
             -0.627036195975886E+02
             -0.632215266826685E+02
              0.555064932848493E+02
              0.407959274731070E+02
              0.238132972057617E+02
              0.375856622198176E+02
              0.405003528556431E+02
             -0.384232535381260E+02
             -0.198867764301823E+02
              0.589959436046959E+02
             -0.116854895666040E+02
              0.554696440080671E+02
              0.703425031016258E+02
             -0.555277577037024E+01
             -0.710352451199744E+02
             -0.889103887833471E+00
             -0.244943012150943E+01
             -0.888060710515731E+01
             -0.180119456370926E+01
             -0.656877811414935E+02
             -0.211947552126906E+02
              0.543831025192717E+01
              0.902978880909251E+01
              0.471569532679985E+02
             -0.399782399671265E+02
              0.661402984682358E+02
             -0.427657683714357E+02
              0.211625390224521E+02
              0.352549573289112E+02
 
 BEEF-vdW xc energy contributions
           1 :   -787.217212722559     
           2 :    722.875948169485     
           3 :   -611.783201492960     
           4 :    481.367290679486     
           5 :   -359.114252365312     
           6 :    264.642667776358     
           7 :   -205.469153525942     
           8 :    177.081955758286     
           9 :   -166.909431088432     
          10 :    160.387389912883     
          11 :   -146.694821998597     
          12 :    121.984459970400     
          13 :   -89.2509021603790     
          14 :    55.4549424678503     
          15 :   -27.5749791175243     
          16 :    9.37239381564802     
          17 :  -0.104321225412491     
          18 :   -4.56385700680437     
          19 :    10.1130198661314     
          20 :   -20.4728918792508     
          21 :    36.3163652811448     
          22 :   -55.0275752044074     
          23 :    72.1943007674598     
          24 :   -83.8141217519886     
          25 :    88.1252781389436     
          26 :   -86.2488956028212     
          27 :    81.4458111346427     
          28 :   -77.4404772977167     
          29 :    76.6493794058365     
          30 :   -79.1572112126628     
          31 :   -86.2466002123662     
          32 :   -66.0148420499330     

     Writing output data file ./pwscf.save/
 
     init_run     :    339.26s CPU    344.04s WALL (       1 calls)
     electrons    :  15887.72s CPU  16052.82s WALL (       1 calls)
     forces       :    106.79s CPU    108.19s WALL (       1 calls)

     Called by init_run:
     wfcinit      :    289.35s CPU    293.01s WALL (       1 calls)
     potinit      :     46.29s CPU     46.63s WALL (       1 calls)
     hinit0       :      1.56s CPU      1.61s WALL (       1 calls)

     Called by electrons:
     c_bands      :  13154.00s CPU  13280.28s WALL (      24 calls)
     sum_band     :   1849.79s CPU   1867.28s WALL (      24 calls)
     v_of_rho     :    150.32s CPU    155.54s WALL (      24 calls)
     newd         :     40.14s CPU     56.20s WALL (      24 calls)
     PAW_pot      :    168.06s CPU    168.09s WALL (      24 calls)
     mix_rho      :    572.35s CPU    573.33s WALL (      24 calls)
     vdW_kernel   :     33.90s CPU     33.90s WALL (       1 calls)

     Called by c_bands:
     init_us_2    :    101.62s CPU    102.03s WALL (     650 calls)
     cegterg      :  12116.57s CPU  12242.25s WALL (     312 calls)

     Called by *egterg:
     cdiaghg      :    105.40s CPU    105.44s WALL (    1967 calls)
     h_psi        :   7585.03s CPU   7629.04s WALL (    1993 calls)
     s_psi        :   1315.95s CPU   1316.14s WALL (    1993 calls)
     g_psi        :     19.86s CPU     19.87s WALL (    1668 calls)

     Called by h_psi:
     h_psi:calbec :   1241.26s CPU   1241.79s WALL (    1993 calls)
     vloc_psi     :   4995.63s CPU   4997.53s WALL (    1993 calls)
     add_vuspsi   :   1315.67s CPU   1315.90s WALL (    1993 calls)

     General routines
     calbec       :   1819.93s CPU   1820.58s WALL (    2357 calls)
     fft          :     58.09s CPU     58.13s WALL (    3464 calls)
     ffts         :    185.39s CPU    185.44s WALL (   12432 calls)
     fftw         :   5226.50s CPU   5227.86s WALL (  390418 calls)
 
     Parallel routines
 
     PWSCF        :      4h34m CPU      4h37m WALL

 
   This run was terminated on:  20:31: 6  20May2022            

=------------------------------------------------------------------------------=
   JOB DONE.
=------------------------------------------------------------------------------=
