
     Program PWSCF v.6.7MaX starts on 21Dec2022 at 12:53: 0 

     This program is part of the open-source Quantum ESPRESSO suite
     for quantum simulation of materials; please cite
         "P. Giannozzi et al., J. Phys.:Condens. Matter 21 395502 (2009);
         "P. Giannozzi et al., J. Phys.:Condens. Matter 29 465901 (2017);
          URL http://www.quantum-espresso.org", 
     in publications or presentations arising from this work. More details at
     http://www.quantum-espresso.org/quote

     Parallel version (MPI), running on     1 processors

     MPI processes distributed on     1 nodes
     Reading input from hooh-ensemble.in
Warning: card &CELL ignored
Warning: card / ignored

     Current dimensions of program PWSCF are:
     Max number of different atomic species (ntypx) = 10
     Max number of k-points (npk) =  40000
     Max angular momentum in pseudopotentials (lmaxx) =  3
     file Pt.pbe-n-kjpaw_psl.1.0.0.UPF: wavefunction(s)  6S 5D renormalized
     file O.pbe-nl-kjpaw_psl.1.0.0.UPF: wavefunction(s)  2S 2P renormalized
     file H.pbe-kjpaw_psl.1.0.0.UPF: wavefunction(s)  1S renormalized

     **************************************************************************
     Initializing libbeef V0.1.2 with the BEEF-vdW functional.
     Citation: Wellendorff et al., PRB 85, 235149 (2012).
     **************************************************************************


     IMPORTANT: XC functional enforced from input :
     Exchange-correlation= BEEF-VDW
                           (   1   4  43  14   2   0   0)
     Any further DFT definition will be discarded
     Please, verify this is what you really want


     Subspace diagonalization in iterative solution of the eigenvalue problem:
     a serial algorithm will be used

 
     G-vector sticks info
     --------------------
     sticks:   dense  smooth     PW     G-vecs:    dense   smooth      PW
     Sum        4267    4267   1159               718867   718867  101225
 


     bravais-lattice index     =            0
     lattice parameter (alat)  =      16.0349  a.u.
     unit-cell volume          =   11441.7184 (a.u.)^3
     number of atoms/cell      =           40
     number of atomic types    =            3
     number of electrons       =       374.00
     number of Kohn-Sham states=          224
     kinetic-energy cutoff     =      60.0000  Ry
     charge density cutoff     =     240.0000  Ry
     scf convergence threshold =      1.0E-06
     mixing beta               =       0.7000
     number of iterations used =            8  local-TF  mixing
     Exchange-correlation= BEEF-VDW
                           (   1   4  43  14   2   0   0)

     celldm(1)=  16.034858  celldm(2)=   0.000000  celldm(3)=   0.000000
     celldm(4)=   0.000000  celldm(5)=   0.000000  celldm(6)=   0.000000

     crystal axes: (cart. coord. in units of alat)
               a(1) = (   1.000000   0.000000   0.000000 )  
               a(2) = (   0.500000   0.866025   0.000000 )  
               a(3) = (   0.000000   0.000000   3.204537 )  

     reciprocal axes: (cart. coord. in units 2 pi/alat)
               b(1) = (  1.000000 -0.577350  0.000000 )  
               b(2) = (  0.000000  1.154701  0.000000 )  
               b(3) = (  0.000000  0.000000  0.312058 )  


     PseudoPot. # 1 for Pt read from file:
     /users/bkreitz1/quantum-espresso/potentials/Pt.pbe-n-kjpaw_psl.1.0.0.UPF
     MD5 check sum: 04dc8a03c51ece93fc7b5889c2958091
     Pseudo is Projector augmented-wave + core cor, Zval = 10.0
     Generated using 'atomic' code by A. Dal Corso  v.6.7MaX
     Shape of augmentation charge: PSQ
     Using radial grid of 1277 points,  6 beta functions with: 
                l(1) =   0
                l(2) =   0
                l(3) =   1
                l(4) =   1
                l(5) =   2
                l(6) =   2
     Q(r) pseudized with 0 coefficients 


     PseudoPot. # 2 for O  read from file:
     /users/bkreitz1/quantum-espresso/potentials/O.pbe-nl-kjpaw_psl.1.0.0.UPF
     MD5 check sum: eef08af8b58d9ec80f8fdb78829eb7cf
     Pseudo is Projector augmented-wave + core cor, Zval =  6.0
     Generated using 'atomic' code by A. Dal Corso  v.6.7MaX
     Shape of augmentation charge: PSQ
     Using radial grid of 1095 points,  4 beta functions with: 
                l(1) =   0
                l(2) =   0
                l(3) =   1
                l(4) =   1
     Q(r) pseudized with 0 coefficients 


     PseudoPot. # 3 for H  read from file:
     /users/bkreitz1/quantum-espresso/potentials/H.pbe-kjpaw_psl.1.0.0.UPF
     MD5 check sum: ae98473e6dc62675f0d0baffdab24f65
     Pseudo is Projector augmented-wave, Zval =  1.0
     Generated using 'atomic' code by A. Dal Corso  v.6.7MaX
     Shape of augmentation charge: PSQ
     Using radial grid of  929 points,  2 beta functions with: 
                l(1) =   0
                l(2) =   0
     Q(r) pseudized with 0 coefficients 


     atomic species   valence    mass     pseudopotential
        Pt            10.00   195.08400     Pt( 1.00)
        O              6.00    15.99900     O ( 1.00)
        H              1.00     1.00800     H ( 1.00)

     No symmetry found



   Cartesian axes

     site n.     atom                  positions (alat units)
         1           Pt  tau(   1) = (   0.0000000   0.0000000   1.0017346  )
         2           Pt  tau(   2) = (   0.3333333   0.0000000   1.0017346  )
         3           Pt  tau(   3) = (   0.6666667   0.0000000   1.0017346  )
         4           Pt  tau(   4) = (   0.1666667   0.2886751   1.0017346  )
         5           Pt  tau(   5) = (   0.5000000   0.2886751   1.0017346  )
         6           Pt  tau(   6) = (   0.8333333   0.2886751   1.0017346  )
         7           Pt  tau(   7) = (   0.3333333   0.5773503   1.0017346  )
         8           Pt  tau(   8) = (   0.6666667   0.5773503   1.0017346  )
         9           Pt  tau(   9) = (   1.0000000   0.5773503   1.0017346  )
        10           Pt  tau(  10) = (   0.1666667   0.0962250   1.2739001  )
        11           Pt  tau(  11) = (   0.5000000   0.0962250   1.2739001  )
        12           Pt  tau(  12) = (   0.8333333   0.0962250   1.2739001  )
        13           Pt  tau(  13) = (   0.3333333   0.3849002   1.2739001  )
        14           Pt  tau(  14) = (   0.6666667   0.3849002   1.2739001  )
        15           Pt  tau(  15) = (   1.0000000   0.3849002   1.2739001  )
        16           Pt  tau(  16) = (   0.5000000   0.6735753   1.2739001  )
        17           Pt  tau(  17) = (   0.8333333   0.6735753   1.2739001  )
        18           Pt  tau(  18) = (   1.1666667   0.6735753   1.2739001  )
        19           Pt  tau(  19) = (  -0.0001217   0.1924090   1.5426246  )
        20           Pt  tau(  20) = (   0.3333705   0.1921153   1.5433414  )
        21           Pt  tau(  21) = (   0.6667315   0.1924789   1.5426580  )
        22           Pt  tau(  22) = (   0.1668487   0.4812398   1.5419619  )
        23           Pt  tau(  23) = (   0.4998388   0.4812970   1.5419468  )
        24           Pt  tau(  24) = (   0.8332597   0.4810471   1.5427035  )
        25           Pt  tau(  25) = (   0.3332569   0.7695191   1.5418399  )
        26           Pt  tau(  26) = (   0.6670510   0.7701590   1.5437428  )
        27           Pt  tau(  27) = (   0.9995570   0.7701007   1.5433663  )
        28           Pt  tau(  28) = (  -0.0010908   0.0002593   1.8167940  )
        29           Pt  tau(  29) = (   0.3340222  -0.0002459   1.8185258  )
        30           Pt  tau(  30) = (   0.6681505   0.0000891   1.8162629  )
        31           Pt  tau(  31) = (   0.1659672   0.2896343   1.8159283  )
        32           Pt  tau(  32) = (   0.5007091   0.2896965   1.8162904  )
        33           Pt  tau(  33) = (   0.8333642   0.2885548   1.8173733  )
        34           Pt  tau(  34) = (   0.3335084   0.5775479   1.8169074  )
        35           Pt  tau(  35) = (   0.6660878   0.5764216   1.8162065  )
        36           Pt  tau(  36) = (   1.0005518   0.5763150   1.8159384  )
        37           O   tau(  37) = (   0.1877937   0.0245772   2.2029163  )
        38           O   tau(  38) = (   0.3424603   0.0051360   2.1249083  )
        39           H   tau(  39) = (   0.3883296   0.1091049   2.1429255  )
        40           H   tau(  40) = (   0.1183399   0.0265708   2.1116239  )

     number of k points=    13  Marzari-Vanderbilt smearing, width (Ry)=  0.0200
                       cart. coord. in units 2pi/alat
        k(    1) = (   0.0000000   0.0000000   0.0000000), wk =   0.0800000
        k(    2) = (   0.0000000   0.2309401   0.0000000), wk =   0.1600000
        k(    3) = (   0.0000000   0.4618802   0.0000000), wk =   0.1600000
        k(    4) = (   0.2000000  -0.1154701   0.0000000), wk =   0.1600000
        k(    5) = (   0.2000000   0.1154701   0.0000000), wk =   0.1600000
        k(    6) = (   0.2000000   0.3464102   0.0000000), wk =   0.1600000
        k(    7) = (   0.2000000  -0.5773503   0.0000000), wk =   0.1600000
        k(    8) = (   0.2000000  -0.3464102   0.0000000), wk =   0.1600000
        k(    9) = (   0.4000000  -0.2309401   0.0000000), wk =   0.1600000
        k(   10) = (   0.4000000  -0.0000000   0.0000000), wk =   0.1600000
        k(   11) = (   0.4000000   0.2309401   0.0000000), wk =   0.1600000
        k(   12) = (   0.4000000  -0.6928203   0.0000000), wk =   0.1600000
        k(   13) = (   0.4000000  -0.4618802   0.0000000), wk =   0.1600000

     Dense  grid:   718867 G-vectors     FFT dimensions: (  80,  80, 256)

     Estimated max dynamical RAM per process >       8.67 GB

     Initial potential from superposition of free atoms

     starting charge  373.99387, renormalised to  374.00000

     negative rho (up, down):  1.240E-02 0.000E+00


     %%%%%%%%%%%%%%%%%%%%%%%%%%%%%%%%%%%%%%%%%%%%%%%%%%%%%%%%%%%%%%%%%%%%%%%%
     %                                                                      %
     % You are using vdW-DF, which was implemented by the Thonhauser group. %
     % Please cite the following two papers that made this development      %
     % possible and the two reviews that describe the various versions:     %
     %                                                                      %
     %   T. Thonhauser et al., PRL 115, 136402 (2015).                      %
     %   T. Thonhauser et al., PRB 76, 125112 (2007).                       %
     %   K. Berland et al., Rep. Prog. Phys. 78, 066501 (2015).             %
     %   D.C. Langreth et al., J. Phys.: Condens. Matter 21, 084203 (2009). %
     %                                                                      %
     %                                                                      %
     % If you are calculating the stress with vdW-DF, please also cite:     %
     %                                                                      %
     %   R. Sabatini et al., J. Phys.: Condens. Matter 24, 424209 (2012).   %
     %                                                                      %
     %%%%%%%%%%%%%%%%%%%%%%%%%%%%%%%%%%%%%%%%%%%%%%%%%%%%%%%%%%%%%%%%%%%%%%%%


     Starting wfcs are  334 randomized atomic wfcs
     Checking if some PAW data can be deallocated... 

     total cpu time spent up to now is      334.1 secs

     Self-consistent Calculation

     iteration #  1     ecut=    60.00 Ry     beta= 0.70
     Davidson diagonalization with overlap
     ethr =  1.00E-02,  avg # of iterations =  2.0

     Threshold (ethr) on eigenvalues was too large:
     Diagonalizing with lowered threshold

     Davidson diagonalization with overlap
     ethr =  5.04E-04,  avg # of iterations =  4.0

     negative rho (up, down):  1.518E-02 0.000E+00

     total cpu time spent up to now is     1702.7 secs

     total energy              =  -27841.27053932 Ry
     estimated scf accuracy    <       2.06317586 Ry

     iteration #  2     ecut=    60.00 Ry     beta= 0.70
     Davidson diagonalization with overlap
     ethr =  5.52E-04,  avg # of iterations =  2.0

     negative rho (up, down):  1.456E-02 0.000E+00

     total cpu time spent up to now is     2304.6 secs

     total energy              =  -27841.41007625 Ry
     estimated scf accuracy    <       0.89689636 Ry

     iteration #  3     ecut=    60.00 Ry     beta= 0.70
     Davidson diagonalization with overlap
     ethr =  2.40E-04,  avg # of iterations =  2.0

     negative rho (up, down):  1.309E-02 0.000E+00

     total cpu time spent up to now is     2899.3 secs

     total energy              =  -27841.46642890 Ry
     estimated scf accuracy    <       0.15272640 Ry

     iteration #  4     ecut=    60.00 Ry     beta= 0.70
     Davidson diagonalization with overlap
     c_bands:  1 eigenvalues not converged
     c_bands:  1 eigenvalues not converged
     c_bands:  2 eigenvalues not converged
     ethr =  4.08E-05,  avg # of iterations = 13.2

     negative rho (up, down):  1.208E-02 0.000E+00

     total cpu time spent up to now is     3868.6 secs

     total energy              =  -27841.51440470 Ry
     estimated scf accuracy    <       0.06220949 Ry

     iteration #  5     ecut=    60.00 Ry     beta= 0.70
     Davidson diagonalization with overlap
     ethr =  1.66E-05,  avg # of iterations =  6.2

     negative rho (up, down):  1.148E-02 0.000E+00

     total cpu time spent up to now is     4531.8 secs

     total energy              =  -27841.51817133 Ry
     estimated scf accuracy    <       0.01979628 Ry

     iteration #  6     ecut=    60.00 Ry     beta= 0.70
     Davidson diagonalization with overlap
     c_bands:  1 eigenvalues not converged
     c_bands:  1 eigenvalues not converged
     ethr =  5.29E-06,  avg # of iterations =  9.7

     negative rho (up, down):  1.161E-02 0.000E+00

     total cpu time spent up to now is     5283.9 secs

     total energy              =  -27841.52061855 Ry
     estimated scf accuracy    <       0.01128289 Ry

     iteration #  7     ecut=    60.00 Ry     beta= 0.70
     Davidson diagonalization with overlap
     c_bands:  1 eigenvalues not converged
     c_bands:  1 eigenvalues not converged
     c_bands:  1 eigenvalues not converged
     ethr =  3.02E-06,  avg # of iterations =  7.3

     negative rho (up, down):  1.201E-02 0.000E+00

     total cpu time spent up to now is     5942.7 secs

     total energy              =  -27841.52099316 Ry
     estimated scf accuracy    <       0.00428872 Ry

     iteration #  8     ecut=    60.00 Ry     beta= 0.70
     Davidson diagonalization with overlap
     c_bands:  1 eigenvalues not converged
     ethr =  1.15E-06,  avg # of iterations =  7.5

     negative rho (up, down):  1.286E-02 0.000E+00

     total cpu time spent up to now is     6626.3 secs

     total energy              =  -27841.52137387 Ry
     estimated scf accuracy    <       0.00296282 Ry

     iteration #  9     ecut=    60.00 Ry     beta= 0.70
     Davidson diagonalization with overlap
     c_bands:  1 eigenvalues not converged
     c_bands:  1 eigenvalues not converged
     ethr =  7.92E-07,  avg # of iterations =  4.8

     negative rho (up, down):  1.435E-02 0.000E+00

     total cpu time spent up to now is     7233.1 secs

     total energy              =  -27841.52140314 Ry
     estimated scf accuracy    <       0.00140454 Ry

     iteration # 10     ecut=    60.00 Ry     beta= 0.70
     Davidson diagonalization with overlap
     c_bands:  1 eigenvalues not converged
     c_bands:  1 eigenvalues not converged
     ethr =  3.76E-07,  avg # of iterations =  7.3

     negative rho (up, down):  1.495E-02 0.000E+00

     total cpu time spent up to now is     7888.4 secs

     total energy              =  -27841.52151593 Ry
     estimated scf accuracy    <       0.00033710 Ry

     iteration # 11     ecut=    60.00 Ry     beta= 0.70
     Davidson diagonalization with overlap
     c_bands:  1 eigenvalues not converged
     c_bands:  1 eigenvalues not converged
     ethr =  9.01E-08,  avg # of iterations =  6.6

     negative rho (up, down):  1.506E-02 0.000E+00

     total cpu time spent up to now is     8739.7 secs

     total energy              =  -27841.52162312 Ry
     estimated scf accuracy    <       0.00011757 Ry

     iteration # 12     ecut=    60.00 Ry     beta= 0.70
     Davidson diagonalization with overlap
     ethr =  3.14E-08,  avg # of iterations =  2.0

     negative rho (up, down):  1.493E-02 0.000E+00

     total cpu time spent up to now is     9336.4 secs

     total energy              =  -27841.52163261 Ry
     estimated scf accuracy    <       0.00003887 Ry

     iteration # 13     ecut=    60.00 Ry     beta= 0.70
     Davidson diagonalization with overlap
     ethr =  1.04E-08,  avg # of iterations =  2.3

     negative rho (up, down):  1.480E-02 0.000E+00

     total cpu time spent up to now is     9973.6 secs

     total energy              =  -27841.52163611 Ry
     estimated scf accuracy    <       0.00001364 Ry

     iteration # 14     ecut=    60.00 Ry     beta= 0.70
     Davidson diagonalization with overlap
     ethr =  3.65E-09,  avg # of iterations =  3.8

     negative rho (up, down):  1.471E-02 0.000E+00

     total cpu time spent up to now is    10675.1 secs

     total energy              =  -27841.52163792 Ry
     estimated scf accuracy    <       0.00000773 Ry

     iteration # 15     ecut=    60.00 Ry     beta= 0.70
     Davidson diagonalization with overlap
     ethr =  2.07E-09,  avg # of iterations =  2.0

     negative rho (up, down):  1.447E-02 0.000E+00

     total cpu time spent up to now is    11279.0 secs

     total energy              =  -27841.52163858 Ry
     estimated scf accuracy    <       0.00000346 Ry

     iteration # 16     ecut=    60.00 Ry     beta= 0.70
     Davidson diagonalization with overlap
     ethr =  9.24E-10,  avg # of iterations =  3.5

     negative rho (up, down):  1.412E-02 0.000E+00

     total cpu time spent up to now is    11978.7 secs

     total energy              =  -27841.52163914 Ry
     estimated scf accuracy    <       0.00000350 Ry

     iteration # 17     ecut=    60.00 Ry     beta= 0.70
     Davidson diagonalization with overlap
     ethr =  9.24E-10,  avg # of iterations =  2.0

     negative rho (up, down):  1.390E-02 0.000E+00

     total cpu time spent up to now is    12565.6 secs

     total energy              =  -27841.52163941 Ry
     estimated scf accuracy    <       0.00000175 Ry

     iteration # 18     ecut=    60.00 Ry     beta= 0.70
     Davidson diagonalization with overlap
     ethr =  4.67E-10,  avg # of iterations =  2.0

     negative rho (up, down):  1.338E-02 0.000E+00

     total cpu time spent up to now is    13135.7 secs

     End of self-consistent calculation

          k = 0.0000 0.0000 0.0000 ( 89803 PWs)   bands (ev):

   -21.5913 -16.3209  -7.2254  -6.8692  -5.9355  -5.6247  -4.8333  -4.8025
    -4.8018  -4.8010  -4.7987  -4.7927  -4.7916  -4.7818  -4.2476  -4.2415
    -4.2411  -4.2394  -4.2392  -4.2369  -3.8577  -3.7729  -3.7722  -3.7694
    -3.7665  -3.7631  -3.7614  -3.5575  -3.5516  -3.5510  -3.5506  -3.5475
    -3.5452  -3.3229  -3.3221  -3.3174  -3.3157  -3.3141  -3.3088  -3.3078
    -3.3058  -3.3041  -3.3037  -3.2875  -3.2789  -2.7064  -2.7058  -2.6797
    -2.6771  -2.6343  -2.6237  -2.6201  -2.6192  -2.6180  -2.6176  -2.4827
    -2.4789  -2.3970  -2.3796  -1.8839  -1.8776  -1.8740  -1.8718  -1.8715
    -1.8697  -1.8081  -1.7679  -1.7141  -1.7139  -1.6837  -1.6835  -1.6785
    -1.6761  -1.6560  -1.6520  -1.6516  -1.6485  -1.6479  -1.6453  -1.6122
    -1.6118  -1.5425  -1.4608  -1.4602  -1.4560  -1.4542  -1.4524  -1.3219
    -1.3070  -1.2995  -1.2988  -1.2979  -1.2969  -1.2913  -1.2075  -1.2073
    -1.1127  -1.1124  -1.0588  -1.0501  -1.0394  -1.0387  -1.0062  -0.9978
    -0.9936  -0.9922  -0.8436  -0.8396  -0.8347  -0.8306  -0.8292  -0.8247
    -0.7337  -0.3550  -0.3473  -0.3391  -0.3338  -0.3332  -0.3310  -0.3096
    -0.2822  -0.2703  -0.2656  -0.2606  -0.2601  -0.1991  -0.1840  -0.1782
    -0.0333  -0.0275  -0.0197  -0.0175  -0.0073   0.0310   0.1162   0.1178
     0.1338   0.1346   0.1422   0.1424   0.3858   0.3892   0.3950   0.3962
     0.3998   0.4018   0.4731   0.4748   0.6486   0.6552   0.6559   0.6597
     0.6646   0.6856   0.8222   0.8233   0.8317   0.8324   0.8327   0.8388
     0.8552   0.8701   0.8721   0.8761   0.8769   0.9387   1.0006   1.0130
     1.0167   1.0179   1.0198   1.0277   1.0327   1.0438   1.1086   1.1092
     1.1296   1.1314   1.1319   1.1358   1.1443   1.1446   1.2253   1.2260
     1.2364   1.2404   1.2418   1.2439   1.3294   1.3396   1.3436   1.3451
     1.3527   1.3530   1.4817   1.5601   1.5619   1.6619   1.6639   1.6737
     1.6738   1.6752   1.6806   2.4797   2.5128   2.5539   2.5618   2.5651
     2.5706   2.7337   4.6096   4.8513   4.8792   4.8893   4.9045   4.9360
     5.2569   6.2032   6.4268   6.4313   6.4815   6.4826   6.4906   6.4907

          k = 0.0000 0.2309 0.0000 ( 89814 PWs)   bands (ev):

   -21.5913 -16.3209  -7.0803  -6.8670  -5.8100  -5.6080  -5.3096  -4.9150
    -4.9125  -4.6857  -4.6518  -4.6068  -4.5638  -4.5626  -4.3555  -4.3355
    -4.1817  -4.1780  -4.1620  -4.1596  -3.8847  -3.8511  -3.7480  -3.7466
    -3.7182  -3.7131  -3.6519  -3.6487  -3.5853  -3.5815  -3.5793  -3.5744
    -3.4968  -3.4709  -3.4699  -3.3544  -3.3500  -3.3469  -3.2944  -3.2923
    -3.1329  -3.1263  -3.1028  -3.0987  -3.0701  -2.8332  -2.8309  -2.7911
    -2.7468  -2.7449  -2.7064  -2.7018  -2.5302  -2.5231  -2.4610  -2.4529
    -2.4111  -2.3863  -2.3776  -2.1732  -2.0862  -2.0732  -1.9949  -1.9915
    -1.9565  -1.9173  -1.8802  -1.8740  -1.8537  -1.8388  -1.8348  -1.7840
    -1.7264  -1.7070  -1.6878  -1.6813  -1.6219  -1.6088  -1.5871  -1.5755
    -1.5325  -1.5203  -1.4773  -1.4327  -1.4161  -1.3998  -1.3979  -1.3627
    -1.3067  -1.3013  -1.2942  -1.2848  -1.2742  -1.2178  -1.2103  -1.1798
    -1.1750  -1.1137  -1.1118  -1.1047  -1.0679  -1.0636  -1.0195  -1.0179
    -1.0096  -0.9032  -0.8465  -0.8398  -0.8335  -0.8277  -0.8068  -0.8027
    -0.7960  -0.7738  -0.7415  -0.7303  -0.7160  -0.7112  -0.5035  -0.4236
    -0.3692  -0.3361  -0.3208  -0.3064  -0.3017  -0.2886  -0.2783  -0.2082
    -0.1185  -0.1085  -0.0967  -0.0005   0.0385   0.0519   0.0626   0.0655
     0.1550   0.1613   0.1727   0.1807   0.2575   0.2685   0.2706   0.2979
     0.3005   0.4866   0.4993   0.5228   0.5234   0.5274   0.5508   0.5610
     0.6383   0.6694   0.6720   0.6992   0.7121   0.7644   0.7693   0.7737
     0.7823   0.8819   0.8934   0.9157   0.9377   1.0127   1.0565   1.0606
     1.0711   1.0720   1.0877   1.1289   1.1462   1.1991   1.2041   1.2597
     1.2669   1.2697   1.3139   1.3184   1.3220   1.3263   1.3280   1.3448
     1.3988   1.4097   1.5553   1.5577   1.5677   1.5866   1.5979   1.6028
     1.6333   1.6746   1.6784   1.6894   1.7893   1.7925   1.8139   1.9718
     1.9760   1.9791   2.0053   2.0696   2.4141   2.4814   3.1244   3.1523
     3.2084   3.3202   4.1608   4.4836   4.6491   4.9795   5.2969   5.3004
     5.4511   5.5231   5.7351   6.2380   6.2744   6.3001   6.5323   6.6631

          k = 0.0000 0.4619 0.0000 ( 89818 PWs)   bands (ev):

   -21.5913 -16.3209  -6.8754  -6.6490  -6.0200  -5.6644  -5.3395  -4.9490
    -4.9461  -4.7990  -4.5808  -4.4269  -4.2979  -4.2623  -4.2228  -4.2216
    -4.0462  -4.0399  -4.0073  -4.0012  -3.9973  -3.8860  -3.8528  -3.8398
    -3.8269  -3.7894  -3.7842  -3.7295  -3.6979  -3.6508  -3.6493  -3.6208
    -3.3788  -3.3767  -3.3660  -3.3627  -3.3605  -3.3565  -3.1362  -3.1310
    -3.0788  -3.0773  -3.0677  -3.0619  -2.8833  -2.7832  -2.7812  -2.7709
    -2.7668  -2.7074  -2.7043  -2.6526  -2.6418  -2.6345  -2.5625  -2.5603
    -2.4316  -2.4270  -2.3816  -2.3766  -2.2800  -2.2453  -2.2020  -2.1998
    -2.1977  -2.0567  -1.9852  -1.9764  -1.9626  -1.9564  -1.8824  -1.8700
    -1.8473  -1.7519  -1.7311  -1.7175  -1.7120  -1.6482  -1.5929  -1.5884
    -1.5853  -1.5827  -1.5323  -1.5060  -1.4919  -1.4823  -1.4726  -1.4617
    -1.4591  -1.4514  -1.4241  -1.3820  -1.3310  -1.3174  -1.3044  -1.3031
    -1.2716  -1.2671  -1.2094  -1.1569  -1.0968  -1.0635  -1.0550  -1.0230
    -1.0124  -0.9883  -0.9797  -0.9525  -0.8474  -0.8437  -0.8215  -0.7724
    -0.7626  -0.7210  -0.5924  -0.5844  -0.5522  -0.4975  -0.4300  -0.4162
    -0.3986  -0.3875  -0.3766  -0.3743  -0.3635  -0.2930  -0.2836  -0.2588
    -0.2511  -0.2463  -0.2253  -0.2141  -0.2051  -0.1668  -0.1498  -0.0914
    -0.0381  -0.0061  -0.0021   0.0643   0.1347   0.1590   0.1603   0.2951
     0.2969   0.3620   0.4070   0.4619   0.4689   0.4912   0.5121   0.5503
     0.5539   0.6060   0.6161   0.6612   0.6664   0.7178   0.7676   0.7826
     0.8213   0.8250   0.8383   0.8422   0.9183   1.0125   1.0449   1.0927
     1.1095   1.1191   1.1228   1.2066   1.2255   1.2287   1.3179   1.3262
     1.3290   1.3648   1.4066   1.4239   1.4258   1.4343   1.5541   1.5635
     1.5761   1.5841   1.5881   1.5950   1.6114   1.6329   1.7841   1.8248
     1.8288   1.8320   1.8459   2.0209   2.0545   2.4222   2.4737   2.5050
     2.7530   2.8730   2.8741   3.2670   3.2746   3.4665   3.6090   4.0842
     4.0854   4.1052   4.2363   4.2907   4.3744   4.4304   4.5508   4.7348
     4.7571   5.0334   5.3770   5.3944   5.9099   5.9485   6.3737   6.4501

          k = 0.2000-0.1155 0.0000 ( 89814 PWs)   bands (ev):

   -21.5913 -16.3209  -7.0801  -6.8669  -5.8088  -5.6082  -5.3119  -4.9139
    -4.9122  -4.6861  -4.6521  -4.6079  -4.5635  -4.5623  -4.3583  -4.3358
    -4.1814  -4.1781  -4.1609  -4.1579  -3.8849  -3.8526  -3.7477  -3.7469
    -3.7181  -3.7132  -3.6512  -3.6496  -3.5835  -3.5809  -3.5787  -3.5747
    -3.4967  -3.4707  -3.4703  -3.3530  -3.3505  -3.3466  -3.2939  -3.2929
    -3.1332  -3.1260  -3.1031  -3.0987  -3.0701  -2.8333  -2.8311  -2.7920
    -2.7475  -2.7444  -2.7056  -2.7017  -2.5288  -2.5232  -2.4598  -2.4533
    -2.4126  -2.3868  -2.3771  -2.1752  -2.0833  -2.0733  -1.9953  -1.9918
    -1.9554  -1.9178  -1.8786  -1.8746  -1.8532  -1.8384  -1.8339  -1.7841
    -1.7228  -1.7077  -1.6876  -1.6812  -1.6276  -1.6089  -1.5870  -1.5751
    -1.5321  -1.5198  -1.4833  -1.4350  -1.4159  -1.3992  -1.3980  -1.3660
    -1.3064  -1.3021  -1.2936  -1.2846  -1.2761  -1.2139  -1.2120  -1.1816
    -1.1751  -1.1132  -1.1124  -1.0967  -1.0664  -1.0635  -1.0198  -1.0177
    -1.0097  -0.9024  -0.8489  -0.8377  -0.8310  -0.8291  -0.8105  -0.8010
    -0.7960  -0.7780  -0.7414  -0.7331  -0.7171  -0.7093  -0.4962  -0.4235
    -0.3694  -0.3286  -0.3208  -0.3061  -0.3028  -0.2799  -0.2779  -0.2178
    -0.1182  -0.1139  -0.0964   0.0073   0.0392   0.0498   0.0569   0.0639
     0.1567   0.1595   0.1715   0.1779   0.2573   0.2689   0.2711   0.2970
     0.3008   0.4879   0.4969   0.5201   0.5225   0.5281   0.5544   0.5707
     0.6402   0.6648   0.6712   0.6995   0.7161   0.7631   0.7691   0.7741
     0.7801   0.8821   0.8905   0.9154   0.9350   1.0163   1.0562   1.0625
     1.0668   1.0721   1.0883   1.1288   1.1439   1.1978   1.2041   1.2601
     1.2668   1.2701   1.3146   1.3190   1.3219   1.3260   1.3288   1.3464
     1.3986   1.4108   1.5563   1.5587   1.5679   1.5867   1.5977   1.6021
     1.6336   1.6739   1.6765   1.6895   1.7898   1.7909   1.8140   1.9695
     1.9771   1.9789   1.9973   2.0813   2.4190   2.4709   3.1322   3.1542
     3.1987   3.3167   4.1344   4.5604   4.6348   4.9462   5.2976   5.3003
     5.4240   5.5205   5.7621   6.2426   6.2724   6.2878   6.5676   6.6637

          k = 0.2000 0.1155 0.0000 ( 89814 PWs)   bands (ev):

   -21.5913 -16.3209  -7.0800  -6.8669  -5.8097  -5.6079  -5.3112  -4.9141
    -4.9125  -4.6858  -4.6519  -4.6069  -4.5637  -4.5627  -4.3573  -4.3357
    -4.1812  -4.1782  -4.1617  -4.1584  -3.8842  -3.8522  -3.7476  -3.7465
    -3.7197  -3.7147  -3.6506  -3.6484  -3.5834  -3.5817  -3.5792  -3.5743
    -3.4972  -3.4712  -3.4696  -3.3529  -3.3497  -3.3472  -3.2944  -3.2926
    -3.1329  -3.1261  -3.1033  -3.0982  -3.0704  -2.8339  -2.8312  -2.7955
    -2.7462  -2.7457  -2.7036  -2.7010  -2.5280  -2.5224  -2.4596  -2.4529
    -2.4140  -2.3853  -2.3775  -2.1760  -2.0813  -2.0733  -1.9971  -1.9914
    -1.9540  -1.9179  -1.8796  -1.8737  -1.8532  -1.8401  -1.8338  -1.7841
    -1.7164  -1.7061  -1.6897  -1.6816  -1.6325  -1.6088  -1.5877  -1.5710
    -1.5324  -1.5197  -1.4903  -1.4372  -1.4162  -1.3988  -1.3971  -1.3706
    -1.3060  -1.3029  -1.2941  -1.2843  -1.2738  -1.2164  -1.2094  -1.1840
    -1.1753  -1.1131  -1.1120  -1.0915  -1.0685  -1.0571  -1.0191  -1.0174
    -1.0095  -0.9011  -0.8497  -0.8352  -0.8319  -0.8285  -0.8136  -0.8015
    -0.7958  -0.7717  -0.7409  -0.7353  -0.7159  -0.7109  -0.4963  -0.4240
    -0.3717  -0.3274  -0.3208  -0.3114  -0.3029  -0.2846  -0.2786  -0.2105
    -0.1178  -0.1151  -0.0928   0.0019   0.0397   0.0519   0.0590   0.0641
     0.1569   0.1593   0.1712   0.1804   0.2573   0.2686   0.2713   0.2967
     0.3006   0.4867   0.4969   0.5205   0.5228   0.5272   0.5509   0.5685
     0.6390   0.6669   0.6718   0.6995   0.7133   0.7639   0.7695   0.7743
     0.7797   0.8846   0.8907   0.9152   0.9358   1.0137   1.0570   1.0630
     1.0683   1.0729   1.0890   1.1297   1.1443   1.1980   1.2042   1.2589
     1.2661   1.2700   1.3148   1.3187   1.3218   1.3263   1.3278   1.3468
     1.3986   1.4100   1.5542   1.5585   1.5689   1.5866   1.5982   1.6023
     1.6340   1.6746   1.6774   1.6895   1.7894   1.7913   1.8141   1.9704
     1.9754   1.9789   1.9933   2.0859   2.4204   2.4708   3.1326   3.1551
     3.1942   3.3183   4.1448   4.5582   4.6143   4.9586   5.2972   5.2996
     5.4234   5.5222   5.7611   6.2400   6.2737   6.3065   6.5626   6.6634

          k = 0.2000 0.3464 0.0000 ( 89788 PWs)   bands (ev):

   -21.5913 -16.3209  -6.8804  -6.7808  -5.6977  -5.5639  -5.5472  -5.4499
    -4.4864  -4.4828  -4.4584  -4.4504  -4.4135  -4.4090  -4.4056  -4.3912
    -4.2970  -4.2926  -3.9109  -3.9083  -3.9030  -3.8998  -3.8616  -3.8302
    -3.8096  -3.6727  -3.6485  -3.6438  -3.6233  -3.6210  -3.5528  -3.5000
    -3.4943  -3.4613  -3.4599  -3.4144  -3.3702  -3.3664  -3.3286  -3.3233
    -3.2481  -2.9788  -2.8821  -2.8764  -2.8645  -2.8430  -2.8366  -2.8267
    -2.8231  -2.7670  -2.7511  -2.5933  -2.5897  -2.5820  -2.5029  -2.4755
    -2.4266  -2.4221  -2.4051  -2.3258  -2.3207  -2.1502  -2.1491  -2.1320
    -2.0533  -2.0458  -2.0230  -2.0125  -2.0042  -1.9381  -1.9327  -1.7996
    -1.7648  -1.7593  -1.7551  -1.6974  -1.6910  -1.6477  -1.6285  -1.6198
    -1.6142  -1.5587  -1.4803  -1.4587  -1.4494  -1.4384  -1.4362  -1.4314
    -1.4103  -1.3872  -1.3663  -1.3015  -1.2961  -1.2763  -1.2427  -1.2042
    -1.2012  -1.1446  -1.1143  -1.0819  -1.0794  -1.0675  -1.0300  -1.0229
    -1.0143  -1.0024  -0.9911  -0.9791  -0.9727  -0.9435  -0.9103  -0.9002
    -0.8032  -0.7662  -0.7571  -0.6910  -0.6838  -0.6783  -0.6541  -0.4930
    -0.4882  -0.3678  -0.3336  -0.3161  -0.2977  -0.2911  -0.2766  -0.2639
    -0.2267  -0.2110  -0.1928  -0.1824  -0.1540  -0.1183  -0.0915   0.0199
     0.0950   0.1110   0.1422   0.1507   0.1670   0.1984   0.2199   0.3371
     0.3476   0.3542   0.4019   0.4061   0.4783   0.5309   0.5548   0.5602
     0.5673   0.6367   0.6424   0.6476   0.6583   0.6705   0.6833   0.6883
     0.7009   0.7133   0.8321   0.8974   0.9077   1.0362   1.0396   1.0768
     1.2066   1.2093   1.2126   1.2362   1.3202   1.3405   1.3573   1.3617
     1.3741   1.4000   1.4069   1.4258   1.4301   1.4471   1.4885   1.4923
     1.5166   1.5850   1.6059   1.6142   1.6419   1.6453   1.6899   1.8248
     1.8736   1.8774   1.9508   1.9559   1.9627   2.0036   2.1026   2.1158
     2.5584   2.6342   2.6439   3.1708   3.1771   3.1952   3.2388   3.8590
     3.8980   3.9821   4.0965   4.1419   4.1623   4.7762   4.8821   5.2859
     5.3542   5.4305   5.5328   5.9812   6.0155   6.0960   6.1197   6.1325

          k = 0.2000-0.5774 0.0000 ( 89818 PWs)   bands (ev):

   -21.5913 -16.3209  -6.8727  -6.2564  -6.2534  -5.6834  -5.6154  -4.9969
    -4.9756  -4.4817  -4.4782  -4.3462  -4.3120  -4.2045  -4.2013  -4.0972
    -4.0931  -3.9774  -3.9706  -3.9668  -3.9318  -3.9283  -3.9159  -3.8976
    -3.8290  -3.7747  -3.7611  -3.7591  -3.7194  -3.7158  -3.6207  -3.5300
    -3.5048  -3.4432  -3.3474  -3.3465  -3.3332  -3.3321  -3.3128  -3.2066
    -3.2033  -3.1069  -3.1052  -2.9321  -2.9212  -2.8654  -2.7700  -2.7658
    -2.7148  -2.7117  -2.6037  -2.5559  -2.5106  -2.5052  -2.4855  -2.4413
    -2.4350  -2.4077  -2.3063  -2.3035  -2.2752  -2.2718  -2.2666  -2.2630
    -2.2578  -2.1894  -2.1854  -2.0641  -2.0386  -1.9885  -1.9858  -1.8711
    -1.8397  -1.8292  -1.8274  -1.7834  -1.7447  -1.7378  -1.6600  -1.6495
    -1.6342  -1.6190  -1.6045  -1.5660  -1.5447  -1.5054  -1.4967  -1.4605
    -1.4101  -1.4034  -1.3883  -1.3457  -1.2750  -1.2253  -1.2233  -1.1872
    -1.1809  -1.1370  -1.1285  -1.1277  -1.1205  -1.0908  -1.0862  -1.0443
    -1.0386  -1.0049  -0.9936  -0.9858  -0.9840  -0.9763  -0.9540  -0.9405
    -0.8817  -0.8726  -0.8621  -0.6627  -0.6448  -0.5622  -0.5559  -0.4506
    -0.4447  -0.4382  -0.4077  -0.3643  -0.3577  -0.3443  -0.3345  -0.3166
    -0.2529  -0.2333  -0.2049  -0.1928  -0.1353  -0.1166  -0.0939  -0.0538
    -0.0437   0.0270   0.1394   0.1985   0.2041   0.2213   0.2297   0.3138
     0.3241   0.3272   0.3475   0.3632   0.3768   0.4033   0.4143   0.5195
     0.5257   0.5441   0.5899   0.5961   0.6128   0.6186   0.6398   0.6565
     0.7965   0.8476   0.8862   0.9534   0.9609   1.0427   1.0456   1.1268
     1.1718   1.1786   1.1920   1.2844   1.2984   1.3541   1.3854   1.3975
     1.4078   1.4198   1.4478   1.4619   1.4963   1.5645   1.5659   1.5899
     1.6109   1.6174   1.6204   1.6600   1.6872   1.8202   1.8282   1.8297
     1.8327   1.8442   1.9055   1.9892   2.0225   2.1564   2.9798   2.9816
     3.1980   3.2193   3.2719   3.3793   3.3814   3.3947   3.8141   3.9874
     3.9946   4.4423   4.4492   4.4750   4.5791   4.5975   4.8040   4.8302
     4.8946   4.9752   5.0515   5.3709   5.4328   5.4819   5.9725   6.0759

          k = 0.2000-0.3464 0.0000 ( 89788 PWs)   bands (ev):

   -21.5913 -16.3209  -6.8809  -6.7802  -5.6960  -5.5643  -5.5467  -5.4520
    -4.4872  -4.4831  -4.4569  -4.4519  -4.4130  -4.4092  -4.4057  -4.3924
    -4.2972  -4.2926  -3.9111  -3.9064  -3.9032  -3.9022  -3.8515  -3.8318
    -3.8155  -3.6724  -3.6496  -3.6431  -3.6234  -3.6213  -3.5529  -3.5005
    -3.4940  -3.4613  -3.4590  -3.4146  -3.3721  -3.3648  -3.3287  -3.3230
    -3.2479  -2.9796  -2.8806  -2.8769  -2.8642  -2.8424  -2.8366  -2.8247
    -2.8221  -2.7667  -2.7511  -2.5973  -2.5888  -2.5838  -2.5027  -2.4751
    -2.4270  -2.4223  -2.4043  -2.3247  -2.3210  -2.1558  -2.1481  -2.1316
    -2.0524  -2.0473  -2.0208  -2.0125  -2.0041  -1.9380  -1.9325  -1.7997
    -1.7650  -1.7590  -1.7543  -1.7017  -1.6888  -1.6393  -1.6273  -1.6199
    -1.6179  -1.5628  -1.4715  -1.4591  -1.4482  -1.4380  -1.4373  -1.4317
    -1.4113  -1.3872  -1.3660  -1.3025  -1.2961  -1.2764  -1.2441  -1.2049
    -1.2005  -1.1457  -1.1177  -1.0829  -1.0792  -1.0681  -1.0284  -1.0226
    -1.0170  -1.0030  -0.9927  -0.9808  -0.9720  -0.9417  -0.9090  -0.9004
    -0.8031  -0.7689  -0.7573  -0.6896  -0.6824  -0.6793  -0.6554  -0.4929
    -0.4893  -0.3634  -0.3335  -0.3182  -0.2970  -0.2881  -0.2653  -0.2626
    -0.2305  -0.2162  -0.1942  -0.1869  -0.1548  -0.1131  -0.0912   0.0203
     0.0959   0.1068   0.1428   0.1503   0.1643   0.1975   0.2199   0.3399
     0.3431   0.3559   0.4020   0.4059   0.4789   0.5327   0.5551   0.5594
     0.5691   0.6390   0.6417   0.6501   0.6581   0.6690   0.6830   0.6896
     0.7004   0.7169   0.8295   0.8972   0.9083   1.0352   1.0381   1.0761
     1.2034   1.2098   1.2133   1.2338   1.3216   1.3404   1.3572   1.3621
     1.3745   1.3997   1.4079   1.4270   1.4304   1.4477   1.4905   1.4918
     1.5153   1.5850   1.6060   1.6153   1.6418   1.6451   1.6904   1.8238
     1.8735   1.8758   1.9464   1.9561   1.9623   2.0063   2.1021   2.1159
     2.5578   2.6357   2.6438   3.1700   3.1782   3.1901   3.2446   3.8568
     3.9070   3.9734   4.0965   4.1395   4.1604   4.7741   4.8926   5.2862
     5.3580   5.4267   5.5323   5.9858   6.0288   6.0813   6.1144   6.1364

          k = 0.4000-0.2309 0.0000 ( 89818 PWs)   bands (ev):

   -21.5913 -16.3209  -6.8741  -6.6494  -6.0189  -5.6636  -5.3431  -4.9476
    -4.9457  -4.8025  -4.5820  -4.4272  -4.2988  -4.2637  -4.2227  -4.2214
    -4.0428  -4.0369  -4.0083  -4.0012  -3.9968  -3.8933  -3.8487  -3.8385
    -3.8295  -3.7871  -3.7860  -3.7302  -3.6946  -3.6505  -3.6495  -3.6205
    -3.3786  -3.3768  -3.3646  -3.3627  -3.3602  -3.3569  -3.1342  -3.1313
    -3.0783  -3.0776  -3.0668  -3.0623  -2.8841  -2.7838  -2.7814  -2.7709
    -2.7659  -2.7074  -2.7041  -2.6532  -2.6400  -2.6348  -2.5624  -2.5605
    -2.4311  -2.4277  -2.3822  -2.3760  -2.2805  -2.2459  -2.2030  -2.2009
    -2.1978  -2.0564  -1.9847  -1.9747  -1.9612  -1.9568  -1.8787  -1.8689
    -1.8467  -1.7507  -1.7313  -1.7167  -1.7125  -1.6566  -1.5932  -1.5889
    -1.5853  -1.5830  -1.5381  -1.5074  -1.4913  -1.4821  -1.4761  -1.4618
    -1.4594  -1.4525  -1.4263  -1.3827  -1.3308  -1.3164  -1.3039  -1.3008
    -1.2694  -1.2655  -1.2061  -1.1568  -1.0963  -1.0629  -1.0548  -1.0217
    -1.0132  -0.9878  -0.9794  -0.9565  -0.8483  -0.8430  -0.8171  -0.7707
    -0.7625  -0.7213  -0.5892  -0.5838  -0.5539  -0.4974  -0.4315  -0.4155
    -0.3982  -0.3819  -0.3768  -0.3741  -0.3653  -0.2976  -0.2834  -0.2645
    -0.2509  -0.2389  -0.2272  -0.2059  -0.1884  -0.1758  -0.1546  -0.1048
    -0.0380  -0.0088   0.0023   0.0645   0.1279   0.1600   0.1611   0.2932
     0.2960   0.3613   0.4144   0.4603   0.4675   0.4922   0.5125   0.5506
     0.5548   0.6091   0.6169   0.6614   0.6657   0.7187   0.7674   0.7797
     0.8213   0.8237   0.8386   0.8399   0.9299   1.0141   1.0354   1.0945
     1.1093   1.1190   1.1225   1.2067   1.2230   1.2288   1.3181   1.3252
     1.3289   1.3616   1.4057   1.4255   1.4284   1.4341   1.5538   1.5628
     1.5758   1.5832   1.5883   1.5952   1.6110   1.6367   1.7840   1.8240
     1.8283   1.8326   1.8446   2.0210   2.0547   2.4263   2.4672   2.5082
     2.7471   2.8724   2.8742   3.2686   3.2723   3.4539   3.6078   4.0797
     4.0865   4.0950   4.2065   4.3389   4.3574   4.4746   4.5503   4.7378
     4.7531   4.9553   5.3869   5.4620   5.9069   5.9523   6.3673   6.4626

          k = 0.4000-0.0000 0.0000 ( 89788 PWs)   bands (ev):

   -21.5913 -16.3209  -6.8791  -6.7816  -5.6946  -5.5638  -5.5476  -5.4537
    -4.4870  -4.4836  -4.4577  -4.4521  -4.4131  -4.4079  -4.4060  -4.3927
    -4.2965  -4.2936  -3.9105  -3.9065  -3.9032  -3.9016  -3.8566  -3.8286
    -3.8144  -3.6726  -3.6487  -3.6438  -3.6228  -3.6226  -3.5527  -3.4993
    -3.4946  -3.4616  -3.4598  -3.4144  -3.3698  -3.3666  -3.3247  -3.3236
    -3.2481  -2.9788  -2.8826  -2.8766  -2.8627  -2.8429  -2.8373  -2.8269
    -2.8237  -2.7668  -2.7520  -2.5918  -2.5901  -2.5816  -2.5033  -2.4754
    -2.4270  -2.4222  -2.4067  -2.3267  -2.3206  -2.1493  -2.1474  -2.1328
    -2.0528  -2.0464  -2.0197  -2.0130  -2.0046  -1.9383  -1.9327  -1.7888
    -1.7677  -1.7589  -1.7569  -1.6953  -1.6913  -1.6506  -1.6288  -1.6211
    -1.6132  -1.5716  -1.4855  -1.4598  -1.4503  -1.4381  -1.4364  -1.4315
    -1.4112  -1.3871  -1.3658  -1.3024  -1.2951  -1.2732  -1.2417  -1.2031
    -1.2017  -1.1463  -1.1150  -1.0817  -1.0782  -1.0680  -1.0287  -1.0215
    -1.0131  -1.0025  -0.9885  -0.9781  -0.9715  -0.9444  -0.9096  -0.8989
    -0.8031  -0.7663  -0.7568  -0.6914  -0.6846  -0.6797  -0.6490  -0.4931
    -0.4880  -0.3597  -0.3339  -0.3239  -0.2967  -0.2867  -0.2682  -0.2609
    -0.2393  -0.2102  -0.2013  -0.1793  -0.1464  -0.1204  -0.0923   0.0193
     0.0993   0.1033   0.1408   0.1502   0.1622   0.2019   0.2199   0.3417
     0.3446   0.3517   0.3971   0.4072   0.4770   0.5392   0.5470   0.5622
     0.5685   0.6364   0.6434   0.6459   0.6579   0.6718   0.6835   0.6887
     0.7000   0.7185   0.8284   0.9017   0.9108   1.0376   1.0385   1.0710
     1.2038   1.2102   1.2130   1.2294   1.3242   1.3411   1.3580   1.3620
     1.3696   1.4007   1.4076   1.4256   1.4309   1.4492   1.4904   1.4938
     1.5159   1.5856   1.6059   1.6134   1.6419   1.6454   1.6901   1.8245
     1.8746   1.8765   1.9540   1.9587   1.9615   1.9959   2.1048   2.1151
     2.5571   2.6336   2.6447   3.1675   3.1804   3.2088   3.2239   3.8472
     3.8938   3.9757   4.0949   4.1425   4.1625   4.7764   4.9386   5.2859
     5.3488   5.3842   5.5288   5.9899   6.0224   6.1109   6.1278   6.1365

          k = 0.4000 0.2309 0.0000 ( 89818 PWs)   bands (ev):

   -21.5913 -16.3209  -6.8738  -6.6498  -6.0197  -5.6645  -5.3412  -4.9478
    -4.9461  -4.8008  -4.5810  -4.4270  -4.2981  -4.2619  -4.2230  -4.2218
    -4.0473  -4.0380  -4.0083  -4.0005  -3.9980  -3.8819  -3.8551  -3.8403
    -3.8285  -3.7888  -3.7819  -3.7301  -3.7002  -3.6504  -3.6494  -3.6218
    -3.3787  -3.3766  -3.3647  -3.3627  -3.3595  -3.3566  -3.1332  -3.1313
    -3.0795  -3.0776  -3.0667  -3.0620  -2.8886  -2.7844  -2.7811  -2.7710
    -2.7658  -2.7053  -2.7039  -2.6532  -2.6396  -2.6347  -2.5612  -2.5601
    -2.4317  -2.4271  -2.3812  -2.3763  -2.2806  -2.2459  -2.2065  -2.1994
    -2.1972  -2.0565  -1.9831  -1.9730  -1.9588  -1.9580  -1.8774  -1.8696
    -1.8452  -1.7476  -1.7321  -1.7181  -1.7088  -1.6629  -1.5949  -1.5872
    -1.5853  -1.5821  -1.5398  -1.5092  -1.4919  -1.4824  -1.4796  -1.4601
    -1.4589  -1.4562  -1.4309  -1.3852  -1.3312  -1.3169  -1.3037  -1.2958
    -1.2711  -1.2612  -1.2052  -1.1570  -1.0957  -1.0638  -1.0508  -1.0227
    -1.0133  -0.9901  -0.9794  -0.9543  -0.8477  -0.8435  -0.8073  -0.7731
    -0.7636  -0.7211  -0.5881  -0.5845  -0.5534  -0.4978  -0.4333  -0.4186
    -0.3987  -0.3843  -0.3766  -0.3746  -0.3706  -0.2895  -0.2818  -0.2674
    -0.2509  -0.2397  -0.2302  -0.2074  -0.2000  -0.1633  -0.1468  -0.1002
    -0.0379  -0.0093   0.0025   0.0649   0.1287   0.1591   0.1604   0.2933
     0.2964   0.3618   0.4102   0.4582   0.4670   0.4915   0.5120   0.5500
     0.5545   0.6052   0.6165   0.6614   0.6665   0.7197   0.7687   0.7793
     0.8229   0.8234   0.8380   0.8394   0.9246   1.0173   1.0388   1.0960
     1.1099   1.1197   1.1227   1.2069   1.2234   1.2289   1.3167   1.3242
     1.3291   1.3636   1.4066   1.4230   1.4267   1.4344   1.5543   1.5630
     1.5769   1.5837   1.5886   1.5952   1.6115   1.6347   1.7843   1.8247
     1.8287   1.8326   1.8457   2.0209   2.0546   2.4285   2.4671   2.5044
     2.7467   2.8725   2.8744   3.2688   3.2718   3.4571   3.6070   4.0817
     4.0868   4.1011   4.2117   4.3413   4.3567   4.4731   4.5232   4.7420
     4.7521   4.9731   5.3898   5.4575   5.9008   5.9504   6.3591   6.4593

          k = 0.4000-0.6928 0.0000 ( 89818 PWs)   bands (ev):

   -21.5913 -16.3209  -6.8719  -6.2554  -6.2546  -5.6870  -5.6114  -4.9971
    -4.9781  -4.4817  -4.4770  -4.3462  -4.3118  -4.2049  -4.2008  -4.0983
    -4.0920  -3.9758  -3.9714  -3.9663  -3.9315  -3.9287  -3.9102  -3.9015
    -3.8367  -3.7733  -3.7609  -3.7586  -3.7190  -3.7155  -3.6211  -3.5308
    -3.5046  -3.4411  -3.3474  -3.3462  -3.3335  -3.3308  -3.3119  -3.2069
    -3.2030  -3.1086  -3.1045  -2.9307  -2.9211  -2.8704  -2.7668  -2.7648
    -2.7163  -2.7105  -2.6025  -2.5560  -2.5103  -2.5050  -2.4849  -2.4427
    -2.4343  -2.4071  -2.3077  -2.3028  -2.2758  -2.2730  -2.2661  -2.2622
    -2.2594  -2.1905  -2.1855  -2.0606  -2.0372  -1.9882  -1.9862  -1.8713
    -1.8503  -1.8285  -1.8252  -1.7809  -1.7407  -1.7383  -1.6566  -1.6421
    -1.6363  -1.6203  -1.5975  -1.5749  -1.5620  -1.5073  -1.4930  -1.4605
    -1.4083  -1.4038  -1.3903  -1.3420  -1.2753  -1.2264  -1.2216  -1.1859
    -1.1816  -1.1378  -1.1337  -1.1267  -1.1146  -1.0920  -1.0873  -1.0442
    -1.0382  -1.0043  -0.9930  -0.9861  -0.9841  -0.9735  -0.9627  -0.9412
    -0.8776  -0.8728  -0.8499  -0.6624  -0.6428  -0.5627  -0.5554  -0.4515
    -0.4446  -0.4380  -0.4119  -0.3694  -0.3503  -0.3488  -0.3344  -0.3171
    -0.2602  -0.2259  -0.2057  -0.1826  -0.1343  -0.1253  -0.0963  -0.0578
    -0.0381   0.0220   0.1401   0.2012   0.2043   0.2264   0.2298   0.3147
     0.3215   0.3290   0.3480   0.3598   0.3799   0.4052   0.4097   0.5182
     0.5250   0.5444   0.5886   0.5953   0.6128   0.6221   0.6368   0.6550
     0.7958   0.8505   0.8866   0.9528   0.9667   1.0413   1.0451   1.1257
     1.1684   1.1762   1.1934   1.2789   1.3045   1.3554   1.3841   1.3963
     1.4040   1.4213   1.4467   1.4605   1.5003   1.5633   1.5665   1.5891
     1.6082   1.6175   1.6198   1.6619   1.6927   1.8205   1.8280   1.8305
     1.8331   1.8441   1.9069   1.9877   2.0222   2.1578   2.9797   2.9814
     3.1680   3.2327   3.2822   3.3734   3.3825   3.3932   3.8242   3.9899
     3.9945   4.4025   4.4558   4.4930   4.5854   4.5949   4.7339   4.8164
     4.8955   5.0116   5.1536   5.3589   5.4261   5.4692   5.9576   6.0771

          k = 0.4000-0.4619 0.0000 ( 89818 PWs)   bands (ev):

   -21.5913 -16.3209  -6.8721  -6.2558  -6.2535  -5.6900  -5.6078  -4.9985
    -4.9793  -4.4822  -4.4756  -4.3466  -4.3117  -4.2043  -4.2004  -4.0973
    -4.0925  -3.9827  -3.9695  -3.9672  -3.9319  -3.9276  -3.9250  -3.8978
    -3.8171  -3.7747  -3.7606  -3.7584  -3.7198  -3.7150  -3.6212  -3.5304
    -3.5052  -3.4438  -3.3476  -3.3459  -3.3340  -3.3311  -3.3117  -3.2061
    -3.2031  -3.1080  -3.1047  -2.9311  -2.9211  -2.8662  -2.7697  -2.7653
    -2.7156  -2.7109  -2.6029  -2.5556  -2.5115  -2.5052  -2.4850  -2.4424
    -2.4348  -2.4077  -2.3065  -2.3026  -2.2768  -2.2722  -2.2657  -2.2630
    -2.2579  -2.1892  -2.1868  -2.0631  -2.0379  -1.9890  -1.9856  -1.8714
    -1.8409  -1.8288  -1.8270  -1.7829  -1.7421  -1.7379  -1.6597  -1.6479
    -1.6354  -1.6177  -1.6041  -1.5701  -1.5548  -1.5067  -1.4952  -1.4612
    -1.4081  -1.4033  -1.3898  -1.3421  -1.2748  -1.2252  -1.2219  -1.1854
    -1.1818  -1.1374  -1.1307  -1.1261  -1.1188  -1.0912  -1.0862  -1.0424
    -1.0397  -1.0045  -0.9931  -0.9859  -0.9849  -0.9754  -0.9595  -0.9402
    -0.8807  -0.8729  -0.8579  -0.6624  -0.6411  -0.5633  -0.5551  -0.4517
    -0.4448  -0.4371  -0.4099  -0.3633  -0.3491  -0.3423  -0.3335  -0.3187
    -0.2615  -0.2329  -0.2059  -0.1849  -0.1396  -0.1271  -0.0924  -0.0546
    -0.0316   0.0120   0.1396   0.2002   0.2042   0.2254   0.2307   0.3142
     0.3254   0.3273   0.3475   0.3579   0.3812   0.4040   0.4132   0.5180
     0.5248   0.5456   0.5884   0.5945   0.6124   0.6209   0.6374   0.6591
     0.7978   0.8558   0.8828   0.9534   0.9642   1.0403   1.0451   1.1255
     1.1670   1.1775   1.1911   1.2807   1.3033   1.3548   1.3859   1.3967
     1.4061   1.4187   1.4443   1.4625   1.5007   1.5636   1.5658   1.5904
     1.6101   1.6165   1.6194   1.6624   1.6923   1.8205   1.8268   1.8304
     1.8330   1.8437   1.9073   1.9861   2.0221   2.1573   2.9797   2.9813
     3.1754   3.2262   3.2763   3.3760   3.3839   3.3943   3.8295   3.9881
     3.9936   4.4133   4.4552   4.4877   4.5824   4.5948   4.7217   4.8253
     4.8962   4.9605   5.2001   5.3602   5.4308   5.4758   5.9543   6.0747

     the Fermi energy is     1.5989 ev

!    total energy              =  -27841.52163978 Ry

     total all-electron energy =  -1326945.980842 Ry
     estimated scf accuracy    <       0.00000083 Ry
     smearing contrib. (-TS)   =       0.00146528 Ry
     internal energy E=F+TS    =  -27841.52310507 Ry

     The total energy is F=E-TS. E is the sum of the following terms:
     one-electron contribution =  -27367.55075266 Ry
     hartree contribution      =   13985.01472231 Ry
     xc contribution           =    -906.79847131 Ry
     ewald contribution        =   11942.05608420 Ry
     one-center paw contrib.   =  -25494.24468761 Ry

     convergence has been achieved in  18 iterations

     negative rho (up, down):  1.338E-02 0.000E+00

     Forces acting on atoms (cartesian axes, Ry/au):

     atom    1 type  1   force =    -0.00011465   -0.00023266   -0.00293117
     atom    2 type  1   force =    -0.00005009   -0.00002282   -0.00364912
     atom    3 type  1   force =     0.00010482   -0.00019244   -0.00307794
     atom    4 type  1   force =     0.00017695    0.00028776   -0.00316295
     atom    5 type  1   force =    -0.00019386    0.00023723   -0.00314177
     atom    6 type  1   force =     0.00004479    0.00003635   -0.00313373
     atom    7 type  1   force =     0.00005050   -0.00015356   -0.00524918
     atom    8 type  1   force =    -0.00019486    0.00001098   -0.00302212
     atom    9 type  1   force =     0.00014361   -0.00011419   -0.00291228
     atom   10 type  1   force =     0.00051118   -0.00035111    0.00419421
     atom   11 type  1   force =    -0.00048386   -0.00036362    0.00401550
     atom   12 type  1   force =    -0.00007227    0.00041211    0.00290769
     atom   13 type  1   force =    -0.00010857   -0.00032652    0.00375079
     atom   14 type  1   force =     0.00056791   -0.00018231    0.00320943
     atom   15 type  1   force =    -0.00052203   -0.00008279    0.00270709
     atom   16 type  1   force =     0.00058912    0.00053670    0.00345866
     atom   17 type  1   force =    -0.00013166    0.00056710    0.00376644
     atom   18 type  1   force =    -0.00093967    0.00016776    0.00261820
     atom   19 type  1   force =    -0.00021705    0.00031339   -0.00016650
     atom   20 type  1   force =    -0.00003479   -0.00002216   -0.00045433
     atom   21 type  1   force =     0.00026526    0.00016145   -0.00018209
     atom   22 type  1   force =    -0.00019009   -0.00002653   -0.00022048
     atom   23 type  1   force =     0.00017110   -0.00000665   -0.00015561
     atom   24 type  1   force =     0.00005991   -0.00016552   -0.00031400
     atom   25 type  1   force =    -0.00000864    0.00014214    0.00000241
     atom   26 type  1   force =     0.00014192   -0.00012673   -0.00049018
     atom   27 type  1   force =     0.00000419   -0.00010908   -0.00038464
     atom   28 type  1   force =     0.00020591    0.00002223    0.00035897
     atom   29 type  1   force =     0.00001458   -0.00006882    0.00075979
     atom   30 type  1   force =     0.00000422   -0.00000240    0.00026971
     atom   31 type  1   force =     0.00013120   -0.00009909    0.00021872
     atom   32 type  1   force =     0.00007890   -0.00001248    0.00023780
     atom   33 type  1   force =     0.00009859    0.00015288    0.00001788
     atom   34 type  1   force =     0.00001820   -0.00000925   -0.00024512
     atom   35 type  1   force =     0.00028397    0.00006000    0.00017166
     atom   36 type  1   force =    -0.00000696    0.00000389    0.00019433
     atom   37 type  2   force =     0.00700415   -0.00015843    0.01250884
     atom   38 type  2   force =    -0.00017640   -0.00002006   -0.00125537
     atom   39 type  3   force =    -0.00031826   -0.00035542   -0.00023649
     atom   40 type  3   force =    -0.00690727    0.00009268   -0.01098306

     Total force =     0.019448     Total SCF correction =     0.001863

     negative rho (up, down):  1.338E-02 0.000E+00

     negative rho (up, down):  1.338E-02 0.000E+00

     negative rho (up, down):  1.338E-02 0.000E+00

     negative rho (up, down):  1.338E-02 0.000E+00

     negative rho (up, down):  1.338E-02 0.000E+00

     negative rho (up, down):  1.338E-02 0.000E+00

     negative rho (up, down):  1.338E-02 0.000E+00

     negative rho (up, down):  1.338E-02 0.000E+00

     negative rho (up, down):  1.338E-02 0.000E+00

     negative rho (up, down):  1.338E-02 0.000E+00

     negative rho (up, down):  1.338E-02 0.000E+00

     negative rho (up, down):  1.338E-02 0.000E+00

     negative rho (up, down):  1.338E-02 0.000E+00

     negative rho (up, down):  1.338E-02 0.000E+00

     negative rho (up, down):  1.338E-02 0.000E+00

     negative rho (up, down):  1.338E-02 0.000E+00

     negative rho (up, down):  1.338E-02 0.000E+00

     negative rho (up, down):  1.338E-02 0.000E+00

     negative rho (up, down):  1.338E-02 0.000E+00

     negative rho (up, down):  1.338E-02 0.000E+00

     negative rho (up, down):  1.338E-02 0.000E+00

     negative rho (up, down):  1.338E-02 0.000E+00

     negative rho (up, down):  1.338E-02 0.000E+00

     negative rho (up, down):  1.338E-02 0.000E+00

     negative rho (up, down):  1.338E-02 0.000E+00

     negative rho (up, down):  1.338E-02 0.000E+00

     negative rho (up, down):  1.338E-02 0.000E+00

     negative rho (up, down):  1.338E-02 0.000E+00

     negative rho (up, down):  1.338E-02 0.000E+00

     negative rho (up, down):  1.338E-02 0.000E+00

     negative rho (up, down):  1.338E-02 0.000E+00

     negative rho (up, down):  1.338E-02 0.000E+00

     negative rho (up, down):  1.338E-02 0.000E+00

     negative rho (up, down):  1.338E-02 0.000E+00
 BEEFens 2000 ensemble energies
             -0.606689906695965E+02
             -0.361129047852413E+01
             -0.158421082727833E+02
              0.429592303266318E+02
             -0.221345926459617E+02
             -0.205566966654750E+02
             -0.352319097912948E+02
             -0.865080494879633E+02
             -0.465882228008707E+02
             -0.473529334837550E+02
             -0.369269616149456E+02
              0.226490338494676E+01
              0.404666866186511E+01
              0.766906243539603E+01
              0.265637767891911E+01
              0.475030470949644E+02
             -0.209202059224569E+02
             -0.230814691776965E+02
              0.192486789193231E+02
             -0.112446441465493E+03
              0.536561817237065E+02
             -0.290079073761324E+02
             -0.334421237454954E+01
             -0.114400753945480E+02
             -0.886800084635581E+01
             -0.466713252461415E+01
              0.883273348696771E+02
             -0.186628187379035E+02
             -0.902823582804876E+01
             -0.518304401098960E+02
              0.816415345784360E+02
             -0.187911112723760E+02
             -0.375024506266132E+02
              0.249721675271335E+02
             -0.285118056058622E+01
              0.163484810294825E+02
             -0.488614283402489E+01
              0.108595372621976E+02
              0.287620695820844E+02
             -0.103352641509611E+03
              0.558683167414374E+02
              0.142366883554430E+02
             -0.168141112000325E+01
             -0.361879270390030E+02
              0.123137114746510E+02
             -0.146731607076746E+02
              0.398230108044843E+02
              0.365151719616961E+02
             -0.308676889590678E+02
             -0.274958702088442E+02
             -0.328145436931218E+02
             -0.352121510169903E+02
              0.135764120298105E+02
             -0.491102606901597E+02
              0.115552803920583E+02
              0.623324223720331E+02
              0.635144633474977E+02
              0.356253890722390E+02
              0.154448639415895E+02
              0.270350190121997E+02
              0.891788713970723E+02
              0.213137844764613E+02
             -0.548924486497163E+02
             -0.157437199523135E+02
             -0.235845200025093E+02
              0.630031575200217E+02
             -0.774340487136097E+02
             -0.672059646613249E+02
             -0.259150463122803E+02
             -0.642708517999472E+01
             -0.471380360252234E+02
              0.270809850116287E+02
              0.800610959174855E+01
              0.866464830994420E+01
             -0.397383057773492E+02
             -0.346921882492002E+02
             -0.541836818834949E+02
              0.390837485154163E+02
             -0.295934956336499E+02
              0.265029189465378E+02
             -0.713959258571110E+01
             -0.318313156986109E+02
             -0.577010169577602E+02
             -0.176673469071578E+02
             -0.903001416264067E+01
             -0.125049575046916E+02
              0.412518834908827E+02
              0.682562701036566E+02
             -0.385594871936757E+02
             -0.795132590054382E+02
             -0.219799774611832E+02
              0.111582567637936E+03
             -0.592660770987687E+02
              0.356260859413240E+02
             -0.955913528698943E+01
             -0.663803443947218E+02
              0.254571697188747E+02
              0.398694986898270E+02
             -0.198708006616939E+02
              0.400569306299058E+02
             -0.296237508000831E+02
             -0.477817400463007E+02
              0.865525036534452E+02
              0.454051747474251E+02
              0.337212578332656E+02
              0.146429720563970E+02
              0.205401879395165E+02
              0.856886677841953E+02
             -0.256915431921614E+02
              0.788883295119548E+01
             -0.142473083208928E+03
              0.181567528537305E+02
             -0.716580987305725E+02
              0.151105326681702E+02
              0.204678260427411E+02
             -0.332804054827386E+02
             -0.557612252565565E+02
              0.655111229120371E+01
             -0.304111747622336E+02
              0.307614757560970E+02
             -0.530154411470612E+02
              0.174836899339186E+01
             -0.356996259208395E+02
             -0.423445627808792E+01
             -0.109184243785299E+01
              0.180661339709453E+02
              0.142045829241579E+01
             -0.653371877207383E+01
              0.590265388731335E+02
              0.908571909172861E+02
              0.484132888113975E+02
              0.831437797116986E+02
             -0.115332754921608E+02
              0.143160815476994E+02
              0.541621651365126E+02
             -0.111630801910179E+02
             -0.736225180764828E+02
             -0.383904372867220E+02
             -0.521938695106414E+02
             -0.276903653749646E+02
              0.327290382968890E+02
             -0.116803102143313E+03
             -0.187399451714154E+02
              0.413905456485261E+02
             -0.386314004821749E+02
             -0.365770741970827E+02
              0.543859952484546E+02
              0.400841064939643E+02
             -0.354335773174800E+02
              0.136960941662281E+02
             -0.273314977316916E+02
              0.343282879732116E+02
              0.446557044069561E+01
              0.211524196021906E+02
             -0.885429104999312E+02
             -0.480551406687984E+02
             -0.997537932838179E+01
              0.322567483132207E+01
             -0.366819459000073E+02
              0.106027574920053E+03
             -0.231516186586775E+02
             -0.399093513267072E+02
              0.389134881219584E+02
             -0.494593685913713E+02
             -0.363036921446026E+02
              0.324681531610013E+02
              0.124306462620700E+02
              0.164657118433735E+02
              0.116163487086611E+02
             -0.132851326884722E+02
              0.225703285347519E+02
              0.590536895258572E+02
             -0.312087136513746E+02
              0.162267222018714E+02
              0.934960220737733E+02
              0.340791725058803E+02
             -0.731831521011361E+01
             -0.188356681752124E+02
              0.153389184943398E+03
             -0.163706250857093E+02
              0.363158839522558E+02
              0.194138335016794E+02
              0.362214033473633E+02
              0.892345344977338E+02
              0.543125832123933E+02
             -0.239650088412843E+01
              0.227531736320701E+02
              0.484664756563971E+02
              0.363699167707465E+02
             -0.525688320740193E+02
              0.936256008308266E+02
             -0.826135655376181E+02
             -0.198540191835465E+02
              0.583157354239272E+02
              0.669316899931709E+01
              0.786814746482605E+01
              0.341393887519396E+02
              0.299479092192998E+02
              0.353986303227906E+02
             -0.637810405682478E+02
              0.287949353570184E+01
             -0.297753957510790E+02
             -0.872567550384508E+01
             -0.143469580087469E+01
             -0.720057178585256E+01
             -0.414805784704942E+01
              0.859776520852022E+02
             -0.101230865115843E+02
             -0.276558410409060E+02
             -0.497562455991566E+01
              0.139761507229443E+02
             -0.563890000385227E+02
             -0.406710843581858E+02
             -0.382223193061880E+02
             -0.630303544089958E+02
             -0.169498195556434E+02
             -0.447617701429422E+02
              0.163614898597760E+02
             -0.241741296033057E+01
             -0.104436602604279E+02
             -0.935117698557400E+01
              0.809093052767548E+01
             -0.243452712424378E+02
              0.689517283863827E+02
             -0.807232856470103E+02
             -0.141157564003589E+02
             -0.174325386678251E+02
              0.182198363230361E+02
              0.213961986731073E+02
             -0.463603237141756E+02
             -0.202094199727820E+02
              0.441022339460598E+02
             -0.276525720747874E+02
              0.186956616434522E+02
              0.383324819498366E+02
             -0.321880474974250E+01
              0.114166019165278E+03
             -0.230565354445934E+02
             -0.341145613478876E+02
              0.581781573188005E+01
             -0.228081309698950E+02
              0.527524530406508E+02
             -0.336817735417007E+02
              0.106202068508990E+02
              0.641368313313264E+02
             -0.126623539061018E+02
              0.120276932227951E+03
              0.125924440569257E+03
             -0.649984564628501E+02
              0.590677783242325E+02
              0.166086791150550E+02
             -0.517808559431097E+02
              0.216389412170364E+02
              0.353584364322886E+02
              0.362452200126086E+02
              0.134785013213283E+01
              0.159289305109857E+02
              0.695878177820287E+02
             -0.246949397748618E+02
              0.181604953912099E+02
              0.739811331760263E+02
             -0.372809936975379E+02
             -0.129276259225812E+02
              0.508391695609344E+02
              0.297324258342747E+02
              0.780481799216860E+02
              0.222469373949128E+02
              0.622371662333779E+01
              0.280540629467613E+02
              0.383306286303386E+02
             -0.471509192779418E+02
              0.328801827870723E+01
              0.129224266962735E+02
              0.113587187219917E+02
              0.220453772382388E+02
             -0.574941137457989E+02
              0.366223728723010E+02
             -0.444050454026560E+02
             -0.347455683499017E+02
              0.177798871342371E+02
             -0.181833388740111E+02
              0.554737553196127E+02
             -0.256814292544710E+02
              0.266788464495825E+02
              0.368191128263860E+02
              0.829551055616740E+02
              0.575051671474713E+02
              0.461971848297235E+02
             -0.106271324792057E+02
             -0.387495976079737E+01
             -0.332417286050847E+02
              0.750575198335727E+02
              0.797255742494349E+02
              0.361854159862100E+02
             -0.191815169994198E+02
              0.511964184712131E+02
             -0.163354357583653E+02
              0.215359281845310E+02
              0.614377608144993E+02
              0.213310208865468E+01
             -0.104461857212269E+02
             -0.283343619261269E+02
             -0.511344756972481E+02
              0.945671834272873E+02
              0.439500813369420E+02
             -0.558844051966913E+02
             -0.960934383875468E+01
              0.250221388153733E+02
             -0.999785597487551E+01
              0.592134744089527E+02
              0.152092248924826E+02
              0.799205707358013E+02
              0.279374531043393E+02
             -0.264317214897055E+02
              0.249274302260973E+02
             -0.500758732191690E+01
             -0.324009372002248E+02
              0.133304069395754E+02
              0.205941915987083E+02
              0.932898187180437E+02
              0.797744828076695E+02
              0.550976373247393E+02
              0.731124597858141E+02
              0.801517647802970E+01
             -0.273903897516644E+02
              0.163129365774689E+02
             -0.368214597517060E+02
             -0.476191823641128E+02
             -0.564048187005563E+02
             -0.266491618837137E+02
             -0.109744389637669E+03
             -0.291165437371740E+02
             -0.837531083408713E+02
              0.209991499866103E+02
             -0.477340300736775E+02
              0.396485327838714E+02
             -0.941400921985767E+02
             -0.330186780075780E+02
              0.549281859857892E+02
              0.207698566850831E+02
             -0.830582045868471E+02
              0.631526142926224E+02
             -0.256780680042046E+02
              0.512555763819798E+02
             -0.242945119673643E+02
             -0.751666653794149E+02
              0.111924465752485E+02
             -0.611478806582318E+02
             -0.168857487729571E+02
             -0.146885380595145E+01
              0.418615144383836E+02
              0.127038565661427E+03
             -0.462051872905573E+02
             -0.362575324410849E+02
             -0.959061873726000E+00
             -0.130825642762979E+02
             -0.822762237508058E+02
             -0.597142918424454E+02
              0.517517555978121E+02
             -0.289483479993594E+02
              0.168788796247070E+02
             -0.489537754177475E+02
             -0.131797251844514E+02
             -0.437332545315974E+02
              0.565787991160324E+02
              0.151339600639220E+02
             -0.231605338248554E+02
             -0.126641869939913E+02
              0.665902557971469E+01
             -0.621624551767098E+01
              0.441847553936429E+02
             -0.252133877373842E+02
              0.274275652594690E+01
              0.339397062830747E+02
              0.171605352708673E+02
             -0.159585731485396E+02
              0.156322226798853E+03
              0.537898724659858E+02
              0.113984616222267E+01
              0.161571586848170E+02
             -0.615151833235391E+02
              0.314884983175708E+02
             -0.721726116728567E+02
             -0.251820989794971E+02
             -0.522731981927510E+02
             -0.220022170503408E+02
              0.569145683777567E+02
             -0.537240557069715E+02
              0.160490107581750E+02
             -0.407307806443214E+01
              0.388356167260486E+01
             -0.434200642246573E+02
             -0.478487464906414E+02
             -0.396730413326793E+01
             -0.425778930047261E+02
             -0.217382012975945E+02
             -0.438497232816675E+02
             -0.119500565163578E+02
             -0.359247555395198E+02
             -0.516878617776413E+02
              0.213240553445360E+02
             -0.209695237776533E+02
              0.187663998425808E+02
              0.978043295665184E+01
             -0.738144541777888E+02
             -0.548567509018103E+02
             -0.397809306114915E+02
              0.354814557470572E+02
              0.273933550242043E+01
             -0.627204486994323E+02
              0.585885035972103E+02
             -0.401299620606752E+02
              0.544590652674466E+02
             -0.289671913594707E+02
             -0.446271539748972E+02
              0.298680633281373E+02
             -0.657767159544062E+02
             -0.380537070691722E+02
              0.673398182642420E+02
              0.204035339432343E+02
             -0.359997241899048E+02
              0.489716104542386E+02
             -0.174184390921696E+02
             -0.323050111325883E+02
             -0.302095420854654E+02
             -0.500715279005163E+02
              0.249276890215432E+02
             -0.933512674019775E+02
             -0.840999758538449E+02
             -0.734785712357188E+01
             -0.306844744078908E+02
             -0.575660161201810E+02
              0.721843968997696E+02
              0.131550593818602E+03
             -0.361723367334715E+02
             -0.253198767635359E+01
             -0.637732837278816E+02
              0.650594980739704E+02
              0.170792133550804E+02
             -0.181649941440352E+02
             -0.410308581187305E+02
              0.148789578599121E+02
             -0.586558752764322E+02
             -0.198184202236838E+02
             -0.905342759800619E+02
              0.337141472838254E+02
              0.169323185026798E+02
              0.186539367211981E+01
             -0.702046316515816E+01
             -0.329453060067015E+02
             -0.756746060858541E+01
              0.125548186289020E+03
             -0.199039994142505E+02
             -0.437532295891481E+02
             -0.683967466968259E+02
              0.109282604116746E+02
             -0.342077749684520E+02
              0.589485993573206E+01
              0.261500089993197E+02
              0.102139797168641E+02
              0.277813171106143E+02
              0.119685156259073E+02
              0.629793216667782E+02
              0.317271469175765E+02
             -0.326515617305876E+02
              0.355103671427364E+02
              0.379722853757882E+02
              0.120896255995806E+02
              0.487644400881894E+02
             -0.224369728671271E+02
              0.766021725875821E+02
              0.171956345990410E+02
             -0.272106473165365E+02
             -0.725513248511682E+01
             -0.186553783111410E+02
              0.262277726846629E+02
             -0.234764075504905E+02
             -0.794696799135295E-01
             -0.850432291208881E+01
              0.809949361558398E+02
              0.500209836741424E+02
             -0.687814505659063E+02
             -0.474149846396435E+01
             -0.555966436192234E+02
             -0.159708361907282E+02
             -0.268541562650123E+02
              0.375225748532125E+01
              0.585132800278888E+00
             -0.257603049356695E+02
              0.810961771754711E+01
             -0.601926441389487E+01
             -0.128919826820958E+02
              0.859190514001706E+02
              0.182138366970739E+02
             -0.807023449530984E+02
             -0.458942988370437E+02
              0.944955953374987E+02
              0.278006606440615E+02
             -0.106780061822351E+02
              0.104607548758517E+03
             -0.195119078938773E+02
             -0.123195740117856E+02
             -0.537113487373085E+01
              0.107519741257173E+02
              0.272173093129463E+02
              0.780997609980648E+01
              0.305409307328790E+02
             -0.188163160326695E+02
             -0.303421082261715E+02
             -0.418060373011446E+02
             -0.477259307853152E+02
              0.464469061320703E+02
              0.126883741204841E+02
              0.387829219462923E+02
              0.133573621925691E+02
              0.855868123674900E+02
              0.156281738212609E+02
             -0.846309035849011E+02
             -0.334686619540281E+02
              0.134189477992507E+02
             -0.302926465128236E+02
              0.626663804882724E+02
             -0.887389233281897E+01
              0.148842714505248E+02
              0.497172985614852E+02
             -0.707350429892310E+02
              0.149805563598227E+03
              0.208796700003371E+02
              0.271310077967208E+02
              0.347677031663429E+02
              0.104178508641044E+02
             -0.156624749551128E+01
              0.358754688933479E+02
             -0.357350120234390E+02
              0.773323493695949E+02
              0.684945024096920E+02
             -0.406283490128629E+02
              0.149812885873550E+02
              0.670407210331041E+02
             -0.224072307432397E+02
              0.154087013176534E+02
              0.435829866658174E+02
              0.422622778878830E+02
             -0.785411573700550E+02
             -0.153155952133918E+02
             -0.356791689356417E+02
             -0.150013971434510E+01
             -0.765449576118085E+01
             -0.548320311688053E+01
             -0.181149420114559E+02
             -0.293889164397449E+02
              0.630547306188856E+01
              0.112065857584853E+02
              0.535986681816340E+02
             -0.390251473774311E+02
              0.374132596796251E+02
              0.438565161431641E+02
             -0.187165042958290E+02
              0.873210204963048E+02
             -0.698097413824059E+02
             -0.103234277121805E+03
             -0.656164085345817E+01
             -0.270993890653369E+01
              0.387457394395665E+01
              0.789700082659604E+02
             -0.107380894182812E+02
              0.416725906289803E+02
              0.443416466128185E+02
              0.385390099233666E+02
             -0.993932491340865E+01
              0.628143852397729E+02
             -0.133722346771883E+02
             -0.307320555974801E+02
             -0.480439390553906E+02
              0.584520238644498E+01
              0.370229751054818E+02
             -0.604421700778340E+01
              0.393446667209566E+02
             -0.175111742996938E+01
              0.655824956330274E+02
              0.187732950325257E+02
              0.997978704280033E+01
             -0.122095597352193E+02
              0.332546454501968E+02
              0.362626548680548E+02
              0.233008222382892E+02
             -0.500386113999014E+00
             -0.550649711962654E+02
              0.260800999643744E+02
              0.175202804640618E+02
              0.403083601523060E+02
              0.272542162456365E+02
              0.372411841640116E+02
             -0.601663001921071E+01
              0.250885748185804E+02
             -0.298404401214370E+02
             -0.198788356218040E+01
             -0.569634731705397E+02
             -0.307895133026599E+02
              0.378874486252263E+02
             -0.936193543718063E+02
              0.294872025656890E+02
              0.184229685199527E+02
              0.840420856700095E+02
             -0.301364838206040E+02
              0.329431805689807E+02
             -0.137801584266866E+02
             -0.464115388217810E+02
             -0.762229893432186E+02
             -0.522983374083319E+01
             -0.860416506623473E+02
              0.200180976336990E+02
             -0.247672040565236E+02
              0.305771138668440E+02
              0.236645165424181E+02
             -0.241120164599493E+02
             -0.265383364127014E+02
              0.391035038541409E+02
             -0.588432610123238E+02
             -0.116702704589476E+02
             -0.196338680162181E+02
              0.212574457949784E+02
             -0.896906853075933E+01
              0.362994902486946E+01
             -0.201083943910912E+02
              0.559077438633607E+02
             -0.439115966721893E+02
              0.792595580096247E+01
              0.585671671293127E+02
             -0.323309517234919E+02
              0.359116062574722E+01
             -0.884938223673578E+01
             -0.670184773826436E+02
             -0.483361927860756E+02
             -0.864527491852434E+01
              0.240654945047201E+02
              0.302194661290355E+02
              0.861009077379401E+01
             -0.411269423696513E+01
              0.152372013539207E+02
             -0.440411031008667E+02
              0.334429034236950E+01
             -0.531294241324674E+02
             -0.324735817776320E+02
              0.474799245196941E+02
             -0.295206233362402E+02
              0.622488867983636E+02
             -0.214673386043030E+02
              0.354107240604139E+02
              0.241936157212164E+02
             -0.644410500136359E+02
             -0.280876285324939E+02
              0.930244789127357E+01
             -0.371607038414154E+02
             -0.339718584420063E+02
             -0.830001304189218E+02
             -0.539788584722762E+02
             -0.510885560392568E+02
             -0.415616387624077E+02
             -0.967749412947768E+00
              0.991629090235045E+01
              0.995228312019663E+00
              0.152922840288897E+02
             -0.549608142447367E+02
              0.141956991309876E+02
              0.256394973214306E+02
             -0.667068885886257E+02
             -0.702535201341407E+02
             -0.431363558899270E+02
             -0.171668921782739E+02
              0.178985378703912E+02
              0.456811265139117E+01
             -0.426322896720376E+02
              0.366835615009339E+02
             -0.215921977641901E+02
              0.517671685630404E+02
             -0.887473632856679E+02
              0.597597513334693E+02
             -0.207427717418562E+01
             -0.368602136054266E+02
             -0.216459248779809E+02
              0.471679529133733E+01
              0.374502128933743E+02
             -0.756890565561834E+02
             -0.120832476917622E+02
             -0.216882619136531E+02
              0.511689127045358E+02
              0.865160086203374E+02
             -0.965504877035269E+02
              0.944527904136678E+02
              0.468207807857152E+02
             -0.725805125632378E+02
             -0.367000740174988E+02
              0.752130802837745E+02
              0.632338360311544E+02
             -0.181286386058298E+02
             -0.463056122287458E+01
              0.730525396786169E+01
              0.649147619796486E+02
             -0.508450248257340E+02
              0.158779862631392E+02
             -0.471411918034994E+01
              0.348164668983599E+02
             -0.747471872818101E+02
             -0.650914319829798E+01
             -0.351665459890467E+02
              0.460819060941690E+02
              0.468993524686740E+02
             -0.862056789372060E+02
             -0.487427318452157E+02
             -0.256424135015535E+02
             -0.339231105747831E+02
             -0.109579620471090E+02
             -0.243264517606063E+02
              0.427523503143463E+02
              0.401272588925581E+02
             -0.569213077104428E+01
             -0.416370285948551E+02
             -0.850647949949782E+02
              0.442915786725250E+02
             -0.523759538340705E+02
             -0.312851564683481E+02
              0.546359360484003E+01
             -0.322571529205073E+02
             -0.398153602531056E+02
             -0.240226026941470E+02
             -0.385406662286890E+02
             -0.270983724483271E+02
             -0.482903712825313E+02
              0.564446824781575E+02
              0.638924503440680E+02
             -0.167583156932938E+01
             -0.261545881463086E+02
             -0.628509841935249E+01
              0.441549531152327E+02
             -0.868686705179881E+02
             -0.146493562053940E+02
              0.523981597918864E+02
              0.663711141302799E+02
             -0.244982017450533E+02
              0.917906161444512E+01
              0.523962830191049E+02
              0.198253742359226E+02
             -0.830880845840568E+01
             -0.453535892511023E+02
              0.281007512360765E+02
             -0.352985982687301E+02
             -0.165527880838301E+02
             -0.152848150964255E+02
             -0.200492040457261E+02
              0.194629462447369E+02
              0.800763200648752E+02
              0.189754174670648E+01
              0.534965318723025E+01
             -0.888079969532040E+02
             -0.176145886872632E+02
             -0.352928018904891E+02
              0.278887457184396E+01
             -0.409400221587489E+02
              0.730347918951785E+02
              0.784994679729504E+02
              0.124027689006713E+02
[...]
              0.283628349085111E+02
              0.141862971947864E+03
              0.242320766543584E+02
              0.122630687875852E+02
             -0.464679105599205E+02
             -0.638345694608720E+02
             -0.189241844791887E+02
              0.329807099393191E+02
             -0.428359685661189E+01
              0.189843075339109E+02
              0.336162491122336E+02
             -0.586799018449355E+02
              0.222563069599797E+02
              0.582903038530666E+02
              0.553298864984612E+02
             -0.417724291291177E+01
             -0.140151658434354E+01
             -0.994732336627860E+01
             -0.482836051645866E+02
             -0.674896423042253E+02
              0.786142041048813E+02
             -0.521843857485104E+01
             -0.588409034265294E+02
              0.166551255762474E+01
             -0.205115834694512E+02
              0.938952568856423E+02
             -0.216430589996319E+02
             -0.353430588272989E+02
              0.335020522625387E+02
             -0.145700942049277E+02
              0.389669198966434E+02
             -0.242145762365845E+01
              0.101145934762427E+03
              0.489374854083844E+02
             -0.518180605519587E+01
             -0.321880339608095E+02
              0.232267359400395E+02
             -0.528769810069963E+02
             -0.128136255635438E+02
              0.585807129568757E+02
             -0.287850217893232E+02
             -0.438590027163690E+02
             -0.223024776801867E+02
              0.518803031317086E+02
              0.124962598821049E+02
             -0.849235222945336E+02
              0.304037811013368E+02
              0.152740823878682E+02
              0.576090086648122E+01
             -0.513577866503936E+02
             -0.379349061848438E+01
              0.323245462320542E+02
              0.513381418102877E+02
              0.632484871208125E+02
              0.228800065618391E+02
              0.750549566092133E+00
             -0.497819721754252E+02
             -0.510221902998471E+02
             -0.748599150851401E+02
             -0.612388771033807E+01
              0.309050232354923E+02
             -0.382464051309992E+01
              0.547008582538351E+02
             -0.318060549922412E+02
              0.166434882114703E+02
             -0.102233597844269E+02
             -0.289707317285406E+02
              0.585728918833354E+02
              0.792965756143138E+01
              0.604233715305293E+02
              0.509401108835175E+01
              0.265388733951941E+02
             -0.192657810639582E+02
              0.586387916347258E+02
             -0.111217442279750E+02
             -0.132652845023499E+00
             -0.790276281568374E+02
             -0.128548287517130E+02
              0.719411183573951E+02
              0.673647975148320E+02
              0.251667502122917E+02
             -0.130145923783997E+02
              0.340912980960269E+01
             -0.173143376298928E+02
             -0.197716727608855E+01
              0.907719829959287E+02
              0.120489473958821E+01
             -0.190212830547035E+02
             -0.110799039354159E+03
             -0.553414237388340E+02
             -0.375026806481291E+02
             -0.659062794379849E+02
             -0.555625736693835E+02
             -0.682961146257616E+02
             -0.447308297381033E+02
             -0.411344111645828E+02
             -0.451767856353136E+02
              0.483727455742517E+02
             -0.294632199750820E+02
             -0.996614548901413E+02
              0.419176128036731E+02
             -0.259954851969787E+02
             -0.791006411848529E+02
              0.944045565128556E+02
             -0.219662613320291E+02
              0.228300206536767E+02
              0.455492108209731E+02
             -0.140283168831166E+01
              0.254176352416944E+02
              0.469050314298815E+01
              0.398974611532552E+00
             -0.150648946879107E+02
             -0.715838917014564E+02
              0.133291141572145E+02
             -0.129468780539190E+03
              0.623767668219157E+02
             -0.440810050601444E+02
             -0.162446605425316E+02
             -0.157775725971075E+02
              0.710628872009623E+01
             -0.227935259421313E+02
              0.297313289373205E+02
             -0.520355865752413E+02
              0.367615176052443E+02
              0.370810646055467E+02
              0.168895115643307E+02
              0.100604803787416E+02
              0.197789733708674E+02
              0.619855263230448E+01
              0.310596173469999E+02
             -0.803594777820135E+01
             -0.591617189937368E+02
              0.758919592768706E+01
             -0.152406572745887E+02
             -0.193872436420963E+01
              0.505894321526492E+02
             -0.827227300082103E+02
             -0.148984297419736E+01
              0.551989311721456E+00
              0.994716648696863E+01
              0.318634664620012E+02
             -0.123755855123170E+02
              0.835737956676187E+02
              0.488396623480700E+02
             -0.183439123451758E+02
             -0.958695616679790E+01
              0.104581370792414E+01
              0.769712874985029E+02
             -0.586429935621862E+02
             -0.105800092360591E+03
              0.309279783138075E+02
             -0.163120286134395E+02
             -0.139440845364369E+02
              0.130415646421536E+02
              0.768878662932414E+02
              0.464571988378754E+02
             -0.153566574040894E+02
             -0.502833835962858E+02
             -0.546117759571871E+01
              0.306562216074208E+02
             -0.111419464970533E+02
             -0.755639846868935E+02
             -0.268110609005836E+01
             -0.889707776808720E+02
             -0.475286878291463E+02
              0.768226153618196E+02
             -0.483528408972764E+02
             -0.636473908835858E+02
             -0.514611217904117E+02
             -0.349558771559958E+02
              0.340978313874522E+02
              0.821549290210019E+02
             -0.354316609460608E+01
              0.276627153584915E+02
             -0.183542829922026E+02
             -0.693910300788864E+02
              0.465182279569852E+02
             -0.444966850272102E+02
              0.322138481941783E+02
              0.376637306445369E+02
             -0.652923799082544E+01
              0.391012071861524E+02
              0.438717288936689E+02
              0.100607994786026E+03
             -0.156397734986492E+02
             -0.455388619805853E+02
             -0.612750223454261E+02
             -0.123543565008232E+02
             -0.232348333687059E+02
              0.103093427028162E+03
             -0.449237943413643E+02
              0.104994761009969E+02
              0.973966901006145E+01
             -0.264974745274757E+02
             -0.798631704319367E+02
             -0.699985639549379E+01
              0.979854886982914E+02
              0.932341632391555E+01
              0.809515635452726E+01
             -0.526482687700585E+02
             -0.605407966471503E+02
             -0.558151652923495E+01
              0.500476220742732E+02
             -0.221841842262878E+02
              0.108005078240949E+03
             -0.435352487289858E+02
              0.146164844276400E+02
             -0.224626155047345E+02
             -0.718662539020403E+02
              0.166581477363957E+01
             -0.501481268133930E+02
             -0.760573807198480E+02
              0.613360164665534E+01
              0.235358855773143E+01
              0.514180276715745E+02
              0.187007857909208E+02
             -0.323628949926748E+02
              0.230263250874746E+02
             -0.810570487594447E+02
             -0.522014329691202E+02
              0.901875400462098E+02
              0.142707087869116E+02
             -0.188427574499626E+02
             -0.352729605621838E+02
             -0.270801340645789E+01
             -0.583540887431889E+01
              0.830045622572248E+02
              0.417814535741306E+02
             -0.166332965059428E+02
             -0.122309919679967E+02
             -0.427836399929720E+02
             -0.201130045329974E+02
             -0.670277256524786E+02
              0.459755527345034E+02
              0.547207565238182E+01
              0.145165516132499E+02
              0.155747968019386E+02
             -0.532855949420725E+00
             -0.168230990089106E+02
             -0.315526392062330E+01
             -0.100401007935095E+03
             -0.230338239349849E+02
             -0.763405559246928E+01
             -0.949412754372210E+01
              0.546834171255283E+02
              0.623732298376354E+02
              0.164591211451587E+02
             -0.970713544827225E+02
              0.647537324131000E+02
             -0.214910494165272E+02
             -0.377054898937905E+02
             -0.864258155598317E+02
             -0.387414396316399E+02
              0.564135313675486E+02
              0.244198164937126E+02
              0.513807859616173E+01
              0.292089016554386E+02
             -0.564940786720560E+02
             -0.422022419861633E+02
              0.515179633589333E+02
              0.387087578870726E+02
              0.519146210449627E+02
             -0.128072740850885E+01
              0.684753901764958E+01
              0.569492654862926E+02
              0.962951710638628E+02
             -0.300597820295844E+02
              0.322829501706074E+02
             -0.117709614938692E+02
             -0.412193724856912E+02
             -0.314347278252790E+02
             -0.299921700797655E+02
             -0.131295824267589E+02
             -0.523476199959215E+02
             -0.217554566688394E+02
             -0.141214943274245E+03
              0.369143326576981E+02
              0.206406906763563E+02
             -0.392624348532583E+01
             -0.380260574553607E+02
             -0.204505687823861E+02
             -0.526584954654614E+02
              0.151662603408459E+02
              0.820233597342247E+02
             -0.252066997011387E+02
             -0.162947209741802E+02
              0.238005466834497E+02
             -0.489322202830180E+02
              0.880805028538532E+02
              0.154649712898178E+02
              0.226724988966697E+02
              0.490307346139369E+02
              0.323615601787327E+01
              0.541969933328970E+02
              0.142770027679725E+02
             -0.106996613414701E+02
              0.729904552206867E+01
              0.803280403695624E+00
              0.727536224577572E+02
              0.101328239129484E+02
              0.120257205492074E+02
             -0.130062588550365E+02
              0.132438956891964E+02
             -0.911206440453615E+02
             -0.326190952971616E+02
             -0.457066309911309E+02
              0.485566352608985E+02
             -0.290861649598226E+02
             -0.658972999335294E+02
              0.538454628835514E+02
             -0.122090251850545E+02
              0.440303520054897E+02
             -0.898983995373330E+02
              0.232680758043936E+02
              0.858745363604015E+01
              0.580083238162103E+01
             -0.828866737826183E+01
             -0.903361674337521E+01
              0.479508110501434E+02
              0.199267160113874E+01
             -0.474697873916616E+02
             -0.175958413746008E+02
              0.277039866822000E+02
             -0.117966037389061E+03
             -0.930242575150385E+02
              0.396889119307963E+01
              0.117313174901877E+02
             -0.412886967172282E+02
             -0.392759561613684E+01
              0.112144480060407E+03
              0.306926155990552E+02
             -0.571709668774722E+02
              0.925235017014649E+01
             -0.962544916621047E+01
              0.105661759039489E+02
             -0.337502975404345E+02
              0.195105114108393E+02
              0.284734198640463E+02
             -0.297668436446429E+01
              0.108167129891038E+03
             -0.140685061409306E+02
             -0.316134292343421E+02
              0.142468707155946E+02
              0.466567405927674E+02
             -0.356263673508360E+02
             -0.317845095435142E+01
              0.964794016985580E+02
             -0.465302910206663E+01
              0.621690885643711E+02
              0.135477258117738E+02
             -0.903893847417879E+01
             -0.305612449656418E+02
              0.566999969869894E+02
             -0.514094942361220E+02
             -0.222868227499845E+01
             -0.169783359219625E+02
             -0.405512793571030E+02
              0.185069699114936E+02
              0.239082853757827E+02
              0.116588720002979E+02
              0.705819140278777E+00
             -0.384176867350335E+02
              0.215470106721605E+02
             -0.674661118703364E+01
             -0.246615654649599E+02
             -0.210783396385097E+02
              0.203657562370435E+02
             -0.601582763435044E+01
             -0.349114436354940E+02
             -0.106632704714609E+03
              0.102759496935307E+02
              0.249420368601721E+02
             -0.387072292731129E+02
             -0.210756745764676E+02
              0.807110059121982E+02
              0.647690027876982E+01
              0.310388805534463E+02
              0.387565860703580E+01
              0.321605186552464E+02
              0.648248796267706E+01
             -0.373016151397078E+02
             -0.226859122622415E+01
              0.877986442459985E+01
              0.273571696175377E+02
              0.782404329142608E+02
              0.507351420417008E+02
              0.175923164849678E+00
              0.169340825543452E+02
              0.613206462017489E+02
              0.235746172444117E+02
             -0.753195506745219E+02
             -0.273740166015552E+02
              0.151493279398225E+02
              0.560855831282441E+01
              0.255050196107698E+02
             -0.547953058773589E+02
              0.901954980822650E+01
              0.385822944429386E+02
              0.498048730977900E+02
             -0.434988115849351E+02
             -0.695248292657902E+01
             -0.208153955889946E+01
             -0.133531169270680E+02
             -0.365838315262062E+02
             -0.215652888246681E+02
             -0.196118861697592E+01
              0.791382919649192E+01
              0.421353641941532E+02
             -0.308056818071506E+02
              0.826158748768603E+02
              0.327618650413238E+02
              0.219755286311943E+02
              0.332978763154719E+02
              0.323607756093819E+02
              0.345885662584637E+02
              0.537158510423237E+02
             -0.433872158595039E+02
              0.619684174528015E+02
             -0.112259716712724E+03
              0.307424565132217E+02
             -0.106548542461486E+03
              0.854696255806255E+02
              0.690588027063857E+02
             -0.109966938038381E+02
             -0.493466794345389E+02
             -0.429490187754570E+02
             -0.623842881972569E+02
             -0.628572835369463E+02
              0.551912816346257E+02
              0.405548793724868E+02
              0.236768867420649E+02
              0.374235198312688E+02
              0.402654159527627E+02
             -0.381988156912170E+02
             -0.198002631097183E+02
              0.586833396591122E+02
             -0.116133793465665E+02
              0.551859915535110E+02
              0.699175835904498E+02
             -0.553542206991103E+01
             -0.706160295461149E+02
             -0.913302376438764E+00
             -0.246135719441781E+01
             -0.882245556558792E+01
             -0.181160321001039E+01
             -0.653189787372885E+02
             -0.211284354310497E+02
              0.537026353471074E+01
              0.895886330885844E+01
              0.468789744626011E+02
             -0.397501745461772E+02
              0.658202471647955E+02
             -0.425428281408619E+02
              0.210144661079757E+02
              0.350190554708352E+02
 
 BEEF-vdW xc energy contributions
           1 :   -783.152281486585     
           2 :    719.490920226131     
           3 :   -609.354385069883     
           4 :    479.788000701572     
           5 :   -358.136926499908     
           6 :    264.050509367711     
           7 :   -205.113751357558     
           8 :    176.869564762031     
           9 :   -166.785065542039     
          10 :    160.325537941227     
          11 :   -146.687010032876     
          12 :    122.022623228565     
          13 :   -89.3188986760993     
          14 :    55.5374491498762     
          15 :   -27.6685791690018     
          16 :    9.48395087099948     
          17 :  -0.238499241536601     
          18 :   -4.41264102048012     
          19 :    9.95649136515692     
          20 :   -20.3173206436189     
          21 :    36.1578500345863     
          22 :   -54.8583867158909     
          23 :    72.0114397368200     
          24 :   -83.6216767021755     
          25 :    87.9327865844882     
          26 :   -86.0703371535163     
          27 :    81.2976958694068     
          28 :   -77.3374756420633     
          29 :    76.6061952630404     
          30 :   -79.1962966078414     
          31 :   -85.7225131785211     
          32 :   -65.6805881221834     

     Writing output data file ./pwscf.save/
 
     init_run     :    329.55s CPU    333.93s WALL (       1 calls)
     electrons    :  12683.55s CPU  12801.68s WALL (       1 calls)
     forces       :     99.10s CPU    100.27s WALL (       1 calls)

     Called by init_run:
     wfcinit      :    281.26s CPU    284.70s WALL (       1 calls)
     potinit      :     45.33s CPU     45.66s WALL (       1 calls)
     hinit0       :      1.13s CPU      1.16s WALL (       1 calls)

     Called by electrons:
     c_bands      :  10501.62s CPU  10594.38s WALL (      19 calls)
     sum_band     :   1431.79s CPU   1443.12s WALL (      19 calls)
     v_of_rho     :    122.78s CPU    126.66s WALL (      19 calls)
     newd         :     27.54s CPU     37.88s WALL (      19 calls)
     PAW_pot      :    125.78s CPU    125.79s WALL (      19 calls)
     mix_rho      :    520.13s CPU    520.76s WALL (      19 calls)
     vdW_kernel   :     33.51s CPU     33.52s WALL (       1 calls)

     Called by c_bands:
     init_us_2    :     70.22s CPU     70.43s WALL (     520 calls)
     cegterg      :   9750.08s CPU   9842.59s WALL (     247 calls)

     Called by *egterg:
     cdiaghg      :     81.50s CPU     81.51s WALL (    1409 calls)
     h_psi        :   6265.48s CPU   6297.87s WALL (    1435 calls)
     s_psi        :   1025.05s CPU   1025.11s WALL (    1435 calls)
     g_psi        :     15.67s CPU     15.67s WALL (    1175 calls)

     Called by h_psi:
     h_psi:calbec :    964.19s CPU    964.38s WALL (    1435 calls)
     vloc_psi     :   4251.67s CPU   4253.15s WALL (    1435 calls)
     add_vuspsi   :   1024.96s CPU   1025.07s WALL (    1435 calls)

     General routines
     calbec       :   1410.20s CPU   1410.42s WALL (    1734 calls)
     fft          :     46.93s CPU     46.94s WALL (    3159 calls)
     ffts         :    167.93s CPU    167.96s WALL (   11964 calls)
     fftw         :   4344.71s CPU   4345.63s WALL (  324560 calls)
 
     Parallel routines
 
     PWSCF        :      3h40m CPU      3h43m WALL

 
   This run was terminated on:  16:36:10  21Dec2022            

=------------------------------------------------------------------------------=
   JOB DONE.
=------------------------------------------------------------------------------=
