
     Program PWSCF v.6.7MaX starts on 20May2022 at 15:53:26 

     This program is part of the open-source Quantum ESPRESSO suite
     for quantum simulation of materials; please cite
         "P. Giannozzi et al., J. Phys.:Condens. Matter 21 395502 (2009);
         "P. Giannozzi et al., J. Phys.:Condens. Matter 29 465901 (2017);
          URL http://www.quantum-espresso.org", 
     in publications or presentations arising from this work. More details at
     http://www.quantum-espresso.org/quote

     Parallel version (MPI), running on     1 processors

     MPI processes distributed on     1 nodes
     Reading input from isoc3h5-ensemble.in
Warning: card &CELL ignored
Warning: card / ignored

     Current dimensions of program PWSCF are:
     Max number of different atomic species (ntypx) = 10
     Max number of k-points (npk) =  40000
     Max angular momentum in pseudopotentials (lmaxx) =  3
     file Pt.pbe-n-kjpaw_psl.1.0.0.UPF: wavefunction(s)  6S 5D renormalized
     file C.pbe-n-kjpaw_psl.1.0.0.UPF: wavefunction(s)  2S 2P renormalized
     file H.pbe-kjpaw_psl.1.0.0.UPF: wavefunction(s)  1S renormalized

     **************************************************************************
     Initializing libbeef V0.1.2 with the BEEF-vdW functional.
     Citation: Wellendorff et al., PRB 85, 235149 (2012).
     **************************************************************************


     IMPORTANT: XC functional enforced from input :
     Exchange-correlation= BEEF-VDW
                           (   1   4  43  14   2   0   0)
     Any further DFT definition will be discarded
     Please, verify this is what you really want


     Subspace diagonalization in iterative solution of the eigenvalue problem:
     a serial algorithm will be used

 
     G-vector sticks info
     --------------------
     sticks:   dense  smooth     PW     G-vecs:    dense   smooth      PW
     Sum        4267    4267   1159               724653   724653  102199
 


     bravais-lattice index     =            0
     lattice parameter (alat)  =      16.0349  a.u.
     unit-cell volume          =   11535.8745 (a.u.)^3
     number of atoms/cell      =           44
     number of atomic types    =            3
     number of electrons       =       377.00
     number of Kohn-Sham states=          227
     kinetic-energy cutoff     =      60.0000  Ry
     charge density cutoff     =     240.0000  Ry
     scf convergence threshold =      1.0E-06
     mixing beta               =       0.7000
     number of iterations used =            8  local-TF  mixing
     Exchange-correlation= BEEF-VDW
                           (   1   4  43  14   2   0   0)

     celldm(1)=  16.034858  celldm(2)=   0.000000  celldm(3)=   0.000000
     celldm(4)=   0.000000  celldm(5)=   0.000000  celldm(6)=   0.000000

     crystal axes: (cart. coord. in units of alat)
               a(1) = (   1.000000   0.000000   0.000000 )  
               a(2) = (   0.500000   0.866025   0.000000 )  
               a(3) = (   0.000000   0.000000   3.230908 )  

     reciprocal axes: (cart. coord. in units 2 pi/alat)
               b(1) = (  1.000000 -0.577350  0.000000 )  
               b(2) = (  0.000000  1.154701  0.000000 )  
               b(3) = (  0.000000  0.000000  0.309511 )  


     PseudoPot. # 1 for Pt read from file:
     /users/bkreitz1/quantum-espresso/potentials/Pt.pbe-n-kjpaw_psl.1.0.0.UPF
     MD5 check sum: 04dc8a03c51ece93fc7b5889c2958091
     Pseudo is Projector augmented-wave + core cor, Zval = 10.0
     Generated using 'atomic' code by A. Dal Corso  v.6.7MaX
     Shape of augmentation charge: PSQ
     Using radial grid of 1277 points,  6 beta functions with: 
                l(1) =   0
                l(2) =   0
                l(3) =   1
                l(4) =   1
                l(5) =   2
                l(6) =   2
     Q(r) pseudized with 0 coefficients 


     PseudoPot. # 2 for C  read from file:
     /users/bkreitz1/quantum-espresso/potentials/C.pbe-n-kjpaw_psl.1.0.0.UPF
     MD5 check sum: a169b0ebad56f5ec0d79c4633f80bf22
     Pseudo is Projector augmented-wave + core cor, Zval =  4.0
     Generated using 'atomic' code by A. Dal Corso  v.6.7MaX
     Shape of augmentation charge: PSQ
     Using radial grid of 1073 points,  4 beta functions with: 
                l(1) =   0
                l(2) =   0
                l(3) =   1
                l(4) =   1
     Q(r) pseudized with 0 coefficients 


     PseudoPot. # 3 for H  read from file:
     /users/bkreitz1/quantum-espresso/potentials/H.pbe-kjpaw_psl.1.0.0.UPF
     MD5 check sum: ae98473e6dc62675f0d0baffdab24f65
     Pseudo is Projector augmented-wave, Zval =  1.0
     Generated using 'atomic' code by A. Dal Corso  v.6.7MaX
     Shape of augmentation charge: PSQ
     Using radial grid of  929 points,  2 beta functions with: 
                l(1) =   0
                l(2) =   0
     Q(r) pseudized with 0 coefficients 


     atomic species   valence    mass     pseudopotential
        Pt            10.00   195.08400     Pt( 1.00)
        C              4.00    12.01100     C ( 1.00)
        H              1.00     1.00800     H ( 1.00)

     No symmetry found



   Cartesian axes

     site n.     atom                  positions (alat units)
         1           Pt  tau(   1) = (   0.0000000   0.0000000   1.0017346  )
         2           Pt  tau(   2) = (   0.3333333   0.0000000   1.0017346  )
         3           Pt  tau(   3) = (   0.6666667   0.0000000   1.0017346  )
         4           Pt  tau(   4) = (   0.1666667   0.2886751   1.0017346  )
         5           Pt  tau(   5) = (   0.5000000   0.2886751   1.0017346  )
         6           Pt  tau(   6) = (   0.8333333   0.2886751   1.0017346  )
         7           Pt  tau(   7) = (   0.3333333   0.5773503   1.0017346  )
         8           Pt  tau(   8) = (   0.6666667   0.5773503   1.0017346  )
         9           Pt  tau(   9) = (   1.0000000   0.5773503   1.0017346  )
        10           Pt  tau(  10) = (   0.1666667   0.0962250   1.2739001  )
        11           Pt  tau(  11) = (   0.5000000   0.0962250   1.2739001  )
        12           Pt  tau(  12) = (   0.8333333   0.0962250   1.2739001  )
        13           Pt  tau(  13) = (   0.3333333   0.3849002   1.2739001  )
        14           Pt  tau(  14) = (   0.6666667   0.3849002   1.2739001  )
        15           Pt  tau(  15) = (   1.0000000   0.3849002   1.2739001  )
        16           Pt  tau(  16) = (   0.5000000   0.6735753   1.2739001  )
        17           Pt  tau(  17) = (   0.8333333   0.6735753   1.2739001  )
        18           Pt  tau(  18) = (   1.1666667   0.6735753   1.2739001  )
        19           Pt  tau(  19) = (   0.0019116   0.1945316   1.5475365  )
        20           Pt  tau(  20) = (   0.3333545   0.1927433   1.5459009  )
        21           Pt  tau(  21) = (   0.6647727   0.1945409   1.5475501  )
        22           Pt  tau(  22) = (   0.1663005   0.4794125   1.5447744  )
        23           Pt  tau(  23) = (   0.5004027   0.4794200   1.5447578  )
        24           Pt  tau(  24) = (   0.8333391   0.4808141   1.5437515  )
        25           Pt  tau(  25) = (   0.3333579   0.7714568   1.5387097  )
        26           Pt  tau(  26) = (   0.6678591   0.7699342   1.5449236  )
        27           Pt  tau(  27) = (   0.9988396   0.7699281   1.5449139  )
        28           Pt  tau(  28) = (  -0.0013680  -0.0003839   1.8153789  )
        29           Pt  tau(  29) = (   0.3333974  -0.0077023   1.8272409  )
        30           Pt  tau(  30) = (   0.6681130  -0.0003795   1.8153575  )
        31           Pt  tau(  31) = (   0.1705122   0.2878088   1.8373176  )
        32           Pt  tau(  32) = (   0.4961992   0.2878953   1.8373386  )
        33           Pt  tau(  33) = (   0.8333683   0.2880850   1.8201292  )
        34           Pt  tau(  34) = (   0.3333705   0.5830087   1.8114009  )
        35           Pt  tau(  35) = (   0.6658683   0.5747234   1.8182606  )
        36           Pt  tau(  36) = (   1.0008687   0.5747085   1.8182592  )
        37           C   tau(  37) = (   0.3333476   0.2548218   2.0188857  )
        38           C   tau(  38) = (   0.3332106   0.3688130   2.1558102  )
        39           C   tau(  39) = (   0.3334930   0.0836819   2.0555084  )
        40           H   tau(  40) = (   0.2290447   0.3469016   2.2291730  )
        41           H   tau(  41) = (   0.4378398   0.3477915   2.2287689  )
        42           H   tau(  42) = (   0.3325654   0.4919451   2.1190742  )
        43           H   tau(  43) = (   0.2272939   0.0434412   2.1165887  )
        44           H   tau(  44) = (   0.4398143   0.0436077   2.1176657  )

     number of k points=    13  Marzari-Vanderbilt smearing, width (Ry)=  0.0200
                       cart. coord. in units 2pi/alat
        k(    1) = (   0.0000000   0.0000000   0.0000000), wk =   0.0800000
        k(    2) = (   0.0000000   0.2309401   0.0000000), wk =   0.1600000
        k(    3) = (   0.0000000   0.4618802   0.0000000), wk =   0.1600000
        k(    4) = (   0.2000000  -0.1154701   0.0000000), wk =   0.1600000
        k(    5) = (   0.2000000   0.1154701   0.0000000), wk =   0.1600000
        k(    6) = (   0.2000000   0.3464102   0.0000000), wk =   0.1600000
        k(    7) = (   0.2000000  -0.5773503   0.0000000), wk =   0.1600000
        k(    8) = (   0.2000000  -0.3464102   0.0000000), wk =   0.1600000
        k(    9) = (   0.4000000  -0.2309401   0.0000000), wk =   0.1600000
        k(   10) = (   0.4000000  -0.0000000   0.0000000), wk =   0.1600000
        k(   11) = (   0.4000000   0.2309401   0.0000000), wk =   0.1600000
        k(   12) = (   0.4000000  -0.6928203   0.0000000), wk =   0.1600000
        k(   13) = (   0.4000000  -0.4618802   0.0000000), wk =   0.1600000

     Dense  grid:   724653 G-vectors     FFT dimensions: (  80,  80, 256)

     Estimated max dynamical RAM per process >       8.82 GB

     Check: negative core charge=   -0.000002

     Initial potential from superposition of free atoms

     starting charge  376.99372, renormalised to  377.00000

     negative rho (up, down):  1.113E-02 0.000E+00


     %%%%%%%%%%%%%%%%%%%%%%%%%%%%%%%%%%%%%%%%%%%%%%%%%%%%%%%%%%%%%%%%%%%%%%%%
     %                                                                      %
     % You are using vdW-DF, which was implemented by the Thonhauser group. %
     % Please cite the following two papers that made this development      %
     % possible and the two reviews that describe the various versions:     %
     %                                                                      %
     %   T. Thonhauser et al., PRL 115, 136402 (2015).                      %
     %   T. Thonhauser et al., PRB 76, 125112 (2007).                       %
     %   K. Berland et al., Rep. Prog. Phys. 78, 066501 (2015).             %
     %   D.C. Langreth et al., J. Phys.: Condens. Matter 21, 084203 (2009). %
     %                                                                      %
     %                                                                      %
     % If you are calculating the stress with vdW-DF, please also cite:     %
     %                                                                      %
     %   R. Sabatini et al., J. Phys.: Condens. Matter 24, 424209 (2012).   %
     %                                                                      %
     %%%%%%%%%%%%%%%%%%%%%%%%%%%%%%%%%%%%%%%%%%%%%%%%%%%%%%%%%%%%%%%%%%%%%%%%


     Starting wfcs are  341 randomized atomic wfcs
     Checking if some PAW data can be deallocated... 

     total cpu time spent up to now is      336.1 secs

     Self-consistent Calculation

     iteration #  1     ecut=    60.00 Ry     beta= 0.70
     Davidson diagonalization with overlap
     ethr =  1.00E-02,  avg # of iterations =  2.5

     Threshold (ethr) on eigenvalues was too large:
     Diagonalizing with lowered threshold

     Davidson diagonalization with overlap
     ethr =  8.94E-04,  avg # of iterations =  2.2

     negative rho (up, down):  1.129E-02 0.000E+00

     total cpu time spent up to now is     1586.7 secs

     total energy              =  -27817.09046479 Ry
     estimated scf accuracy    <       3.66175502 Ry

     iteration #  2     ecut=    60.00 Ry     beta= 0.70
     Davidson diagonalization with overlap
     ethr =  9.71E-04,  avg # of iterations =  2.0

     negative rho (up, down):  9.144E-03 0.000E+00

     total cpu time spent up to now is     2179.4 secs

     total energy              =  -27817.25930725 Ry
     estimated scf accuracy    <       1.59578573 Ry

     iteration #  3     ecut=    60.00 Ry     beta= 0.70
     Davidson diagonalization with overlap
     ethr =  4.23E-04,  avg # of iterations =  5.4

     negative rho (up, down):  6.151E-03 0.000E+00

     total cpu time spent up to now is     2795.0 secs

     total energy              =  -27817.30796701 Ry
     estimated scf accuracy    <       0.67050443 Ry

     iteration #  4     ecut=    60.00 Ry     beta= 0.70
     Davidson diagonalization with overlap
     ethr =  1.78E-04,  avg # of iterations =  6.9

     negative rho (up, down):  4.530E-03 0.000E+00

     total cpu time spent up to now is     3463.5 secs

     total energy              =  -27817.36251347 Ry
     estimated scf accuracy    <       0.29756112 Ry

     iteration #  5     ecut=    60.00 Ry     beta= 0.70
     Davidson diagonalization with overlap
     ethr =  7.89E-05,  avg # of iterations =  8.0

     negative rho (up, down):  3.017E-03 0.000E+00

     total cpu time spent up to now is     4144.4 secs

     total energy              =  -27817.37694001 Ry
     estimated scf accuracy    <       0.05331155 Ry

     iteration #  6     ecut=    60.00 Ry     beta= 0.70
     Davidson diagonalization with overlap
     c_bands:  1 eigenvalues not converged
     c_bands:  1 eigenvalues not converged
     ethr =  1.41E-05,  avg # of iterations = 11.2

     negative rho (up, down):  2.507E-03 0.000E+00

     total cpu time spent up to now is     5075.9 secs

     total energy              =  -27817.38974126 Ry
     estimated scf accuracy    <       0.01081292 Ry

     iteration #  7     ecut=    60.00 Ry     beta= 0.70
     Davidson diagonalization with overlap
     c_bands:  1 eigenvalues not converged
     c_bands:  1 eigenvalues not converged
     c_bands:  2 eigenvalues not converged
     c_bands:  1 eigenvalues not converged
     ethr =  2.87E-06,  avg # of iterations = 13.8

     negative rho (up, down):  2.385E-03 0.000E+00

     total cpu time spent up to now is     5946.5 secs

     total energy              =  -27817.39177891 Ry
     estimated scf accuracy    <       0.00699323 Ry

     iteration #  8     ecut=    60.00 Ry     beta= 0.70
     Davidson diagonalization with overlap
     c_bands:  2 eigenvalues not converged
     ethr =  1.85E-06,  avg # of iterations =  8.8

     negative rho (up, down):  2.484E-03 0.000E+00

     total cpu time spent up to now is     6597.1 secs

     total energy              =  -27817.39222047 Ry
     estimated scf accuracy    <       0.00379502 Ry

     iteration #  9     ecut=    60.00 Ry     beta= 0.70
     Davidson diagonalization with overlap
     c_bands:  2 eigenvalues not converged
     c_bands:  1 eigenvalues not converged
     c_bands:  1 eigenvalues not converged
     ethr =  1.01E-06,  avg # of iterations =  6.8

     negative rho (up, down):  3.186E-03 0.000E+00

     total cpu time spent up to now is     7217.8 secs

     total energy              =  -27817.39252156 Ry
     estimated scf accuracy    <       0.00157189 Ry

     iteration # 10     ecut=    60.00 Ry     beta= 0.70
     Davidson diagonalization with overlap
     c_bands:  1 eigenvalues not converged
     c_bands:  1 eigenvalues not converged
     c_bands:  1 eigenvalues not converged
     c_bands:  1 eigenvalues not converged
     ethr =  4.17E-07,  avg # of iterations = 13.0

     negative rho (up, down):  3.857E-03 0.000E+00

     total cpu time spent up to now is     7919.2 secs

     total energy              =  -27817.39265518 Ry
     estimated scf accuracy    <       0.00100536 Ry

     iteration # 11     ecut=    60.00 Ry     beta= 0.70
     Davidson diagonalization with overlap
     ethr =  2.67E-07,  avg # of iterations =  2.2

     negative rho (up, down):  5.979E-03 0.000E+00

     total cpu time spent up to now is     8484.1 secs

     total energy              =  -27817.39272398 Ry
     estimated scf accuracy    <       0.00086201 Ry

     iteration # 12     ecut=    60.00 Ry     beta= 0.70
     Davidson diagonalization with overlap
     ethr =  2.29E-07,  avg # of iterations =  4.8

     negative rho (up, down):  7.572E-03 0.000E+00

     total cpu time spent up to now is     9083.9 secs

     total energy              =  -27817.39274362 Ry
     estimated scf accuracy    <       0.00053791 Ry

     iteration # 13     ecut=    60.00 Ry     beta= 0.70
     Davidson diagonalization with overlap
     ethr =  1.43E-07,  avg # of iterations =  1.2

     negative rho (up, down):  1.155E-02 0.000E+00

     total cpu time spent up to now is     9624.3 secs

     total energy              =  -27817.39271784 Ry
     estimated scf accuracy    <       0.00035003 Ry

     iteration # 14     ecut=    60.00 Ry     beta= 0.70
     Davidson diagonalization with overlap
     ethr =  9.28E-08,  avg # of iterations =  2.0

     negative rho (up, down):  1.175E-02 0.000E+00

     total cpu time spent up to now is    10206.7 secs

     total energy              =  -27817.39270770 Ry
     estimated scf accuracy    <       0.00029174 Ry

     iteration # 15     ecut=    60.00 Ry     beta= 0.70
     Davidson diagonalization with overlap
     ethr =  7.74E-08,  avg # of iterations =  1.8

     negative rho (up, down):  1.263E-02 0.000E+00

     total cpu time spent up to now is    10773.9 secs

     total energy              =  -27817.39270953 Ry
     estimated scf accuracy    <       0.00006593 Ry

     iteration # 16     ecut=    60.00 Ry     beta= 0.70
     Davidson diagonalization with overlap
     ethr =  1.75E-08,  avg # of iterations =  4.0

     negative rho (up, down):  1.260E-02 0.000E+00

     total cpu time spent up to now is    11431.1 secs

     total energy              =  -27817.39272613 Ry
     estimated scf accuracy    <       0.00001769 Ry

     iteration # 17     ecut=    60.00 Ry     beta= 0.70
     Davidson diagonalization with overlap
     ethr =  4.69E-09,  avg # of iterations =  4.0

     negative rho (up, down):  1.270E-02 0.000E+00

     total cpu time spent up to now is    12189.6 secs

     total energy              =  -27817.39273124 Ry
     estimated scf accuracy    <       0.00000402 Ry

     iteration # 18     ecut=    60.00 Ry     beta= 0.70
     Davidson diagonalization with overlap
     ethr =  1.07E-09,  avg # of iterations =  4.0

     negative rho (up, down):  1.265E-02 0.000E+00

     total cpu time spent up to now is    12933.0 secs

     total energy              =  -27817.39273256 Ry
     estimated scf accuracy    <       0.00000183 Ry

     iteration # 19     ecut=    60.00 Ry     beta= 0.70
     Davidson diagonalization with overlap
     ethr =  4.86E-10,  avg # of iterations =  2.3

     negative rho (up, down):  1.254E-02 0.000E+00

     total cpu time spent up to now is    13519.2 secs

     End of self-consistent calculation

          k = 0.0000 0.0000 0.0000 ( 90547 PWs)   bands (ev):

   -13.4356 -10.8557  -7.6837  -6.7724  -5.5635  -4.9831  -4.7797  -4.5508
    -4.3969  -4.3864  -4.3554  -4.3520  -4.3389  -4.3148  -4.2806  -4.1489
    -3.8493  -3.8255  -3.8080  -3.8019  -3.7883  -3.7783  -3.5110  -3.4160
    -3.3799  -3.3584  -3.3480  -3.3304  -3.2925  -3.1578  -3.1417  -3.1329
    -3.1101  -3.0956  -3.0869  -2.9933  -2.9497  -2.9266  -2.9225  -2.9133
    -2.8775  -2.8603  -2.8583  -2.8496  -2.8416  -2.8234  -2.7993  -2.4014
    -2.3365  -2.3337  -2.2952  -2.2927  -2.2699  -2.2546  -2.2331  -2.2106
    -2.1929  -2.0692  -2.0502  -2.0175  -1.9949  -1.9452  -1.6559  -1.5962
    -1.5547  -1.4858  -1.4727  -1.4662  -1.4207  -1.3797  -1.3390  -1.3279
    -1.2894  -1.2797  -1.2758  -1.2713  -1.2611  -1.2469  -1.2423  -1.2249
    -1.2213  -1.2041  -1.1895  -1.1704  -1.1493  -1.1421  -1.0869  -1.0697
    -1.0677  -1.0203  -0.9098  -0.8853  -0.8799  -0.8617  -0.8463  -0.8238
    -0.8153  -0.8108  -0.7773  -0.7459  -0.7412  -0.7045  -0.6831  -0.6747
    -0.6412  -0.6353  -0.6199  -0.6011  -0.5986  -0.5821  -0.4788  -0.4428
    -0.4139  -0.4138  -0.2904  -0.2647  -0.1812   0.0050   0.0122   0.0294
     0.0503   0.0554   0.0585   0.0613   0.1512   0.1536   0.1870   0.2101
     0.2334   0.2653   0.2919   0.3112   0.3432   0.3543   0.3793   0.3934
     0.4543   0.5120   0.5392   0.5465   0.5696   0.5801   0.7483   0.7541
     0.7725   0.7973   0.8024   0.8248   0.8469   0.8509   0.8850   1.0346
     1.0477   1.0518   1.1011   1.1050   1.1393   1.1646   1.1955   1.2011
     1.2192   1.2218   1.2395   1.2458   1.2533   1.2575   1.2784   1.2809
     1.2940   1.3245   1.3299   1.3573   1.3697   1.3764   1.4240   1.4258
     1.4711   1.4784   1.4790   1.5051   1.5127   1.5482   1.5650   1.5991
     1.5995   1.6134   1.6186   1.6249   1.6476   1.6668   1.6790   1.7204
     1.7410   1.7588   1.7592   1.8954   1.9092   2.0128   2.0231   2.0296
     2.0465   2.0502   2.0770   2.3615   2.4875   2.5914   2.8400   2.8998
     2.9506   2.9582   3.8392   4.1047   4.6327   5.1971   5.2189   5.2203
     5.6684   5.7500   6.0591   6.4871   6.6290   6.8476   6.8620   6.8712
     6.8964   6.9230   7.0046

          k = 0.0000 0.2309 0.0000 ( 90510 PWs)   bands (ev):

   -13.4354 -10.8560  -7.6826  -6.6267  -5.4267  -4.9809  -4.8829  -4.7185
    -4.5359  -4.4500  -4.4281  -4.2517  -4.1613  -4.1196  -4.1013  -4.0912
    -3.9337  -3.8870  -3.7561  -3.7325  -3.7319  -3.7081  -3.5066  -3.4437
    -3.3809  -3.3227  -3.3131  -3.2981  -3.2212  -3.2199  -3.1752  -3.1599
    -3.1330  -3.1167  -3.1142  -3.0279  -3.0070  -2.9722  -2.9205  -2.9168
    -2.8933  -2.8620  -2.7167  -2.7080  -2.6787  -2.6708  -2.6687  -2.4399
    -2.4280  -2.4193  -2.3791  -2.3596  -2.3431  -2.3110  -2.1987  -2.1367
    -2.1133  -2.0484  -2.0440  -2.0152  -1.9961  -1.9280  -1.7661  -1.7006
    -1.6838  -1.6199  -1.6160  -1.5787  -1.5554  -1.5107  -1.4940  -1.4427
    -1.4416  -1.4239  -1.3949  -1.3515  -1.3200  -1.3083  -1.2746  -1.2308
    -1.2270  -1.1796  -1.1485  -1.1220  -1.0969  -1.0894  -1.0554  -1.0483
    -1.0112  -0.9748  -0.9427  -0.9223  -0.9039  -0.8823  -0.8692  -0.8389
    -0.8351  -0.8066  -0.7952  -0.7513  -0.7290  -0.7220  -0.6987  -0.6929
    -0.6805  -0.6597  -0.6405  -0.6141  -0.5619  -0.5534  -0.5063  -0.4848
    -0.4481  -0.4196  -0.3985  -0.3728  -0.3537  -0.3503  -0.3195  -0.2729
    -0.2322  -0.0394  -0.0233  -0.0194   0.0288   0.0639   0.0872   0.0896
     0.1146   0.1963   0.2240   0.2563   0.3278   0.3374   0.3834   0.4049
     0.4559   0.4766   0.4898   0.5389   0.5653   0.5709   0.6197   0.6540
     0.6599   0.6901   0.6958   0.8073   0.8331   0.8439   0.8609   0.8845
     0.9113   0.9714   0.9839   1.0155   1.0563   1.0616   1.0979   1.1271
     1.1581   1.1859   1.1989   1.2355   1.2789   1.3056   1.3197   1.3731
     1.3949   1.4076   1.4326   1.4728   1.4865   1.5619   1.5641   1.5904
     1.5912   1.6418   1.6457   1.6767   1.6853   1.7087   1.7162   1.7339
     1.7743   1.7760   1.8911   1.9107   1.9171   1.9492   1.9510   1.9800
     1.9953   2.0095   2.0341   2.0394   2.0617   2.1635   2.1854   2.1870
     2.2774   2.3393   2.3469   2.3795   2.5815   2.6276   3.0460   3.2391
     3.4710   3.5882   3.9663   3.9790   4.5990   4.9586   5.1624   5.5411
     5.6963   5.7823   5.9599   5.9997   6.1290   6.6323   6.6513   6.6937
     6.7584   6.9712   7.0751

          k = 0.0000 0.4619 0.0000 ( 90508 PWs)   bands (ev):

   -13.4350 -10.8564  -7.6808  -6.2070  -5.5749  -5.0616  -4.9771  -4.6909
    -4.5094  -4.4849  -4.4704  -4.3069  -4.1279  -3.9828  -3.8718  -3.8100
    -3.7767  -3.7677  -3.6310  -3.6276  -3.5780  -3.5558  -3.5374  -3.4856
    -3.4388  -3.3969  -3.3796  -3.3724  -3.3376  -3.3286  -3.2889  -3.2530
    -3.2098  -3.1901  -2.9793  -2.9734  -2.9490  -2.9393  -2.9102  -2.9000
    -2.7175  -2.7122  -2.6882  -2.6761  -2.6538  -2.6464  -2.4961  -2.4709
    -2.3927  -2.3845  -2.3614  -2.3420  -2.3147  -2.2806  -2.2359  -2.2085
    -2.1911  -2.1704  -2.1004  -2.0359  -2.0175  -1.9768  -1.9350  -1.8683
    -1.8342  -1.7972  -1.7957  -1.7552  -1.6709  -1.6180  -1.5924  -1.5797
    -1.5363  -1.5165  -1.4758  -1.4603  -1.4510  -1.4035  -1.3655  -1.3229
    -1.2645  -1.2465  -1.2286  -1.1937  -1.1855  -1.1453  -1.1230  -1.1008
    -1.0815  -1.0800  -1.0581  -1.0347  -1.0286  -0.9975  -0.9518  -0.9421
    -0.9000  -0.8830  -0.8742  -0.8554  -0.8088  -0.7955  -0.7602  -0.7141
    -0.6986  -0.6649  -0.6337  -0.6178  -0.6048  -0.5707  -0.5045  -0.4544
    -0.4432  -0.3977  -0.3927  -0.3553  -0.3236  -0.2951  -0.2219  -0.1678
    -0.1236  -0.1142  -0.0739  -0.0516  -0.0210  -0.0084   0.0124   0.0470
     0.0625   0.0927   0.1091   0.1475   0.1544   0.1704   0.1806   0.2139
     0.2458   0.2961   0.3494   0.3528   0.3804   0.4767   0.4930   0.5609
     0.5866   0.6353   0.6669   0.7183   0.7688   0.8071   0.8378   0.8479
     0.8999   0.9229   0.9309   0.9728   1.0087   1.0260   1.0523   1.0967
     1.1288   1.1766   1.1914   1.2136   1.2531   1.2564   1.2814   1.3792
     1.4095   1.4668   1.4918   1.5173   1.5587   1.5766   1.6118   1.6168
     1.6667   1.7012   1.7641   1.7763   1.7969   1.7995   1.8758   1.8958
     1.9363   1.9372   1.9518   1.9638   1.9942   2.0231   2.1527   2.1771
     2.1904   2.2111   2.2199   2.3253   2.4394   2.4676   2.6481   2.8384
     2.9083   3.2351   3.2599   3.3946   3.5080   3.5255   3.7121   3.9514
     4.0108   4.2864   4.4808   4.5202   4.5440   4.6083   4.7843   4.9157
     5.0838   5.2103   5.2995   5.6100   5.8083   6.0357   6.3302   6.3575
     6.6888   6.8759   6.9336

          k = 0.2000-0.1155 0.0000 ( 90510 PWs)   bands (ev):

   -13.4354 -10.8558  -7.6792  -6.6286  -5.4331  -5.0133  -4.8517  -4.7030
    -4.5313  -4.4707  -4.4276  -4.2516  -4.1532  -4.1295  -4.0981  -4.0786
    -3.9194  -3.8795  -3.7733  -3.7378  -3.7323  -3.7110  -3.5268  -3.4203
    -3.3514  -3.3225  -3.2998  -3.2834  -3.2552  -3.2176  -3.1966  -3.1560
    -3.1224  -3.1138  -3.0834  -3.0232  -3.0168  -2.9740  -2.9410  -2.9248
    -2.8993  -2.8750  -2.7586  -2.7135  -2.6903  -2.6668  -2.6543  -2.4706
    -2.4466  -2.4082  -2.3711  -2.3467  -2.3233  -2.3140  -2.1794  -2.1508
    -2.0926  -2.0687  -2.0542  -2.0122  -1.9873  -1.9323  -1.7967  -1.7121
    -1.6665  -1.6259  -1.6195  -1.5710  -1.5476  -1.5091  -1.4885  -1.4401
    -1.4366  -1.4269  -1.3748  -1.3588  -1.3421  -1.2978  -1.2822  -1.2467
    -1.2042  -1.1784  -1.1475  -1.1300  -1.0988  -1.0873  -1.0639  -1.0464
    -1.0165  -0.9778  -0.9605  -0.9229  -0.9110  -0.8867  -0.8768  -0.8507
    -0.8403  -0.8147  -0.7809  -0.7465  -0.7444  -0.7142  -0.7023  -0.6877
    -0.6767  -0.6391  -0.6170  -0.5778  -0.5664  -0.5425  -0.4976  -0.4808
    -0.4509  -0.4200  -0.4018  -0.3627  -0.3608  -0.3471  -0.3338  -0.2681
    -0.1923  -0.0830  -0.0210   0.0053   0.0233   0.0643   0.0812   0.0839
     0.1231   0.2104   0.2466   0.2930   0.3202   0.3448   0.3889   0.4140
     0.4556   0.4822   0.4944   0.5298   0.5583   0.5731   0.6293   0.6514
     0.6777   0.6877   0.6973   0.7565   0.8555   0.8605   0.8702   0.9031
     0.9206   0.9377   0.9921   1.0129   1.0526   1.0680   1.0971   1.1443
     1.1544   1.1801   1.2067   1.2389   1.2761   1.3051   1.3280   1.3555
     1.3907   1.3996   1.4400   1.4747   1.4819   1.5483   1.5589   1.5754
     1.5992   1.6239   1.6463   1.6665   1.6873   1.7029   1.7143   1.7372
     1.7695   1.7729   1.8799   1.8906   1.9255   1.9364   1.9616   1.9745
     2.0016   2.0239   2.0284   2.0433   2.0668   2.1596   2.1730   2.1881
     2.2472   2.3264   2.3497   2.3693   2.5861   2.6915   2.9816   3.2786
     3.4774   3.5469   3.8240   4.1470   4.6266   4.8495   5.2600   5.5082
     5.6944   5.7414   5.9387   6.0170   6.2005   6.6048   6.6691   6.7261
     6.7643   6.9849   7.0722

          k = 0.2000 0.1155 0.0000 ( 90510 PWs)   bands (ev):

   -13.4354 -10.8558  -7.6792  -6.6286  -5.4331  -5.0131  -4.8518  -4.7036
    -4.5305  -4.4705  -4.4283  -4.2516  -4.1533  -4.1294  -4.0981  -4.0784
    -3.9195  -3.8795  -3.7734  -3.7378  -3.7324  -3.7110  -3.5267  -3.4205
    -3.3514  -3.3224  -3.2998  -3.2834  -3.2550  -3.2176  -3.1967  -3.1561
    -3.1224  -3.1138  -3.0834  -3.0231  -3.0168  -2.9739  -2.9410  -2.9248
    -2.8993  -2.8750  -2.7585  -2.7135  -2.6904  -2.6668  -2.6543  -2.4709
    -2.4466  -2.4081  -2.3711  -2.3467  -2.3230  -2.3139  -2.1793  -2.1506
    -2.0925  -2.0688  -2.0544  -2.0122  -1.9874  -1.9322  -1.7966  -1.7120
    -1.6665  -1.6257  -1.6195  -1.5709  -1.5477  -1.5092  -1.4885  -1.4401
    -1.4366  -1.4270  -1.3744  -1.3587  -1.3421  -1.2977  -1.2822  -1.2470
    -1.2045  -1.1784  -1.1476  -1.1301  -1.0988  -1.0873  -1.0638  -1.0467
    -1.0163  -0.9777  -0.9605  -0.9229  -0.9112  -0.8867  -0.8770  -0.8509
    -0.8400  -0.8147  -0.7810  -0.7464  -0.7446  -0.7143  -0.7024  -0.6877
    -0.6768  -0.6391  -0.6169  -0.5778  -0.5664  -0.5425  -0.4972  -0.4809
    -0.4509  -0.4200  -0.4019  -0.3629  -0.3607  -0.3472  -0.3339  -0.2675
    -0.1924  -0.0830  -0.0210   0.0053   0.0233   0.0643   0.0813   0.0839
     0.1235   0.2102   0.2467   0.2929   0.3199   0.3450   0.3889   0.4141
     0.4555   0.4822   0.4944   0.5297   0.5583   0.5728   0.6291   0.6513
     0.6776   0.6878   0.6974   0.7566   0.8553   0.8603   0.8702   0.9032
     0.9207   0.9378   0.9922   1.0129   1.0527   1.0682   1.0972   1.1441
     1.1544   1.1802   1.2067   1.2389   1.2762   1.3050   1.3281   1.3554
     1.3907   1.3996   1.4400   1.4748   1.4818   1.5482   1.5588   1.5754
     1.5992   1.6239   1.6463   1.6664   1.6874   1.7029   1.7143   1.7372
     1.7695   1.7728   1.8800   1.8906   1.9254   1.9363   1.9616   1.9745
     2.0017   2.0239   2.0284   2.0434   2.0668   2.1595   2.1731   2.1881
     2.2473   2.3262   2.3497   2.3694   2.5858   2.6915   2.9825   3.2777
     3.4780   3.5469   3.8242   4.1458   4.6270   4.8503   5.2595   5.5081
     5.6945   5.7414   5.9383   6.0172   6.2006   6.6051   6.6693   6.7261
     6.7641   6.9848   7.0717

          k = 0.2000 0.3464 0.0000 ( 90560 PWs)   bands (ev):

   -13.4351 -10.8561  -7.6779  -6.3448  -5.1888  -5.1642  -5.1204  -4.9269
    -4.6352  -4.4794  -4.0727  -4.0608  -4.0305  -4.0096  -3.9849  -3.9705
    -3.9431  -3.8786  -3.8514  -3.7880  -3.5437  -3.4920  -3.4762  -3.4526
    -3.4322  -3.3647  -3.3568  -3.3078  -3.2457  -3.2340  -3.2080  -3.1755
    -3.1201  -3.1130  -3.0715  -3.0625  -3.0331  -2.9832  -2.9685  -2.9410
    -2.9091  -2.8839  -2.8127  -2.5958  -2.5481  -2.5105  -2.4843  -2.4630
    -2.4463  -2.4179  -2.3907  -2.3602  -2.3487  -2.2665  -2.2259  -2.1859
    -2.1195  -2.0669  -2.0563  -2.0370  -1.9943  -1.9607  -1.9380  -1.8987
    -1.8031  -1.7462  -1.7241  -1.6844  -1.6413  -1.6115  -1.5991  -1.5694
    -1.5378  -1.5086  -1.4836  -1.4143  -1.3680  -1.3546  -1.3325  -1.3126
    -1.2882  -1.2459  -1.2360  -1.1864  -1.1715  -1.1459  -1.1129  -1.0693
    -1.0539  -1.0165  -1.0119  -0.9882  -0.9678  -0.9462  -0.9316  -0.9143
    -0.8729  -0.8644  -0.8111  -0.7807  -0.7649  -0.7485  -0.7164  -0.7105
    -0.6931  -0.6558  -0.6393  -0.6227  -0.6027  -0.5911  -0.5822  -0.5507
    -0.5292  -0.4813  -0.4595  -0.4433  -0.4230  -0.3407  -0.3082  -0.2725
    -0.2163  -0.1414  -0.1023  -0.0799  -0.0344   0.0131   0.0376   0.0653
     0.0951   0.1118   0.1253   0.1686   0.1978   0.2178   0.2416   0.2942
     0.3551   0.3869   0.4403   0.4658   0.4824   0.4984   0.5497   0.6018
     0.6165   0.6766   0.7049   0.7287   0.7617   0.7953   0.8137   0.8393
     0.8880   0.9224   0.9476   0.9666   1.0037   1.0266   1.0379   1.0554
     1.0602   1.0967   1.1222   1.1859   1.2484   1.2862   1.3214   1.3751
     1.4499   1.5190   1.5467   1.5783   1.6155   1.6532   1.6894   1.7060
     1.7361   1.7414   1.7816   1.7978   1.8070   1.8149   1.8456   1.8584
     1.8806   1.9295   1.9652   1.9813   1.9989   2.0256   2.0664   2.1263
     2.1646   2.2170   2.2557   2.2698   2.3080   2.3408   2.4386   2.4655
     2.6155   2.9736   3.0150   3.0995   3.3707   3.4415   3.5533   3.6036
     3.9011   4.0435   4.3272   4.4115   4.4890   4.5620   4.8914   5.2128
     5.4194   5.6735   5.8086   5.9576   6.0670   6.2645   6.3557   6.4054
     6.4339   6.5164   6.7835

          k = 0.2000-0.5774 0.0000 ( 90600 PWs)   bands (ev):

   -13.4349 -10.8564  -7.6771  -5.8310  -5.7942  -5.2406  -4.9549  -4.8443
    -4.6525  -4.4630  -4.3592  -4.0455  -4.0063  -3.8971  -3.8757  -3.7565
    -3.7465  -3.6657  -3.6375  -3.5914  -3.5360  -3.5254  -3.5095  -3.4937
    -3.4822  -3.4514  -3.4210  -3.3444  -3.3286  -3.2956  -3.2909  -3.2814
    -3.2568  -3.1726  -3.0665  -3.0254  -2.9641  -2.9405  -2.9137  -2.8913
    -2.8829  -2.8029  -2.7852  -2.7087  -2.6776  -2.5454  -2.4949  -2.4879
    -2.4609  -2.3680  -2.3171  -2.2985  -2.2140  -2.2076  -2.1730  -2.1388
    -2.0970  -2.0680  -2.0187  -2.0040  -1.9736  -1.9245  -1.9010  -1.8992
    -1.8638  -1.8496  -1.8225  -1.8090  -1.7704  -1.7160  -1.6942  -1.6356
    -1.6092  -1.5546  -1.5362  -1.5104  -1.4528  -1.4232  -1.3890  -1.3722
    -1.3456  -1.3197  -1.2954  -1.2916  -1.2642  -1.2364  -1.2107  -1.1741
    -1.1256  -1.0809  -1.0594  -1.0203  -1.0094  -0.9942  -0.9540  -0.9237
    -0.8577  -0.8149  -0.7978  -0.7723  -0.7646  -0.7430  -0.7126  -0.7057
    -0.6888  -0.6720  -0.6627  -0.6326  -0.6160  -0.6001  -0.5660  -0.5527
    -0.5424  -0.5349  -0.5209  -0.4834  -0.4751  -0.3182  -0.2971  -0.2170
    -0.1998  -0.1854  -0.1005  -0.0805  -0.0609  -0.0304  -0.0005   0.0148
     0.0408   0.0630   0.1156   0.1175   0.1578   0.1827   0.2105   0.2341
     0.3002   0.3351   0.3567   0.4338   0.4827   0.5161   0.5589   0.5752
     0.6302   0.6390   0.6775   0.6864   0.7256   0.7382   0.7745   0.7789
     0.8256   0.8365   0.8798   0.9285   0.9497   0.9563   0.9860   1.0155
     1.0591   1.1352   1.1746   1.2266   1.2696   1.3319   1.3902   1.4348
     1.4627   1.5261   1.5447   1.5581   1.6216   1.6626   1.7285   1.7292
     1.7353   1.7580   1.7874   1.8370   1.8450   1.9035   1.9226   1.9402
     1.9446   1.9674   1.9869   1.9963   2.0769   2.1364   2.1642   2.2020
     2.2161   2.2284   2.2566   2.2824   2.3715   2.4710   2.9400   3.1693
     3.3019   3.3764   3.3811   3.6041   3.7044   3.7794   3.7993   4.1023
     4.2461   4.3676   4.4385   4.6051   4.8439   4.9420   4.9704   5.0262
     5.1720   5.2221   5.3013   5.4305   5.5723   5.7526   5.9524   6.1976
     6.3876   6.4764   6.5376

          k = 0.2000-0.3464 0.0000 ( 90560 PWs)   bands (ev):

   -13.4351 -10.8561  -7.6779  -6.3448  -5.1885  -5.1647  -5.1205  -4.9267
    -4.6350  -4.4793  -4.0727  -4.0607  -4.0305  -4.0098  -3.9850  -3.9705
    -3.9431  -3.8786  -3.8514  -3.7879  -3.5435  -3.4921  -3.4762  -3.4526
    -3.4320  -3.3648  -3.3569  -3.3077  -3.2457  -3.2340  -3.2080  -3.1755
    -3.1201  -3.1131  -3.0716  -3.0625  -3.0331  -2.9832  -2.9685  -2.9410
    -2.9092  -2.8839  -2.8125  -2.5959  -2.5480  -2.5105  -2.4843  -2.4630
    -2.4461  -2.4180  -2.3907  -2.3602  -2.3488  -2.2672  -2.2261  -2.1860
    -2.1195  -2.0670  -2.0564  -2.0367  -1.9944  -1.9607  -1.9379  -1.8986
    -1.8033  -1.7463  -1.7241  -1.6846  -1.6413  -1.6115  -1.5992  -1.5693
    -1.5379  -1.5088  -1.4837  -1.4140  -1.3681  -1.3545  -1.3325  -1.3126
    -1.2884  -1.2457  -1.2362  -1.1863  -1.1715  -1.1452  -1.1129  -1.0693
    -1.0539  -1.0166  -1.0118  -0.9882  -0.9678  -0.9462  -0.9316  -0.9143
    -0.8730  -0.8641  -0.8113  -0.7806  -0.7648  -0.7485  -0.7165  -0.7104
    -0.6931  -0.6557  -0.6392  -0.6227  -0.6026  -0.5911  -0.5821  -0.5507
    -0.5289  -0.4816  -0.4598  -0.4436  -0.4229  -0.3408  -0.3081  -0.2725
    -0.2161  -0.1418  -0.1019  -0.0799  -0.0345   0.0131   0.0377   0.0657
     0.0952   0.1116   0.1251   0.1687   0.1979   0.2178   0.2415   0.2944
     0.3551   0.3868   0.4404   0.4658   0.4823   0.4984   0.5496   0.6020
     0.6166   0.6767   0.7050   0.7288   0.7617   0.7954   0.8136   0.8392
     0.8879   0.9224   0.9477   0.9664   1.0037   1.0267   1.0378   1.0553
     1.0601   1.0966   1.1221   1.1857   1.2484   1.2864   1.3214   1.3752
     1.4497   1.5190   1.5468   1.5783   1.6155   1.6532   1.6894   1.7060
     1.7362   1.7414   1.7816   1.7978   1.8070   1.8149   1.8455   1.8584
     1.8805   1.9295   1.9653   1.9814   1.9989   2.0256   2.0664   2.1261
     2.1644   2.2170   2.2555   2.2697   2.3079   2.3408   2.4386   2.4657
     2.6157   2.9737   3.0151   3.1008   3.3705   3.4393   3.5532   3.6038
     3.9014   4.0439   4.3273   4.4119   4.4890   4.5621   4.8915   5.2121
     5.4193   5.6735   5.8087   5.9579   6.0671   6.2646   6.3560   6.4054
     6.4338   6.5165   6.7829

          k = 0.4000-0.2309 0.0000 ( 90508 PWs)   bands (ev):

   -13.4351 -10.8559  -7.6722  -6.2129  -5.5891  -5.1063  -4.9486  -4.6519
    -4.5309  -4.4968  -4.4542  -4.2836  -4.1170  -3.9816  -3.8685  -3.8000
    -3.7851  -3.7663  -3.6473  -3.6180  -3.5835  -3.5634  -3.5500  -3.4802
    -3.4358  -3.3874  -3.3789  -3.3416  -3.3330  -3.3194  -3.2590  -3.2126
    -3.2013  -3.1820  -3.0656  -2.9763  -2.9425  -2.9383  -2.9274  -2.9097
    -2.7902  -2.7141  -2.7060  -2.6822  -2.6752  -2.6411  -2.5675  -2.4783
    -2.4147  -2.3962  -2.3478  -2.3347  -2.3157  -2.2684  -2.2404  -2.2164
    -2.1956  -2.1753  -2.0777  -2.0318  -2.0105  -1.9795  -1.9360  -1.8762
    -1.8468  -1.8111  -1.8015  -1.7270  -1.6494  -1.6245  -1.5854  -1.5752
    -1.5261  -1.5082  -1.4719  -1.4574  -1.4150  -1.3946  -1.3510  -1.3257
    -1.2837  -1.2639  -1.2242  -1.1954  -1.1742  -1.1550  -1.1269  -1.1088
    -1.0848  -1.0686  -1.0585  -1.0345  -1.0224  -1.0007  -0.9741  -0.9409
    -0.9006  -0.8856  -0.8784  -0.8647  -0.8172  -0.7828  -0.7560  -0.7139
    -0.6825  -0.6669  -0.6449  -0.6260  -0.5928  -0.5381  -0.5001  -0.4767
    -0.4402  -0.3984  -0.3646  -0.3380  -0.3188  -0.2601  -0.2169  -0.1851
    -0.1178  -0.0995  -0.0746  -0.0572  -0.0156   0.0078   0.0245   0.0594
     0.0832   0.0919   0.1052   0.1127   0.1662   0.1852   0.1929   0.2360
     0.2737   0.3144   0.3497   0.3720   0.4007   0.4289   0.4995   0.5593
     0.5889   0.6157   0.6765   0.7429   0.7518   0.8239   0.8386   0.8598
     0.8886   0.9293   0.9433   0.9694   1.0057   1.0432   1.0531   1.0977
     1.1372   1.1882   1.1994   1.2062   1.2226   1.2608   1.3246   1.3670
     1.4155   1.4711   1.4843   1.5047   1.5482   1.5775   1.6075   1.6242
     1.6621   1.7075   1.7292   1.7748   1.7887   1.8031   1.8646   1.9016
     1.9256   1.9419   1.9548   1.9611   1.9895   2.0236   2.1606   2.1706
     2.1849   2.2137   2.2215   2.3141   2.4388   2.4585   2.6460   2.7223
     2.9044   3.2208   3.2598   3.3433   3.4817   3.5731   3.7945   3.8580
     4.0246   4.2837   4.4831   4.4899   4.5549   4.6432   4.7626   4.8642
     5.0789   5.1596   5.4084   5.5791   5.8054   6.1259   6.2998   6.4299
     6.6209   6.8750   6.9687

          k = 0.4000-0.0000 0.0000 ( 90560 PWs)   bands (ev):

   -13.4352 -10.8558  -7.6725  -6.3495  -5.2110  -5.1570  -5.1392  -4.9008
    -4.6208  -4.4888  -4.0669  -4.0453  -4.0285  -4.0040  -3.9899  -3.9812
    -3.9303  -3.8789  -3.8518  -3.7910  -3.5516  -3.5033  -3.4754  -3.4524
    -3.4182  -3.3757  -3.3719  -3.2441  -3.2418  -3.2370  -3.1944  -3.1610
    -3.1352  -3.0970  -3.0729  -3.0639  -3.0199  -2.9883  -2.9641  -2.9286
    -2.9153  -2.9114  -2.8212  -2.7157  -2.5772  -2.5283  -2.5045  -2.4838
    -2.4357  -2.4172  -2.4067  -2.3566  -2.3294  -2.2715  -2.1976  -2.1894
    -2.1136  -2.0940  -2.0581  -2.0083  -1.9859  -1.9676  -1.9410  -1.9017
    -1.7780  -1.7570  -1.7343  -1.6778  -1.6517  -1.6054  -1.5747  -1.5409
    -1.5321  -1.5131  -1.4787  -1.4524  -1.3718  -1.3531  -1.3299  -1.3224
    -1.2961  -1.2425  -1.2259  -1.1849  -1.1589  -1.1195  -1.0987  -1.0932
    -1.0636  -1.0395  -0.9976  -0.9848  -0.9765  -0.9444  -0.9234  -0.8953
    -0.8582  -0.8493  -0.8115  -0.7828  -0.7705  -0.7485  -0.7309  -0.7137
    -0.6808  -0.6626  -0.6396  -0.6199  -0.6069  -0.5993  -0.5682  -0.5506
    -0.5273  -0.4828  -0.4640  -0.4265  -0.3816  -0.3365  -0.3061  -0.2775
    -0.2204  -0.1764  -0.0964  -0.0701  -0.0326   0.0300   0.0378   0.0792
     0.1086   0.1117   0.1366   0.1513   0.1966   0.2396   0.2827   0.3029
     0.3379   0.3871   0.4423   0.4780   0.4958   0.5085   0.5443   0.5912
     0.6097   0.6374   0.7036   0.7327   0.7619   0.7828   0.8056   0.8503
     0.8958   0.9276   0.9569   0.9726   1.0065   1.0100   1.0452   1.0516
     1.0678   1.1040   1.1529   1.1795   1.2565   1.2689   1.3072   1.3649
     1.4741   1.5057   1.5291   1.5817   1.6126   1.6453   1.6956   1.7128
     1.7373   1.7407   1.7702   1.7953   1.8099   1.8131   1.8457   1.8601
     1.8802   1.9282   1.9588   1.9833   1.9990   2.0239   2.0690   2.1376
     2.1610   2.2251   2.2591   2.2668   2.3197   2.3465   2.4477   2.4593
     2.5672   2.9374   3.0066   3.1210   3.3573   3.4308   3.5454   3.5816
     3.8212   4.0702   4.3068   4.4260   4.4633   4.6715   4.8317   5.1482
     5.4848   5.6791   5.8300   5.9332   6.1408   6.2632   6.3295   6.3980
     6.4713   6.5977   6.7208

          k = 0.4000 0.2309 0.0000 ( 90508 PWs)   bands (ev):

   -13.4351 -10.8559  -7.6722  -6.2129  -5.5891  -5.1060  -4.9484  -4.6529
    -4.5307  -4.4961  -4.4551  -4.2834  -4.1168  -3.9816  -3.8685  -3.8001
    -3.7852  -3.7663  -3.6474  -3.6181  -3.5834  -3.5634  -3.5500  -3.4804
    -3.4357  -3.3874  -3.3788  -3.3416  -3.3329  -3.3195  -3.2589  -3.2126
    -3.2013  -3.1820  -3.0655  -2.9763  -2.9424  -2.9383  -2.9274  -2.9096
    -2.7902  -2.7141  -2.7060  -2.6822  -2.6751  -2.6411  -2.5679  -2.4783
    -2.4145  -2.3962  -2.3478  -2.3344  -2.3156  -2.2684  -2.2403  -2.2164
    -2.1955  -2.1752  -2.0777  -2.0318  -2.0104  -1.9794  -1.9360  -1.8761
    -1.8468  -1.8110  -1.8014  -1.7270  -1.6489  -1.6243  -1.5853  -1.5752
    -1.5262  -1.5085  -1.4720  -1.4571  -1.4152  -1.3947  -1.3511  -1.3260
    -1.2841  -1.2639  -1.2244  -1.1955  -1.1740  -1.1549  -1.1271  -1.1088
    -1.0849  -1.0685  -1.0584  -1.0345  -1.0223  -1.0010  -0.9742  -0.9411
    -0.9008  -0.8855  -0.8783  -0.8647  -0.8172  -0.7826  -0.7558  -0.7140
    -0.6826  -0.6670  -0.6450  -0.6261  -0.5929  -0.5382  -0.5002  -0.4769
    -0.4403  -0.3984  -0.3646  -0.3379  -0.3190  -0.2599  -0.2167  -0.1850
    -0.1177  -0.0995  -0.0746  -0.0572  -0.0156   0.0079   0.0247   0.0596
     0.0833   0.0918   0.1052   0.1127   0.1661   0.1851   0.1929   0.2361
     0.2734   0.3146   0.3496   0.3717   0.4008   0.4288   0.4992   0.5591
     0.5888   0.6159   0.6765   0.7431   0.7518   0.8239   0.8386   0.8597
     0.8885   0.9293   0.9434   0.9696   1.0058   1.0433   1.0531   1.0977
     1.1372   1.1882   1.1993   1.2061   1.2226   1.2610   1.3244   1.3669
     1.4156   1.4711   1.4843   1.5048   1.5480   1.5777   1.6075   1.6243
     1.6620   1.7075   1.7294   1.7747   1.7886   1.8031   1.8647   1.9016
     1.9257   1.9419   1.9547   1.9611   1.9896   2.0237   2.1607   2.1706
     2.1849   2.2138   2.2215   2.3141   2.4388   2.4583   2.6460   2.7224
     2.9047   3.2208   3.2599   3.3438   3.4812   3.5727   3.7931   3.8588
     4.0247   4.2844   4.4831   4.4900   4.5549   4.6433   4.7626   4.8643
     5.0788   5.1596   5.4076   5.5793   5.8053   6.1259   6.2996   6.4300
     6.6209   6.8750   6.9687

          k = 0.4000-0.6928 0.0000 ( 90600 PWs)   bands (ev):

   -13.4350 -10.8560  -7.6718  -5.8292  -5.8122  -5.2182  -4.9894  -4.8682
    -4.5918  -4.4752  -4.3450  -4.0309  -4.0224  -3.8981  -3.8686  -3.7635
    -3.7506  -3.6635  -3.6354  -3.5807  -3.5552  -3.5333  -3.5081  -3.4914
    -3.4696  -3.4510  -3.4021  -3.3525  -3.3240  -3.3116  -3.2827  -3.2674
    -3.2071  -3.1264  -3.0686  -3.0555  -3.0103  -2.9626  -2.9161  -2.9029
    -2.8776  -2.8505  -2.7947  -2.7030  -2.6827  -2.5867  -2.5060  -2.4829
    -2.4338  -2.3958  -2.3287  -2.3017  -2.2295  -2.2106  -2.1560  -2.1302
    -2.0984  -2.0750  -2.0347  -2.0138  -1.9773  -1.9309  -1.8978  -1.8818
    -1.8611  -1.8475  -1.8251  -1.8087  -1.7624  -1.7386  -1.6797  -1.6398
    -1.6019  -1.5588  -1.5258  -1.4707  -1.4452  -1.4222  -1.4034  -1.3721
    -1.3520  -1.3208  -1.2994  -1.2849  -1.2369  -1.2208  -1.1830  -1.1768
    -1.1424  -1.1062  -1.0281  -1.0190  -0.9996  -0.9939  -0.9761  -0.8875
    -0.8578  -0.8214  -0.8068  -0.7883  -0.7632  -0.7394  -0.7240  -0.7017
    -0.6956  -0.6758  -0.6632  -0.6410  -0.6146  -0.5821  -0.5699  -0.5608
    -0.5442  -0.5357  -0.5140  -0.4675  -0.4232  -0.3651  -0.2950  -0.2287
    -0.1961  -0.1728  -0.1079  -0.0793  -0.0686  -0.0232  -0.0091   0.0211
     0.0365   0.0652   0.1128   0.1277   0.1619   0.1823   0.2167   0.2563
     0.3055   0.3392   0.3929   0.4292   0.4864   0.5080   0.5725   0.5968
     0.6140   0.6390   0.6688   0.6996   0.7352   0.7586   0.7793   0.7851
     0.8054   0.8500   0.8795   0.9277   0.9513   0.9620   0.9952   1.0219
     1.0511   1.1251   1.1510   1.2444   1.2799   1.3192   1.3949   1.4339
     1.4593   1.4975   1.5313   1.5587   1.6314   1.6516   1.7131   1.7335
     1.7464   1.7687   1.7925   1.8138   1.8383   1.9085   1.9222   1.9362
     1.9568   1.9666   1.9855   1.9926   2.0766   2.1242   2.1660   2.2023
     2.2180   2.2293   2.2648   2.2827   2.3890   2.4935   2.9590   3.0220
     3.2641   3.3747   3.4200   3.6248   3.7092   3.7374   3.8483   4.0043
     4.3070   4.3948   4.4369   4.5394   4.8486   4.9246   4.9606   5.0398
     5.1535   5.2491   5.2834   5.4219   5.7087   5.7547   5.8306   6.2322
     6.4091   6.4659   6.5818

          k = 0.4000-0.4619 0.0000 ( 90600 PWs)   bands (ev):

   -13.4350 -10.8561  -7.6718  -5.8291  -5.8124  -5.2182  -4.9893  -4.8691
    -4.5895  -4.4769  -4.3447  -4.0309  -4.0224  -3.8982  -3.8686  -3.7635
    -3.7505  -3.6635  -3.6353  -3.5804  -3.5553  -3.5333  -3.5081  -3.4913
    -3.4697  -3.4509  -3.4025  -3.3525  -3.3240  -3.3116  -3.2827  -3.2675
    -3.2070  -3.1263  -3.0686  -3.0556  -3.0102  -2.9626  -2.9160  -2.9029
    -2.8777  -2.8505  -2.7947  -2.7031  -2.6827  -2.5864  -2.5060  -2.4829
    -2.4339  -2.3960  -2.3287  -2.3016  -2.2299  -2.2105  -2.1559  -2.1302
    -2.0984  -2.0748  -2.0348  -2.0139  -1.9773  -1.9310  -1.8978  -1.8817
    -1.8615  -1.8475  -1.8252  -1.8086  -1.7624  -1.7387  -1.6801  -1.6399
    -1.6019  -1.5589  -1.5256  -1.4705  -1.4452  -1.4222  -1.4033  -1.3720
    -1.3520  -1.3206  -1.2993  -1.2851  -1.2370  -1.2208  -1.1828  -1.1768
    -1.1425  -1.1060  -1.0281  -1.0191  -0.9995  -0.9938  -0.9762  -0.8872
    -0.8578  -0.8214  -0.8068  -0.7884  -0.7634  -0.7394  -0.7239  -0.7016
    -0.6954  -0.6757  -0.6633  -0.6409  -0.6145  -0.5823  -0.5699  -0.5609
    -0.5442  -0.5356  -0.5141  -0.4672  -0.4229  -0.3653  -0.2949  -0.2286
    -0.1962  -0.1728  -0.1081  -0.0793  -0.0687  -0.0232  -0.0092   0.0211
     0.0366   0.0650   0.1128   0.1276   0.1620   0.1822   0.2166   0.2563
     0.3054   0.3392   0.3928   0.4293   0.4865   0.5080   0.5724   0.5971
     0.6140   0.6389   0.6688   0.6996   0.7350   0.7585   0.7792   0.7852
     0.8054   0.8500   0.8795   0.9278   0.9511   0.9620   0.9953   1.0219
     1.0513   1.1254   1.1511   1.2442   1.2798   1.3193   1.3947   1.4339
     1.4592   1.4975   1.5312   1.5587   1.6315   1.6515   1.7131   1.7336
     1.7464   1.7686   1.7925   1.8137   1.8383   1.9084   1.9222   1.9362
     1.9569   1.9666   1.9855   1.9927   2.0766   2.1242   2.1660   2.2022
     2.2179   2.2292   2.2646   2.2827   2.3890   2.4935   2.9586   3.0218
     3.2651   3.3747   3.4202   3.6246   3.7091   3.7376   3.8486   4.0031
     4.3071   4.3948   4.4371   4.5400   4.8483   4.9246   4.9606   5.0395
     5.1532   5.2491   5.2835   5.4221   5.7083   5.7553   5.8307   6.2326
     6.4092   6.4660   6.5822

     the Fermi energy is     1.9961 ev

!    total energy              =  -27817.39273262 Ry

     total all-electron energy =  -1326877.450423 Ry
     estimated scf accuracy    <       0.00000068 Ry
     smearing contrib. (-TS)   =       0.00200867 Ry
     internal energy E=F+TS    =  -27817.39474129 Ry

     The total energy is F=E-TS. E is the sum of the following terms:
     one-electron contribution =  -28038.84399149 Ry
     hartree contribution      =   14325.29811209 Ry
     xc contribution           =    -908.23907830 Ry
     ewald contribution        =   12297.99894050 Ry
     one-center paw contrib.   =  -25493.60872409 Ry

     convergence has been achieved in  19 iterations

     negative rho (up, down):  1.254E-02 0.000E+00

     Forces acting on atoms (cartesian axes, Ry/au):

     atom    1 type  1   force =     0.00176577    0.00001737   -0.00482907
     atom    2 type  1   force =    -0.00006107   -0.00027425   -0.00444590
     atom    3 type  1   force =    -0.00182465    0.00004058   -0.00484526
     atom    4 type  1   force =     0.00002196    0.00018233   -0.00356766
     atom    5 type  1   force =    -0.00008978    0.00019638   -0.00354768
     atom    6 type  1   force =    -0.00004016   -0.00073223   -0.00263783
     atom    7 type  1   force =    -0.00002384   -0.00144572   -0.00568809
     atom    8 type  1   force =    -0.00056229    0.00035714   -0.00365872
     atom    9 type  1   force =     0.00046972    0.00033830   -0.00367469
     atom   10 type  1   force =    -0.00219750    0.00018379    0.00789763
     atom   11 type  1   force =     0.00213825    0.00022183    0.00789863
     atom   12 type  1   force =    -0.00003932    0.00194177   -0.00227788
     atom   13 type  1   force =    -0.00001370    0.00163808    0.00537790
     atom   14 type  1   force =    -0.00036764   -0.00147699    0.00886772
     atom   15 type  1   force =     0.00028937   -0.00147414    0.00888212
     atom   16 type  1   force =    -0.00023485   -0.00055364   -0.00404400
     atom   17 type  1   force =    -0.00005718    0.00070749    0.00780303
     atom   18 type  1   force =     0.00019992   -0.00055708   -0.00405161
     atom   19 type  1   force =     0.00005165   -0.00007362   -0.00000702
     atom   20 type  1   force =    -0.00004504   -0.00012609   -0.00012844
     atom   21 type  1   force =    -0.00012430   -0.00008953   -0.00003947
     atom   22 type  1   force =    -0.00005095   -0.00002651    0.00001692
     atom   23 type  1   force =    -0.00003572   -0.00004254    0.00003478
     atom   24 type  1   force =    -0.00002937    0.00005592    0.00009826
     atom   25 type  1   force =    -0.00006504   -0.00004665    0.00000227
     atom   26 type  1   force =    -0.00003712    0.00001702   -0.00005640
     atom   27 type  1   force =     0.00001228    0.00000507   -0.00011635
     atom   28 type  1   force =    -0.00006978    0.00006536    0.00017126
     atom   29 type  1   force =     0.00022378    0.00010261    0.00117675
     atom   30 type  1   force =    -0.00002207    0.00007847    0.00019413
     atom   31 type  1   force =    -0.00011421   -0.00004211   -0.00057344
     atom   32 type  1   force =     0.00007913   -0.00006759   -0.00058573
     atom   33 type  1   force =    -0.00005408    0.00012752   -0.00003089
     atom   34 type  1   force =    -0.00003283   -0.00004710    0.00001363
     atom   35 type  1   force =    -0.00005796   -0.00012106    0.00002524
     atom   36 type  1   force =    -0.00002355   -0.00008988    0.00002399
     atom   37 type  2   force =     0.00012494    0.00101718    0.00026820
     atom   38 type  2   force =     0.00046245   -0.00051090   -0.00053015
     atom   39 type  2   force =     0.00483894   -0.00094012    0.00497196
     atom   40 type  3   force =     0.00021735   -0.00004722   -0.00013710
     atom   41 type  3   force =    -0.00027723   -0.00004390   -0.00016871
     atom   42 type  3   force =     0.00008953   -0.00031313   -0.00011541
     atom   43 type  3   force =    -0.00019048    0.00011969   -0.00037761
     atom   44 type  3   force =    -0.00424335    0.00172812   -0.00358931

     Total force =     0.009362     Total SCF correction =     0.001486
     SCF correction compared to forces is large: reduce conv_thr to get better values

     negative rho (up, down):  1.254E-02 0.000E+00

     negative rho (up, down):  1.254E-02 0.000E+00

     negative rho (up, down):  1.254E-02 0.000E+00

     negative rho (up, down):  1.254E-02 0.000E+00

     negative rho (up, down):  1.254E-02 0.000E+00

     negative rho (up, down):  1.254E-02 0.000E+00

     negative rho (up, down):  1.254E-02 0.000E+00

     negative rho (up, down):  1.254E-02 0.000E+00

     negative rho (up, down):  1.254E-02 0.000E+00

     negative rho (up, down):  1.254E-02 0.000E+00

     negative rho (up, down):  1.254E-02 0.000E+00

     negative rho (up, down):  1.254E-02 0.000E+00

     negative rho (up, down):  1.254E-02 0.000E+00

     negative rho (up, down):  1.254E-02 0.000E+00

     negative rho (up, down):  1.254E-02 0.000E+00

     negative rho (up, down):  1.254E-02 0.000E+00

     negative rho (up, down):  1.254E-02 0.000E+00

     negative rho (up, down):  1.254E-02 0.000E+00

     negative rho (up, down):  1.254E-02 0.000E+00

     negative rho (up, down):  1.254E-02 0.000E+00

     negative rho (up, down):  1.254E-02 0.000E+00

     negative rho (up, down):  1.254E-02 0.000E+00

     negative rho (up, down):  1.254E-02 0.000E+00

     negative rho (up, down):  1.254E-02 0.000E+00

     negative rho (up, down):  1.254E-02 0.000E+00

     negative rho (up, down):  1.254E-02 0.000E+00

     negative rho (up, down):  1.254E-02 0.000E+00

     negative rho (up, down):  1.254E-02 0.000E+00

     negative rho (up, down):  1.254E-02 0.000E+00

     negative rho (up, down):  1.254E-02 0.000E+00

     negative rho (up, down):  1.254E-02 0.000E+00

     negative rho (up, down):  1.254E-02 0.000E+00

     negative rho (up, down):  1.254E-02 0.000E+00

     negative rho (up, down):  1.254E-02 0.000E+00
 BEEFens 2000 ensemble energies
             -0.608150483588361E+02
             -0.362111763445515E+01
             -0.158598688087725E+02
              0.430349303128523E+02
             -0.221558268360554E+02
             -0.205537969429299E+02
             -0.353271785363397E+02
             -0.867013453786653E+02
             -0.465499443810886E+02
             -0.473230850285941E+02
             -0.370082847990759E+02
              0.228955979051353E+01
              0.408517773644687E+01
              0.759704761090183E+01
              0.266704621959363E+01
              0.475885311171971E+02
             -0.209103503564689E+02
             -0.230195302284319E+02
              0.193654811822030E+02
             -0.112596546167557E+03
              0.537429370708402E+02
             -0.290140493771692E+02
             -0.336291902339513E+01
             -0.114192101853657E+02
             -0.881598801320729E+01
             -0.463165257617825E+01
              0.884427002973802E+02
             -0.187829935174250E+02
             -0.901118912346783E+01
             -0.519623658341066E+02
              0.816609645539595E+02
             -0.187138498091396E+02
             -0.375839796783002E+02
              0.249426081468774E+02
             -0.284972480338973E+01
              0.164911193193567E+02
             -0.483783815841571E+01
              0.107906710095084E+02
              0.289418039368376E+02
             -0.103450536673260E+03
              0.559521968934493E+02
              0.142640129284370E+02
             -0.176101777474787E+01
             -0.361986740306305E+02
              0.123475222444804E+02
             -0.147253828260162E+02
              0.399567303607547E+02
              0.365402288304944E+02
             -0.308267501126510E+02
             -0.275790784873586E+02
             -0.329200928835776E+02
             -0.352928610652105E+02
              0.137006482464922E+02
             -0.491889670070165E+02
              0.115969850238183E+02
              0.624256935504145E+02
              0.637016439777085E+02
              0.356407464357860E+02
              0.154284989063544E+02
              0.271301305642476E+02
              0.893274340772334E+02
              0.212758336191479E+02
             -0.549604091724329E+02
             -0.157115228378493E+02
             -0.236594570987279E+02
              0.631057767907600E+02
             -0.774579349169935E+02
             -0.672944264509417E+02
             -0.260346651434072E+02
             -0.653060630375944E+01
             -0.471372441196639E+02
              0.271236396839479E+02
              0.803732763281619E+01
              0.871033669214285E+01
             -0.398017712587373E+02
             -0.347612387711879E+02
             -0.543156812482837E+02
              0.390870003997032E+02
             -0.296774647635940E+02
              0.266004711978868E+02
             -0.717913984524495E+01
             -0.318498645836586E+02
             -0.577015706916654E+02
             -0.176933266395475E+02
             -0.909262975328397E+01
             -0.124868086009248E+02
              0.412957438586152E+02
              0.684518934082514E+02
             -0.386512972596097E+02
             -0.796134877259674E+02
             -0.219893710036289E+02
              0.111706093472319E+03
             -0.593629917279600E+02
              0.356756182533383E+02
             -0.960354500386438E+01
             -0.664161977798711E+02
              0.254843370937407E+02
              0.398363869005303E+02
             -0.199243622613852E+02
              0.400730006460261E+02
             -0.296358458782715E+02
             -0.479631030700593E+02
              0.868133329324345E+02
              0.454852245951587E+02
              0.336678718229794E+02
              0.146692313870635E+02
              0.206268121365291E+02
              0.858026915812388E+02
             -0.257152315800619E+02
              0.788314169788640E+01
             -0.142655176433097E+03
              0.181328060581615E+02
             -0.717478299596533E+02
              0.151219559451116E+02
              0.205060270016475E+02
             -0.333677450994452E+02
             -0.558122808969209E+02
              0.653382734399440E+01
             -0.304863631357777E+02
              0.308958703773612E+02
             -0.530734133116170E+02
              0.168480411193991E+01
             -0.357681182083130E+02
             -0.424582544308521E+01
             -0.101152182681375E+01
              0.181947339257842E+02
              0.143207538917557E+01
             -0.651705033436133E+01
              0.591849957974573E+02
              0.910088899050751E+02
              0.485219211040130E+02
              0.831284024688787E+02
             -0.115254362318654E+02
              0.143256046846147E+02
              0.541989288329567E+02
             -0.110465165251694E+02
             -0.737263151462404E+02
             -0.385200235720826E+02
             -0.522770565801783E+02
             -0.277229861219241E+02
              0.327778307258280E+02
             -0.117022258131512E+03
             -0.187456681166944E+02
              0.415088765224682E+02
             -0.387002529370569E+02
             -0.365933009406332E+02
              0.545483517639015E+02
              0.401571938194351E+02
             -0.354526002719454E+02
              0.138624693078614E+02
             -0.273801188558886E+02
              0.343907357975463E+02
              0.445746868231447E+01
              0.211119467654970E+02
             -0.886242008845848E+02
             -0.480953211976266E+02
             -0.997061716096039E+01
              0.320620597809160E+01
             -0.367583199452085E+02
              0.106246670432159E+03
             -0.230959716457331E+02
             -0.399152936816855E+02
              0.389497486541279E+02
             -0.494977711231547E+02
             -0.364228853713817E+02
              0.325487390325720E+02
              0.124825853465095E+02
              0.164796833737306E+02
              0.117051048668711E+02
             -0.133065571824235E+02
              0.225148545754664E+02
              0.591059247331193E+02
             -0.311990620387299E+02
              0.162863660353313E+02
              0.936105040694075E+02
              0.341432482639447E+02
             -0.728668199738252E+01
             -0.189214221292035E+02
              0.153650588821751E+03
             -0.164791216500706E+02
              0.364134653592361E+02
              0.195194160491362E+02
              0.361867094972208E+02
              0.893725249458992E+02
              0.543813686743130E+02
             -0.240560014770661E+01
              0.228392278430879E+02
              0.486103140853554E+02
              0.364261308396221E+02
             -0.526761797467046E+02
              0.937810533807415E+02
             -0.827253036175787E+02
             -0.198156573965421E+02
              0.583775839297228E+02
              0.682733678753768E+01
              0.791291548215679E+01
              0.341160152149347E+02
              0.299418334471841E+02
              0.354193920056603E+02
             -0.638759861755520E+02
              0.286944146759174E+01
             -0.298008996877203E+02
             -0.870204366152343E+01
             -0.147523862337562E+01
             -0.727583612711916E+01
             -0.416611080778517E+01
              0.860888728791513E+02
             -0.101093270125068E+02
             -0.276887540558118E+02
             -0.496180421927802E+01
              0.140302149049143E+02
             -0.565334690173155E+02
             -0.408616450308704E+02
             -0.382630755095782E+02
             -0.631634275619313E+02
             -0.170169180490153E+02
             -0.448265556128646E+02
              0.163630316395816E+02
             -0.238242977002156E+01
             -0.104689321620030E+02
             -0.935609670271847E+01
              0.807989325632900E+01
             -0.242685095881709E+02
              0.690637346421922E+02
             -0.809018352193972E+02
             -0.141342111582139E+02
             -0.174145601367823E+02
              0.182093345161014E+02
              0.215211322983096E+02
             -0.464838076325873E+02
             -0.202098258773914E+02
              0.441754917270092E+02
             -0.276402364282409E+02
              0.187399204763025E+02
              0.383284446653416E+02
             -0.323132088456191E+01
              0.114364712772599E+03
             -0.230016665366743E+02
             -0.341596449794899E+02
              0.577213193617928E+01
             -0.228889004469335E+02
              0.528744521300522E+02
             -0.338377468391885E+02
              0.106875166288540E+02
              0.641279006929190E+02
             -0.126399748179244E+02
              0.120469588746509E+03
              0.126119462506553E+03
             -0.651229699788194E+02
              0.591774022316694E+02
              0.167153814674977E+02
             -0.518898272048056E+02
              0.216361717851373E+02
              0.355039651818896E+02
              0.363782479582605E+02
              0.135029946186415E+01
              0.160240544376893E+02
              0.697319796456380E+02
             -0.247424077810290E+02
              0.181402948750019E+02
              0.739988074611452E+02
             -0.373103069936091E+02
             -0.130414584704720E+02
              0.509922851455422E+02
              0.298082871128573E+02
              0.781702426799646E+02
              0.223457213618290E+02
              0.629603413397012E+01
              0.280818238737444E+02
              0.384148557066839E+02
             -0.473099366772715E+02
              0.334948059123445E+01
              0.130665991893402E+02
              0.114124597561165E+02
              0.221086176193562E+02
             -0.576166171667865E+02
              0.366646474296876E+02
             -0.444683571834460E+02
             -0.348141793515726E+02
              0.178609707005432E+02
             -0.181357076938206E+02
              0.556509219799527E+02
             -0.256061428650819E+02
              0.267412112358266E+02
              0.368811355213185E+02
              0.830663253950333E+02
              0.575611355152162E+02
              0.462712508325415E+02
             -0.105222655147055E+02
             -0.395150674668389E+01
             -0.332619180999526E+02
              0.752378078584181E+02
              0.798777868107121E+02
              0.362783186358508E+02
             -0.192645062995374E+02
              0.512798430979715E+02
             -0.162561553171930E+02
              0.214854271606428E+02
              0.615911384183450E+02
              0.214009242772133E+01
             -0.104518786578474E+02
             -0.283158637713984E+02
             -0.513165812245103E+02
              0.947333469004359E+02
              0.441036626962846E+02
             -0.560596985277822E+02
             -0.968944882436989E+01
              0.250166561428896E+02
             -0.996901563635291E+01
              0.593473766907536E+02
              0.152467362620843E+02
              0.800827232050740E+02
              0.280306704840039E+02
             -0.264227026210840E+02
              0.249182619126042E+02
             -0.503429182607516E+01
             -0.323957618431220E+02
              0.133430759023619E+02
              0.205845972024813E+02
              0.934829695134819E+02
              0.798810726316152E+02
              0.552223115465762E+02
              0.731880212172944E+02
              0.802038549974921E+01
             -0.274229825762091E+02
              0.163461076204799E+02
             -0.368514785881219E+02
             -0.477586611866075E+02
             -0.564589867540682E+02
             -0.267241933155996E+02
             -0.109903344703844E+03
             -0.292353688139273E+02
             -0.839110064837238E+02
              0.210652178513440E+02
             -0.477845793990767E+02
              0.398010836787790E+02
             -0.943521277320027E+02
             -0.330725461128571E+02
              0.548946427596725E+02
              0.208119523617220E+02
             -0.832656513038625E+02
              0.631881359014080E+02
             -0.257449733231616E+02
              0.513495651338308E+02
             -0.242866681356698E+02
             -0.752931582434389E+02
              0.112176299499188E+02
             -0.612622417006062E+02
             -0.167890332494860E+02
             -0.150028755334212E+01
              0.418895304188577E+02
              0.127265079919071E+03
             -0.462470703195476E+02
             -0.363398746440650E+02
             -0.993326586129456E+00
             -0.130254527603824E+02
             -0.824244058899492E+02
             -0.597782273089203E+02
              0.518129225323930E+02
             -0.289134443868542E+02
              0.170018387912817E+02
             -0.490305555640397E+02
             -0.132271565270258E+02
             -0.438041770130994E+02
              0.566541192800197E+02
              0.151079376754672E+02
             -0.232207556911784E+02
             -0.127472758072100E+02
              0.670712366940150E+01
             -0.619375804128111E+01
              0.442307343840941E+02
             -0.252446709349329E+02
              0.281495956305764E+01
              0.340151714825905E+02
              0.171325557743063E+02
             -0.160443653166286E+02
              0.156576217183085E+03
              0.539388934909776E+02
              0.120129424700322E+01
              0.161692268182862E+02
             -0.615980741671594E+02
              0.315764040530929E+02
             -0.723459215860079E+02
             -0.252927698140819E+02
             -0.523925353799937E+02
             -0.220524460479833E+02
              0.570572314818221E+02
             -0.538175857738720E+02
              0.161657906980181E+02
             -0.411005836206698E+01
              0.386975501593301E+01
             -0.434394164424723E+02
             -0.479166216389348E+02
             -0.404359525014252E+01
             -0.425233723493113E+02
             -0.217546494307120E+02
             -0.439347804458024E+02
             -0.119324794600719E+02
             -0.359562513552452E+02
             -0.517454999831592E+02
              0.212954200403134E+02
             -0.209270817250202E+02
              0.188397573185800E+02
              0.975458404895625E+01
             -0.739654798803438E+02
             -0.548989694469463E+02
             -0.399508846806760E+02
              0.354608795986935E+02
              0.267703771150047E+01
             -0.627676756179959E+02
              0.586972170610419E+02
             -0.402030111349447E+02
              0.546324304567543E+02
             -0.290274979630038E+02
             -0.446833532869920E+02
              0.298822511305837E+02
             -0.659195935352205E+02
             -0.380418522169040E+02
              0.673632638550657E+02
              0.204497177021778E+02
             -0.361233411127049E+02
              0.490551359034593E+02
             -0.174362295192009E+02
             -0.323646294648257E+02
             -0.302295497226552E+02
             -0.501759197391012E+02
              0.250112242435253E+02
             -0.934834468568486E+02
             -0.841554864709144E+02
             -0.736536755630311E+01
             -0.307452989055134E+02
             -0.576922779593492E+02
              0.723447465003173E+02
              0.131820636180338E+03
             -0.361128587025969E+02
             -0.257460363691564E+01
             -0.638113289817674E+02
              0.652032585508106E+02
              0.171170407070578E+02
             -0.182200496254179E+02
             -0.410716042663186E+02
              0.148891109793845E+02
             -0.587223397092368E+02
             -0.197976695977973E+02
             -0.906244095832220E+02
              0.337702737293952E+02
              0.168999927936607E+02
              0.182474724278802E+01
             -0.710731812189135E+01
             -0.330696780087937E+02
             -0.762463791609014E+01
              0.125818545181375E+03
             -0.199359291101853E+02
             -0.438567951409998E+02
             -0.685467249627498E+02
              0.109601382285793E+02
             -0.343089810916663E+02
              0.593996130743662E+01
              0.262213660806000E+02
              0.102293542355542E+02
              0.278743640995035E+02
              0.120399343865723E+02
              0.630865397097353E+02
              0.317133650146559E+02
             -0.327452425557790E+02
              0.357132033397596E+02
              0.380148021900555E+02
              0.121113495437843E+02
              0.487622101609782E+02
             -0.225702949434052E+02
              0.767140376682789E+02
              0.173056999716573E+02
             -0.272937597131961E+02
             -0.723766377288782E+01
             -0.186772776789563E+02
              0.262056264722040E+02
             -0.234863558232398E+02
             -0.172686761786650E+00
             -0.851511336194017E+01
              0.811469152012082E+02
              0.501251222852887E+02
             -0.688083951380011E+02
             -0.478802678753667E+01
             -0.556235930949845E+02
             -0.159640088450694E+02
             -0.268654526715721E+02
              0.378441249500838E+01
              0.592879382024863E+00
             -0.258219149168148E+02
              0.819002939394343E+01
             -0.604978576183322E+01
             -0.128493771653213E+02
              0.860816374215033E+02
              0.182039489194662E+02
             -0.808981920136529E+02
             -0.459029512162256E+02
              0.947170812183472E+02
              0.278337481407643E+02
             -0.107024626796332E+02
              0.104787959239948E+03
             -0.194988335936229E+02
             -0.123159424768521E+02
             -0.542514371733796E+01
              0.107718054661377E+02
              0.273357659933632E+02
              0.780699879203158E+01
              0.305942384856212E+02
             -0.188133272953797E+02
             -0.304857013965695E+02
             -0.418790715546455E+02
             -0.477774429195662E+02
              0.464753365552348E+02
              0.127100430094845E+02
              0.388373454283358E+02
              0.133799861381002E+02
              0.857547700980500E+02
              0.156929497716963E+02
             -0.847754787209075E+02
             -0.335071693375489E+02
              0.133630096317428E+02
             -0.303335320830342E+02
              0.627926050418251E+02
             -0.889504178009520E+01
              0.149068124069497E+02
              0.498448264847672E+02
             -0.709121814082753E+02
              0.150035206744762E+03
              0.209088989299953E+02
              0.271862665686563E+02
              0.348466957391935E+02
              0.103614413963887E+02
             -0.157010612134178E+01
              0.358948889769589E+02
             -0.357906522266613E+02
              0.775269049412495E+02
              0.686564812905923E+02
             -0.406825799780146E+02
              0.149747673057301E+02
              0.671718483874764E+02
             -0.224297180013303E+02
              0.154940954221829E+02
              0.435540219082722E+02
              0.422970187279797E+02
             -0.786258032944305E+02
             -0.152710300771137E+02
             -0.356459292019930E+02
             -0.149255629663395E+01
             -0.767293896908624E+01
             -0.540089142448483E+01
             -0.180752901423354E+02
             -0.294558143859392E+02
              0.639330532582599E+01
              0.111776453511153E+02
              0.536714018713164E+02
             -0.391377219776266E+02
              0.375681665193002E+02
              0.439613420234973E+02
             -0.186518274363102E+02
              0.873630415876943E+02
             -0.699361684236769E+02
             -0.103403550506653E+03
             -0.663420673978359E+01
             -0.270086410224167E+01
              0.384664028968893E+01
              0.791310782580773E+02
             -0.106976184886451E+02
              0.417673536851693E+02
              0.445056495450904E+02
              0.386161253109393E+02
             -0.997447276708522E+01
              0.628573639966056E+02
             -0.134009217504592E+02
             -0.308357356285210E+02
             -0.479746962472919E+02
              0.591444551228662E+01
              0.369942033697174E+02
             -0.602712441101133E+01
              0.393529968546308E+02
             -0.176717566521722E+01
              0.656290825619619E+02
              0.187565253446043E+02
              0.100103282541803E+02
             -0.121571139472893E+02
              0.332700065740097E+02
              0.363550543786961E+02
              0.232919331205150E+02
             -0.520248514757441E+00
             -0.551742378893395E+02
              0.261475088675313E+02
              0.175670629932050E+02
              0.403135781857163E+02
              0.272810244888994E+02
              0.373352938618183E+02
             -0.606716177908874E+01
              0.251971714730632E+02
             -0.299358856837914E+02
             -0.197394742341396E+01
             -0.570269616769955E+02
             -0.308725695783025E+02
              0.379662306206270E+02
             -0.937460910316220E+02
              0.294818430844352E+02
              0.184256286233631E+02
              0.842198150089936E+02
             -0.300377276855575E+02
              0.330252937219274E+02
             -0.137986887425984E+02
             -0.465114850308247E+02
             -0.762833214993858E+02
             -0.531416649208174E+01
             -0.861900491558589E+02
              0.199737339016316E+02
             -0.247918614252873E+02
              0.306620152411550E+02
              0.237702639398240E+02
             -0.241865808414275E+02
             -0.266153109285066E+02
              0.391869792281335E+02
             -0.589598436198285E+02
             -0.117092911140610E+02
             -0.196430639684611E+02
              0.213339306733985E+02
             -0.886764193444435E+01
              0.363636715284429E+01
             -0.200817711749858E+02
              0.559977151055136E+02
             -0.441162532945290E+02
              0.787820628193401E+01
              0.586788523839095E+02
             -0.324277480138840E+02
              0.362273290424943E+01
             -0.879647493747757E+01
             -0.670625378378612E+02
             -0.483072094579722E+02
             -0.860106205254494E+01
              0.241567749518473E+02
              0.303254476440030E+02
              0.860213576907546E+01
             -0.419219570751807E+01
              0.152098967896873E+02
             -0.440554493273843E+02
              0.331263529078188E+01
             -0.532213529927890E+02
             -0.325496541373664E+02
              0.475950953557729E+02
             -0.295834171797984E+02
              0.624135728898024E+02
             -0.215286985334336E+02
              0.354247031022989E+02
              0.242279045316247E+02
             -0.645389713321406E+02
             -0.280801346372579E+02
              0.935892593706461E+01
             -0.372937272468183E+02
             -0.340466120594988E+02
             -0.832103791315149E+02
             -0.540404484911759E+02
             -0.511530230687303E+02
             -0.416616782655105E+02
             -0.989340780583376E+00
              0.100320086190377E+02
              0.109029250166861E+01
              0.154052786667066E+02
             -0.550624620777902E+02
              0.142203011141531E+02
              0.257633947156980E+02
             -0.668217976932103E+02
             -0.703129843436581E+02
             -0.432279559653069E+02
             -0.172955063772190E+02
              0.178672407319647E+02
              0.454232857393072E+01
             -0.426685449064704E+02
              0.366662582473077E+02
             -0.216785555040300E+02
              0.518550356946927E+02
             -0.889268492360287E+02
              0.599392764273445E+02
             -0.218340811487298E+01
             -0.369398440201261E+02
             -0.216942358027948E+02
              0.471635896210540E+01
              0.375822578514531E+02
             -0.757752390685811E+02
             -0.121044843207553E+02
             -0.217041108779185E+02
              0.511828351056438E+02
              0.866607738356222E+02
             -0.967588240392479E+02
              0.945964844820385E+02
              0.468348978290719E+02
             -0.727103321389366E+02
             -0.367150878597579E+02
              0.753697428432928E+02
              0.633164889041440E+02
             -0.181602846760085E+02
             -0.464973815400816E+01
              0.737305226626410E+01
              0.650917693095016E+02
             -0.509850794163492E+02
              0.158549194706149E+02
             -0.475176963893090E+01
              0.348114267186534E+02
             -0.748524579040004E+02
             -0.647637220615655E+01
             -0.351448776600008E+02
              0.461765703049740E+02
              0.469546012588648E+02
             -0.863998417749131E+02
             -0.488120375321534E+02
             -0.256594107992481E+02
             -0.340585313926667E+02
             -0.109503205834801E+02
             -0.242908894774770E+02
              0.428337570708783E+02
              0.401952507203900E+02
             -0.562948725340931E+01
             -0.417383278237995E+02
             -0.852521773836414E+02
              0.444372647663589E+02
             -0.524125560942327E+02
[...]
              0.283870241265006E+02
              0.142068726959806E+03
              0.243051157653831E+02
              0.122911821839868E+02
             -0.465237696287920E+02
             -0.638740843291582E+02
             -0.189190278126997E+02
              0.330222963161494E+02
             -0.428428326612277E+01
              0.190694348909287E+02
              0.336973666238637E+02
             -0.587557114876188E+02
              0.222967139574533E+02
              0.582331673991330E+02
              0.553857451863863E+02
             -0.422321020288405E+01
             -0.134484726331777E+01
             -0.994286445153239E+01
             -0.483032273186591E+02
             -0.676477449796743E+02
              0.786811092690788E+02
             -0.525848097326372E+01
             -0.588785032018738E+02
              0.175412509294824E+01
             -0.205950760672535E+02
              0.940026595210066E+02
             -0.217096621644025E+02
             -0.354447425436592E+02
              0.336103411637492E+02
             -0.146165879918238E+02
              0.390529559414759E+02
             -0.233226447174718E+01
              0.101245910517074E+03
              0.490914758552989E+02
             -0.504011077470081E+01
             -0.322847959769779E+02
              0.232897704718695E+02
             -0.529569115253781E+02
             -0.127944438244525E+02
              0.586979444806016E+02
             -0.288231050538063E+02
             -0.439117038247832E+02
             -0.223783685449310E+02
              0.519632461315912E+02
              0.124908896432325E+02
             -0.850240195080070E+02
              0.304485889642426E+02
              0.151946450309929E+02
              0.579978918599505E+01
             -0.514402991109214E+02
             -0.375422917096751E+01
              0.323752068956113E+02
              0.513389336009933E+02
              0.634094342480903E+02
              0.229797074438997E+02
              0.781645019781280E+00
             -0.499228076125365E+02
             -0.510779606211754E+02
             -0.748787323565076E+02
             -0.620879699660679E+01
              0.309645846317161E+02
             -0.376202275442125E+01
              0.547865030278299E+02
             -0.318661082938169E+02
              0.166851760655563E+02
             -0.103309888319667E+02
             -0.290052807773506E+02
              0.586772828897814E+02
              0.792708387896806E+01
              0.605626282432349E+02
              0.509531213527418E+01
              0.265270660908613E+02
             -0.193012179924606E+02
              0.587217277886758E+02
             -0.111929991305209E+02
             -0.118011442745994E+00
             -0.791634053474611E+02
             -0.128376604305475E+02
              0.720241973451452E+02
              0.674172118368409E+02
              0.252554750187466E+02
             -0.130770897354166E+02
              0.346887188895266E+01
             -0.174173840634114E+02
             -0.213360781868442E+01
              0.909647706001777E+02
              0.127796355086116E+01
             -0.191166060556444E+02
             -0.110943366800807E+03
             -0.553068682532133E+02
             -0.375756474930205E+02
             -0.659594642979634E+02
             -0.556737164645334E+02
             -0.683768335624692E+02
             -0.447987531481516E+02
             -0.411230267269279E+02
             -0.452883096374419E+02
              0.484280398340249E+02
             -0.294265158724570E+02
             -0.996365498360948E+02
              0.419585382228429E+02
             -0.260764921754783E+02
             -0.792367963622057E+02
              0.945686663299867E+02
             -0.220260186078738E+02
              0.228230635179817E+02
              0.455606135146051E+02
             -0.128891028852399E+01
              0.255019674702444E+02
              0.469950918693075E+01
              0.422882702714784E+00
             -0.150913305332764E+02
             -0.717206196531253E+02
              0.133308590693977E+02
             -0.129581655387877E+03
              0.625784239445659E+02
             -0.441386861447427E+02
             -0.163531867724043E+02
             -0.158717928622307E+02
              0.720671473443720E+01
             -0.227901233720860E+02
              0.297496653257471E+02
             -0.521790658142440E+02
              0.367691809791474E+02
              0.371790811884259E+02
              0.168335683317511E+02
              0.100725656768406E+02
              0.198270222284626E+02
              0.625388983822307E+01
              0.310751838188601E+02
             -0.797819387206812E+01
             -0.594094141813911E+02
              0.758668679077874E+01
             -0.153381544926245E+02
             -0.193946051236787E+01
              0.507523109660049E+02
             -0.828215594992027E+02
             -0.148181043563773E+01
              0.592118100393748E+00
              0.997552309901999E+01
              0.318998688909979E+02
             -0.123788169753101E+02
              0.837305445319769E+02
              0.487961038476275E+02
             -0.183352354005141E+02
             -0.955812579825630E+01
              0.107752257398397E+01
              0.770925322133766E+02
             -0.587050559447728E+02
             -0.105940246935916E+03
              0.309724853432049E+02
             -0.163405618582779E+02
             -0.139814932952640E+02
              0.131014186973569E+02
              0.769791834309789E+02
              0.464807806455148E+02
             -0.153728523812055E+02
             -0.504159753796419E+02
             -0.553271162480290E+01
              0.306890417157198E+02
             -0.111984162492402E+02
             -0.757250836366929E+02
             -0.275143416172716E+01
             -0.891949058625618E+02
             -0.476700713685420E+02
              0.770431758692772E+02
             -0.484568202481681E+02
             -0.637971041640243E+02
             -0.515223256205753E+02
             -0.350644484722496E+02
              0.341559855575244E+02
              0.823204599345129E+02
             -0.360756865159567E+01
              0.277090558181616E+02
             -0.184272599657617E+02
             -0.695343873751042E+02
              0.466005202440443E+02
             -0.446022854462296E+02
              0.321989702760765E+02
              0.376577830098414E+02
             -0.659540051235496E+01
              0.390883522878616E+02
              0.438861726018543E+02
              0.100926165514466E+03
             -0.155971730939571E+02
             -0.457581899594675E+02
             -0.614069855647908E+02
             -0.124475802272428E+02
             -0.234008703676553E+02
              0.103159672158471E+03
             -0.449816500277019E+02
              0.105420123622494E+02
              0.970673692329024E+01
             -0.264874817643649E+02
             -0.800648187157202E+02
             -0.700016713534410E+01
              0.981768082127705E+02
              0.944593412326174E+01
              0.809075668357741E+01
             -0.528401154474091E+02
             -0.606513604599565E+02
             -0.568846117833237E+01
              0.501312277599002E+02
             -0.222424736335685E+02
              0.108147445593679E+03
             -0.436629795206361E+02
              0.146752935738587E+02
             -0.224153378128200E+02
             -0.719602697869622E+02
              0.170301364774502E+01
             -0.502777979346401E+02
             -0.762013816216390E+02
              0.619723571836994E+01
              0.237549433984520E+01
              0.515055672425645E+02
              0.187873268224988E+02
             -0.324290602663765E+02
              0.230288459391231E+02
             -0.812880712872035E+02
             -0.522483780541954E+02
              0.903428904143835E+02
              0.142210533124455E+02
             -0.187856668994916E+02
             -0.352684211598809E+02
             -0.270154328135084E+01
             -0.590678633028153E+01
              0.832060221748328E+02
              0.418480555601771E+02
             -0.166016202943654E+02
             -0.121574401874938E+02
             -0.428146792372968E+02
             -0.200625469089345E+02
             -0.671002692328632E+02
              0.460670508955301E+02
              0.547607938226454E+01
              0.144901089170567E+02
              0.156648715868375E+02
             -0.608026159965330E+00
             -0.168928585294642E+02
             -0.302358629936079E+01
             -0.100655029440636E+03
             -0.229968739004996E+02
             -0.768192479935453E+01
             -0.949048539209369E+01
              0.547098877379734E+02
              0.625147726992076E+02
              0.165223374812836E+02
             -0.972247451601787E+02
              0.648707913433300E+02
             -0.215437387992563E+02
             -0.377732786467742E+02
             -0.865846326739256E+02
             -0.387146283434404E+02
              0.565942813025792E+02
              0.244951266364519E+02
              0.516720773958968E+01
              0.293007027235413E+02
             -0.565889051965339E+02
             -0.423337547172661E+02
              0.516538884759245E+02
              0.387989356570810E+02
              0.519645626175534E+02
             -0.116081549671972E+01
              0.688471766230612E+01
              0.570402657252281E+02
              0.964464037473641E+02
             -0.300373576846678E+02
              0.323723149646778E+02
             -0.119601536275491E+02
             -0.412894666952729E+02
             -0.315023335193040E+02
             -0.300994867712994E+02
             -0.131668191995667E+02
             -0.524237780766117E+02
             -0.217349944022753E+02
             -0.141389222255279E+03
              0.369376721932328E+02
              0.207425211835530E+02
             -0.395349540941383E+01
             -0.380674399610859E+02
             -0.204390643281195E+02
             -0.528044491269603E+02
              0.151120004222650E+02
              0.821411591267904E+02
             -0.252479461614330E+02
             -0.163428346759358E+02
              0.238604433249085E+02
             -0.490371734825132E+02
              0.881861144734144E+02
              0.154550074537131E+02
              0.226127365723676E+02
              0.491162966606569E+02
              0.317006966479852E+01
              0.543191201444171E+02
              0.143537746214766E+02
             -0.106331379913766E+02
              0.735011601464447E+01
              0.751573825585353E+00
              0.728179827089507E+02
              0.101191199021844E+02
              0.121093152480279E+02
             -0.130261427287618E+02
              0.132445854362352E+02
             -0.912826893559439E+02
             -0.326344046508382E+02
             -0.458386028908453E+02
              0.485967069650186E+02
             -0.291835972753703E+02
             -0.659189662889779E+02
              0.539631961715684E+02
             -0.122128155809773E+02
              0.440734721893130E+02
             -0.900184381608609E+02
              0.232085047614954E+02
              0.857125012956840E+01
              0.586242719358199E+01
             -0.836183792496826E+01
             -0.905701332665296E+01
              0.480211270474077E+02
              0.199672539995458E+01
             -0.476294140479833E+02
             -0.176596729260269E+02
              0.276748050653752E+02
             -0.118123998701337E+03
             -0.931154062926916E+02
              0.395680818684002E+01
              0.118090039490552E+02
             -0.414355497697873E+02
             -0.386840284497964E+01
              0.112274339547620E+03
              0.306843319052042E+02
             -0.572490775904172E+02
              0.926633145218318E+01
             -0.966725978763898E+01
              0.105905383635647E+02
             -0.338470350087709E+02
              0.195987216840811E+02
              0.285011278716257E+02
             -0.301934330264299E+01
              0.108386554781921E+03
             -0.140119122411270E+02
             -0.316397460751392E+02
              0.143732041977245E+02
              0.467258139637144E+02
             -0.356224238891071E+02
             -0.318105002278578E+01
              0.966599849983975E+02
             -0.463193532646665E+01
              0.622613886916773E+02
              0.135727498983680E+02
             -0.902225574292156E+01
             -0.305542543040164E+02
              0.567272584813650E+02
             -0.515323591657757E+02
             -0.219570125821144E+01
             -0.170454367623047E+02
             -0.405799236419723E+02
              0.185130481385290E+02
              0.239876866982018E+02
              0.115875745561239E+02
              0.720828524661215E+00
             -0.385488236528068E+02
              0.215570339829880E+02
             -0.674179035160273E+01
             -0.246813441735827E+02
             -0.210876347704814E+02
              0.203347026408007E+02
             -0.596132179432743E+01
             -0.349924713433444E+02
             -0.106828484677944E+03
              0.103195252997847E+02
              0.248692957968554E+02
             -0.388287171220466E+02
             -0.211506634362046E+02
              0.808576703022338E+02
              0.655637313522493E+01
              0.311892244831904E+02
              0.395025489720030E+01
              0.322748986757906E+02
              0.645878481786963E+01
             -0.373697321186625E+02
             -0.237700660474178E+01
              0.876853355294884E+01
              0.274539862301297E+02
              0.782986848258323E+02
              0.508293557386651E+02
              0.190197651819119E+00
              0.169396496556784E+02
              0.614320777533728E+02
              0.236513017985675E+02
             -0.753917009487022E+02
             -0.274143192836170E+02
              0.151021067675390E+02
              0.564334605389161E+01
              0.255541592522692E+02
             -0.548581069590773E+02
              0.898474308101470E+01
              0.386852614898831E+02
              0.498836783709241E+02
             -0.435678632555799E+02
             -0.687768477155652E+01
             -0.208999435044143E+01
             -0.134230008000961E+02
             -0.365885540317745E+02
             -0.215362324653827E+02
             -0.208144272876771E+01
              0.795445040580421E+01
              0.422134471996420E+02
             -0.309004434520758E+02
              0.827635123604782E+02
              0.328118903283603E+02
              0.220360655610842E+02
              0.333784073005522E+02
              0.323378202632409E+02
              0.347002692398882E+02
              0.538188103736564E+02
             -0.434727913144599E+02
              0.620718616445292E+02
             -0.112481168648384E+03
              0.307889689093516E+02
             -0.106710032880785E+03
              0.856128722043436E+02
              0.692148587186824E+02
             -0.110001770492564E+02
             -0.493926425256213E+02
             -0.430324189280563E+02
             -0.624326842470936E+02
             -0.630022473111841E+02
              0.552838176252815E+02
              0.406293490788060E+02
              0.237293755193062E+02
              0.374047882645337E+02
              0.404271069553496E+02
             -0.382889654320978E+02
             -0.198057572709053E+02
              0.587450890471311E+02
             -0.116316009960922E+02
              0.552713388839431E+02
              0.701001610848921E+02
             -0.556413923522376E+01
             -0.707738345458155E+02
             -0.864993316635264E+00
             -0.246830881821930E+01
             -0.884893915059308E+01
             -0.179877667427763E+01
             -0.654016288201220E+02
             -0.210620867427680E+02
              0.542836750349363E+01
              0.903481340106430E+01
              0.469935441964346E+02
             -0.398697647869975E+02
              0.657928387542922E+02
             -0.426020186427426E+02
              0.211057648708753E+02
              0.351208165569290E+02
 
 BEEF-vdW xc energy contributions
           1 :   -784.130194272818     
           2 :    720.251632709746     
           3 :   -609.645537953876     
           4 :    479.424470279156     
           5 :   -357.157627161814     
           6 :    262.739138487937     
           7 :   -203.859704809510     
           8 :    175.967538108154     
           9 :   -166.310544672821     
          10 :    160.144955122534     
          11 :   -146.568079666830     
          12 :    121.775997005168     
          13 :   -88.8992893741615     
          14 :    55.0496300319131     
          15 :   -27.2864374661181     
          16 :    9.33285258028741     
          17 :  -0.314100203317366     
          18 :   -4.23885688920768     
          19 :    9.85771306260790     
          20 :   -20.4124962525906     
          21 :    36.4470814005485     
          22 :   -55.2266178627482     
          23 :    72.3003650453487     
          24 :   -83.7240929179550     
          25 :    87.8518774437631     
          26 :   -85.9146060790623     
          27 :    81.2169560106787     
          28 :   -77.4373026839512     
          29 :    76.8862077818474     
          30 :   -79.5403861202072     
          31 :   -86.0918602130847     
          32 :   -65.9688335276322     

     Writing output data file ./pwscf.save/
 
     init_run     :    331.44s CPU    335.98s WALL (       1 calls)
     electrons    :  13054.65s CPU  13183.11s WALL (       1 calls)
     forces       :    101.40s CPU    102.66s WALL (       1 calls)

     Called by init_run:
     wfcinit      :    282.47s CPU    286.03s WALL (       1 calls)
     potinit      :     45.98s CPU     46.30s WALL (       1 calls)
     hinit0       :      1.16s CPU      1.20s WALL (       1 calls)

     Called by electrons:
     c_bands      :  10941.18s CPU  11041.61s WALL (      20 calls)
     sum_band     :   1493.41s CPU   1505.90s WALL (      20 calls)
     v_of_rho     :    127.60s CPU    131.71s WALL (      20 calls)
     newd         :     29.41s CPU     40.90s WALL (      20 calls)
     PAW_pot      :    140.12s CPU    140.13s WALL (      20 calls)
     mix_rho      :    369.64s CPU    370.41s WALL (      20 calls)
     vdW_kernel   :     33.92s CPU     33.92s WALL (       1 calls)

     Called by c_bands:
     init_us_2    :     79.15s CPU     79.51s WALL (     546 calls)
     cegterg      :  10126.94s CPU  10226.91s WALL (     260 calls)

     Called by *egterg:
     cdiaghg      :    112.18s CPU    112.21s WALL (    1639 calls)
     h_psi        :   6386.51s CPU   6421.51s WALL (    1665 calls)
     s_psi        :   1106.62s CPU   1106.75s WALL (    1665 calls)
     g_psi        :     16.58s CPU     16.59s WALL (    1392 calls)

     Called by h_psi:
     h_psi:calbec :   1027.37s CPU   1027.63s WALL (    1665 calls)
     vloc_psi     :   4226.86s CPU   4228.28s WALL (    1665 calls)
     add_vuspsi   :   1106.56s CPU   1106.84s WALL (    1665 calls)

     General routines
     calbec       :   1502.58s CPU   1502.90s WALL (    1977 calls)
     fft          :     46.68s CPU     46.72s WALL (    3220 calls)
     ffts         :    120.28s CPU    120.31s WALL (    8792 calls)
     fftw         :   4334.04s CPU   4335.02s WALL (  338280 calls)
 
     Parallel routines
 
     PWSCF        :      3h47m CPU      3h49m WALL

 
   This run was terminated on:  19:42:59  20May2022            

=------------------------------------------------------------------------------=
   JOB DONE.
=------------------------------------------------------------------------------=
