
     Program PWSCF v.6.7MaX starts on 20May2022 at 15:56:13 

     This program is part of the open-source Quantum ESPRESSO suite
     for quantum simulation of materials; please cite
         "P. Giannozzi et al., J. Phys.:Condens. Matter 21 395502 (2009);
         "P. Giannozzi et al., J. Phys.:Condens. Matter 29 465901 (2017);
          URL http://www.quantum-espresso.org", 
     in publications or presentations arising from this work. More details at
     http://www.quantum-espresso.org/quote

     Parallel version (MPI), running on     1 processors

     MPI processes distributed on     1 nodes
     Reading input from isoc3h7-ensemble.in
Warning: card &CELL ignored
Warning: card / ignored

     Current dimensions of program PWSCF are:
     Max number of different atomic species (ntypx) = 10
     Max number of k-points (npk) =  40000
     Max angular momentum in pseudopotentials (lmaxx) =  3
     file Pt.pbe-n-kjpaw_psl.1.0.0.UPF: wavefunction(s)  6S 5D renormalized
     file C.pbe-n-kjpaw_psl.1.0.0.UPF: wavefunction(s)  2S 2P renormalized
     file H.pbe-kjpaw_psl.1.0.0.UPF: wavefunction(s)  1S renormalized

     **************************************************************************
     Initializing libbeef V0.1.2 with the BEEF-vdW functional.
     Citation: Wellendorff et al., PRB 85, 235149 (2012).
     **************************************************************************


     IMPORTANT: XC functional enforced from input :
     Exchange-correlation= BEEF-VDW
                           (   1   4  43  14   2   0   0)
     Any further DFT definition will be discarded
     Please, verify this is what you really want


     Subspace diagonalization in iterative solution of the eigenvalue problem:
     a serial algorithm will be used

 
     G-vector sticks info
     --------------------
     sticks:   dense  smooth     PW     G-vecs:    dense   smooth      PW
     Sum        4267    4267   1159               740691   740691  104373
 


     bravais-lattice index     =            0
     lattice parameter (alat)  =      16.0349  a.u.
     unit-cell volume          =   11791.5244 (a.u.)^3
     number of atoms/cell      =           46
     number of atomic types    =            3
     number of electrons       =       379.00
     number of Kohn-Sham states=          228
     kinetic-energy cutoff     =      60.0000  Ry
     charge density cutoff     =     240.0000  Ry
     scf convergence threshold =      1.0E-06
     mixing beta               =       0.7000
     number of iterations used =            8  local-TF  mixing
     Exchange-correlation= BEEF-VDW
                           (   1   4  43  14   2   0   0)

     celldm(1)=  16.034858  celldm(2)=   0.000000  celldm(3)=   0.000000
     celldm(4)=   0.000000  celldm(5)=   0.000000  celldm(6)=   0.000000

     crystal axes: (cart. coord. in units of alat)
               a(1) = (   1.000000   0.000000   0.000000 )  
               a(2) = (   0.500000   0.866025   0.000000 )  
               a(3) = (   0.000000   0.000000   3.302509 )  

     reciprocal axes: (cart. coord. in units 2 pi/alat)
               b(1) = (  1.000000 -0.577350  0.000000 )  
               b(2) = (  0.000000  1.154701  0.000000 )  
               b(3) = (  0.000000  0.000000  0.302800 )  


     PseudoPot. # 1 for Pt read from file:
     /users/bkreitz1/quantum-espresso/potentials/Pt.pbe-n-kjpaw_psl.1.0.0.UPF
     MD5 check sum: 04dc8a03c51ece93fc7b5889c2958091
     Pseudo is Projector augmented-wave + core cor, Zval = 10.0
     Generated using 'atomic' code by A. Dal Corso  v.6.7MaX
     Shape of augmentation charge: PSQ
     Using radial grid of 1277 points,  6 beta functions with: 
                l(1) =   0
                l(2) =   0
                l(3) =   1
                l(4) =   1
                l(5) =   2
                l(6) =   2
     Q(r) pseudized with 0 coefficients 


     PseudoPot. # 2 for C  read from file:
     /users/bkreitz1/quantum-espresso/potentials/C.pbe-n-kjpaw_psl.1.0.0.UPF
     MD5 check sum: a169b0ebad56f5ec0d79c4633f80bf22
     Pseudo is Projector augmented-wave + core cor, Zval =  4.0
     Generated using 'atomic' code by A. Dal Corso  v.6.7MaX
     Shape of augmentation charge: PSQ
     Using radial grid of 1073 points,  4 beta functions with: 
                l(1) =   0
                l(2) =   0
                l(3) =   1
                l(4) =   1
     Q(r) pseudized with 0 coefficients 


     PseudoPot. # 3 for H  read from file:
     /users/bkreitz1/quantum-espresso/potentials/H.pbe-kjpaw_psl.1.0.0.UPF
     MD5 check sum: ae98473e6dc62675f0d0baffdab24f65
     Pseudo is Projector augmented-wave, Zval =  1.0
     Generated using 'atomic' code by A. Dal Corso  v.6.7MaX
     Shape of augmentation charge: PSQ
     Using radial grid of  929 points,  2 beta functions with: 
                l(1) =   0
                l(2) =   0
     Q(r) pseudized with 0 coefficients 


     atomic species   valence    mass     pseudopotential
        Pt            10.00   195.08400     Pt( 1.00)
        C              4.00    12.01100     C ( 1.00)
        H              1.00     1.00800     H ( 1.00)

     No symmetry found



   Cartesian axes

     site n.     atom                  positions (alat units)
         1           Pt  tau(   1) = (   0.0000000   0.0000000   1.0017346  )
         2           Pt  tau(   2) = (   0.3333333   0.0000000   1.0017346  )
         3           Pt  tau(   3) = (   0.6666667   0.0000000   1.0017346  )
         4           Pt  tau(   4) = (   0.1666667   0.2886751   1.0017346  )
         5           Pt  tau(   5) = (   0.5000000   0.2886751   1.0017346  )
         6           Pt  tau(   6) = (   0.8333333   0.2886751   1.0017346  )
         7           Pt  tau(   7) = (   0.3333333   0.5773503   1.0017346  )
         8           Pt  tau(   8) = (   0.6666667   0.5773503   1.0017346  )
         9           Pt  tau(   9) = (   1.0000000   0.5773503   1.0017346  )
        10           Pt  tau(  10) = (   0.1666667   0.0962250   1.2739001  )
        11           Pt  tau(  11) = (   0.5000000   0.0962250   1.2739001  )
        12           Pt  tau(  12) = (   0.8333333   0.0962250   1.2739001  )
        13           Pt  tau(  13) = (   0.3333333   0.3849002   1.2739001  )
        14           Pt  tau(  14) = (   0.6666667   0.3849002   1.2739001  )
        15           Pt  tau(  15) = (   1.0000000   0.3849002   1.2739001  )
        16           Pt  tau(  16) = (   0.5000000   0.6735753   1.2739001  )
        17           Pt  tau(  17) = (   0.8333333   0.6735753   1.2739001  )
        18           Pt  tau(  18) = (   1.1666667   0.6735753   1.2739001  )
        19           Pt  tau(  19) = (   0.0001981   0.1924814   1.5411749  )
        20           Pt  tau(  20) = (   0.3335081   0.1926137   1.5409545  )
        21           Pt  tau(  21) = (   0.6668772   0.1927705   1.5419556  )
        22           Pt  tau(  22) = (   0.1666507   0.4814782   1.5413866  )
        23           Pt  tau(  23) = (   0.5022230   0.4826810   1.5466004  )
        24           Pt  tau(  24) = (   0.8309844   0.4828830   1.5472506  )
        25           Pt  tau(  25) = (   0.3338514   0.7697797   1.5421562  )
        26           Pt  tau(  26) = (   0.6667506   0.7672181   1.5467753  )
        27           Pt  tau(  27) = (   1.0001223   0.7697396   1.5420482  )
        28           Pt  tau(  28) = (   0.0003952   0.0004737   1.8156016  )
        29           Pt  tau(  29) = (   0.3334654   0.0007632   1.8139845  )
        30           Pt  tau(  30) = (   0.6671853   0.0002114   1.8152675  )
        31           Pt  tau(  31) = (   0.1668738   0.2891942   1.8154791  )
        32           Pt  tau(  32) = (   0.4997332   0.2891719   1.8144680  )
        33           Pt  tau(  33) = (   0.8345708   0.2889866   1.8145979  )
        34           Pt  tau(  34) = (   0.3330897   0.5774612   1.8157027  )
        35           Pt  tau(  35) = (   0.6669449   0.5770311   1.8501674  )
        36           Pt  tau(  36) = (   1.0003001   0.5773828   1.8161242  )
        37           C   tau(  37) = (   0.6820438   0.4166255   2.1720612  )
        38           C   tau(  38) = (   0.6514980   0.5784732   2.1012952  )
        39           C   tau(  39) = (   0.7560922   0.7048850   2.1730381  )
        40           H   tau(  40) = (   0.6004237   0.3271394   2.1287815  )
        41           H   tau(  41) = (   0.8025401   0.3761775   2.1507723  )
        42           H   tau(  42) = (   0.6666614   0.4245455   2.3005163  )
        43           H   tau(  43) = (   0.5274216   0.6103095   2.1157895  )
        44           H   tau(  44) = (   0.7314736   0.8224282   2.1268657  )
        45           H   tau(  45) = (   0.7343211   0.7085347   2.3007741  )
        46           H   tau(  46) = (   0.8812913   0.6796141   2.1577176  )

     number of k points=    13  Marzari-Vanderbilt smearing, width (Ry)=  0.0200
                       cart. coord. in units 2pi/alat
        k(    1) = (   0.0000000   0.0000000   0.0000000), wk =   0.0800000
        k(    2) = (   0.0000000   0.2309401   0.0000000), wk =   0.1600000
        k(    3) = (   0.0000000   0.4618802   0.0000000), wk =   0.1600000
        k(    4) = (   0.2000000  -0.1154701   0.0000000), wk =   0.1600000
        k(    5) = (   0.2000000   0.1154701   0.0000000), wk =   0.1600000
        k(    6) = (   0.2000000   0.3464102   0.0000000), wk =   0.1600000
        k(    7) = (   0.2000000  -0.5773503   0.0000000), wk =   0.1600000
        k(    8) = (   0.2000000  -0.3464102   0.0000000), wk =   0.1600000
        k(    9) = (   0.4000000  -0.2309401   0.0000000), wk =   0.1600000
        k(   10) = (   0.4000000  -0.0000000   0.0000000), wk =   0.1600000
        k(   11) = (   0.4000000   0.2309401   0.0000000), wk =   0.1600000
        k(   12) = (   0.4000000  -0.6928203   0.0000000), wk =   0.1600000
        k(   13) = (   0.4000000  -0.4618802   0.0000000), wk =   0.1600000

     Dense  grid:   740691 G-vectors     FFT dimensions: (  80,  80, 270)

     Estimated max dynamical RAM per process >       9.04 GB

     Check: negative core charge=   -0.000002

     Initial potential from superposition of free atoms

     starting charge  378.99370, renormalised to  379.00000

     negative rho (up, down):  1.154E-02 0.000E+00


     %%%%%%%%%%%%%%%%%%%%%%%%%%%%%%%%%%%%%%%%%%%%%%%%%%%%%%%%%%%%%%%%%%%%%%%%
     %                                                                      %
     % You are using vdW-DF, which was implemented by the Thonhauser group. %
     % Please cite the following two papers that made this development      %
     % possible and the two reviews that describe the various versions:     %
     %                                                                      %
     %   T. Thonhauser et al., PRL 115, 136402 (2015).                      %
     %   T. Thonhauser et al., PRB 76, 125112 (2007).                       %
     %   K. Berland et al., Rep. Prog. Phys. 78, 066501 (2015).             %
     %   D.C. Langreth et al., J. Phys.: Condens. Matter 21, 084203 (2009). %
     %                                                                      %
     %                                                                      %
     % If you are calculating the stress with vdW-DF, please also cite:     %
     %                                                                      %
     %   R. Sabatini et al., J. Phys.: Condens. Matter 24, 424209 (2012).   %
     %                                                                      %
     %%%%%%%%%%%%%%%%%%%%%%%%%%%%%%%%%%%%%%%%%%%%%%%%%%%%%%%%%%%%%%%%%%%%%%%%


     Starting wfcs are  343 randomized atomic wfcs
     Checking if some PAW data can be deallocated... 

     total cpu time spent up to now is      361.5 secs

     Self-consistent Calculation

     iteration #  1     ecut=    60.00 Ry     beta= 0.70
     Davidson diagonalization with overlap
     ethr =  1.00E-02,  avg # of iterations =  3.0

     Threshold (ethr) on eigenvalues was too large:
     Diagonalizing with lowered threshold

     Davidson diagonalization with overlap
     ethr =  8.36E-04,  avg # of iterations =  3.2

     negative rho (up, down):  1.097E-02 0.000E+00

     total cpu time spent up to now is     1741.7 secs

     total energy              =  -27819.70623307 Ry
     estimated scf accuracy    <       3.41292985 Ry

     iteration #  2     ecut=    60.00 Ry     beta= 0.70
     Davidson diagonalization with overlap
     ethr =  9.01E-04,  avg # of iterations =  2.0

     negative rho (up, down):  8.806E-03 0.000E+00

     total cpu time spent up to now is     2371.4 secs

     total energy              =  -27819.77522956 Ry
     estimated scf accuracy    <       1.35663493 Ry

     iteration #  3     ecut=    60.00 Ry     beta= 0.70
     Davidson diagonalization with overlap
     ethr =  3.58E-04,  avg # of iterations =  6.2

     negative rho (up, down):  4.923E-03 0.000E+00

     total cpu time spent up to now is     3056.7 secs

     total energy              =  -27819.78416561 Ry
     estimated scf accuracy    <       0.56645069 Ry

     iteration #  4     ecut=    60.00 Ry     beta= 0.70
     Davidson diagonalization with overlap
     c_bands:  1 eigenvalues not converged
     ethr =  1.49E-04,  avg # of iterations =  9.9

     negative rho (up, down):  3.961E-03 0.000E+00

     total cpu time spent up to now is     3850.7 secs

     total energy              =  -27819.85831657 Ry
     estimated scf accuracy    <       0.31228439 Ry

     iteration #  5     ecut=    60.00 Ry     beta= 0.70
     Davidson diagonalization with overlap
     ethr =  8.24E-05,  avg # of iterations =  5.2

     negative rho (up, down):  2.152E-03 0.000E+00

     total cpu time spent up to now is     4512.2 secs

     total energy              =  -27819.85766327 Ry
     estimated scf accuracy    <       0.05961200 Ry

     iteration #  6     ecut=    60.00 Ry     beta= 0.70
     Davidson diagonalization with overlap
     c_bands:  1 eigenvalues not converged
     c_bands:  1 eigenvalues not converged
     c_bands:  2 eigenvalues not converged
     c_bands:  2 eigenvalues not converged
     ethr =  1.57E-05,  avg # of iterations = 12.6

     negative rho (up, down):  1.810E-03 0.000E+00

     total cpu time spent up to now is     5490.8 secs

     total energy              =  -27819.86938296 Ry
     estimated scf accuracy    <       0.05649735 Ry

     iteration #  7     ecut=    60.00 Ry     beta= 0.70
     Davidson diagonalization with overlap
     ethr =  1.49E-05,  avg # of iterations =  8.1

     negative rho (up, down):  2.155E-03 0.000E+00

     total cpu time spent up to now is     6170.8 secs

     total energy              =  -27819.86956363 Ry
     estimated scf accuracy    <       0.03611259 Ry

     iteration #  8     ecut=    60.00 Ry     beta= 0.70
     Davidson diagonalization with overlap
     c_bands:  2 eigenvalues not converged
     c_bands:  2 eigenvalues not converged
     c_bands:  1 eigenvalues not converged
     ethr =  9.53E-06,  avg # of iterations = 13.2

     negative rho (up, down):  4.783E-03 0.000E+00

     total cpu time spent up to now is     6915.3 secs

     total energy              =  -27819.87025519 Ry
     estimated scf accuracy    <       0.02033114 Ry

     iteration #  9     ecut=    60.00 Ry     beta= 0.70
     Davidson diagonalization with overlap
     ethr =  5.36E-06,  avg # of iterations =  7.5

     negative rho (up, down):  8.842E-03 0.000E+00

     total cpu time spent up to now is     7587.7 secs

     total energy              =  -27819.87072238 Ry
     estimated scf accuracy    <       0.00461873 Ry

     iteration # 10     ecut=    60.00 Ry     beta= 0.70
     Davidson diagonalization with overlap
     c_bands:  1 eigenvalues not converged
     c_bands:  1 eigenvalues not converged
     c_bands:  1 eigenvalues not converged
     c_bands:  1 eigenvalues not converged
     c_bands:  1 eigenvalues not converged
     ethr =  1.22E-06,  avg # of iterations = 13.8

     negative rho (up, down):  9.410E-03 0.000E+00

     total cpu time spent up to now is     8345.2 secs

     total energy              =  -27819.87103603 Ry
     estimated scf accuracy    <       0.00105739 Ry

     iteration # 11     ecut=    60.00 Ry     beta= 0.70
     Davidson diagonalization with overlap
     ethr =  2.79E-07,  avg # of iterations =  4.5

     negative rho (up, down):  8.655E-03 0.000E+00

     total cpu time spent up to now is     9065.0 secs

     total energy              =  -27819.87124409 Ry
     estimated scf accuracy    <       0.00083547 Ry

     iteration # 12     ecut=    60.00 Ry     beta= 0.70
     Davidson diagonalization with overlap
     ethr =  2.20E-07,  avg # of iterations =  2.0

     negative rho (up, down):  8.025E-03 0.000E+00

     total cpu time spent up to now is     9683.3 secs

     total energy              =  -27819.87131239 Ry
     estimated scf accuracy    <       0.00052039 Ry

     iteration # 13     ecut=    60.00 Ry     beta= 0.70
     Davidson diagonalization with overlap
     ethr =  1.37E-07,  avg # of iterations =  1.4

     negative rho (up, down):  9.079E-03 0.000E+00

     total cpu time spent up to now is    10275.7 secs

     total energy              =  -27819.87134562 Ry
     estimated scf accuracy    <       0.00031798 Ry

     iteration # 14     ecut=    60.00 Ry     beta= 0.70
     Davidson diagonalization with overlap
     ethr =  8.39E-08,  avg # of iterations =  3.7

     negative rho (up, down):  8.861E-03 0.000E+00

     total cpu time spent up to now is    10918.2 secs

     total energy              =  -27819.87135451 Ry
     estimated scf accuracy    <       0.00012149 Ry

     iteration # 15     ecut=    60.00 Ry     beta= 0.70
     Davidson diagonalization with overlap
     ethr =  3.21E-08,  avg # of iterations =  2.8

     negative rho (up, down):  1.005E-02 0.000E+00

     total cpu time spent up to now is    11565.4 secs

     total energy              =  -27819.87135479 Ry
     estimated scf accuracy    <       0.00006788 Ry

     iteration # 16     ecut=    60.00 Ry     beta= 0.70
     Davidson diagonalization with overlap
     ethr =  1.79E-08,  avg # of iterations =  2.0

     negative rho (up, down):  1.141E-02 0.000E+00

     total cpu time spent up to now is    12208.6 secs

     total energy              =  -27819.87134863 Ry
     estimated scf accuracy    <       0.00003652 Ry

     iteration # 17     ecut=    60.00 Ry     beta= 0.70
     Davidson diagonalization with overlap
     ethr =  9.64E-09,  avg # of iterations =  2.0

     negative rho (up, down):  1.138E-02 0.000E+00

     total cpu time spent up to now is    12870.8 secs

     total energy              =  -27819.87135512 Ry
     estimated scf accuracy    <       0.00002495 Ry

     iteration # 18     ecut=    60.00 Ry     beta= 0.70
     Davidson diagonalization with overlap
     ethr =  6.58E-09,  avg # of iterations =  2.0

     negative rho (up, down):  1.210E-02 0.000E+00

     total cpu time spent up to now is    13510.7 secs

     total energy              =  -27819.87135467 Ry
     estimated scf accuracy    <       0.00001915 Ry

     iteration # 19     ecut=    60.00 Ry     beta= 0.70
     Davidson diagonalization with overlap
     ethr =  5.05E-09,  avg # of iterations =  1.6

     negative rho (up, down):  1.245E-02 0.000E+00

     total cpu time spent up to now is    14112.2 secs

     total energy              =  -27819.87135505 Ry
     estimated scf accuracy    <       0.00000406 Ry

     iteration # 20     ecut=    60.00 Ry     beta= 0.70
     Davidson diagonalization with overlap
     ethr =  1.07E-09,  avg # of iterations =  4.1

     negative rho (up, down):  1.240E-02 0.000E+00

     total cpu time spent up to now is    15036.8 secs

     total energy              =  -27819.87135641 Ry
     estimated scf accuracy    <       0.00000218 Ry

     iteration # 21     ecut=    60.00 Ry     beta= 0.70
     Davidson diagonalization with overlap
     ethr =  5.76E-10,  avg # of iterations =  2.0

     negative rho (up, down):  1.264E-02 0.000E+00

     total cpu time spent up to now is    15641.2 secs

     End of self-consistent calculation

          k = 0.0000 0.0000 0.0000 ( 92627 PWs)   bands (ev):

   -13.0855 -10.5329  -7.8125  -7.0256  -5.7466  -4.7399  -4.7104  -4.6268
    -4.6245  -4.6197  -4.6111  -4.5851  -4.5795  -4.5746  -4.2934  -4.0635
    -4.0608  -4.0575  -4.0411  -4.0372  -4.0063  -3.6066  -3.5975  -3.5897
    -3.5846  -3.5712  -3.5411  -3.5343  -3.3764  -3.3747  -3.3654  -3.3581
    -3.3468  -3.3116  -3.1501  -3.1439  -3.1378  -3.1286  -3.1274  -3.1240
    -3.1201  -3.1173  -3.0913  -3.0856  -3.0785  -3.0705  -2.8804  -2.5254
    -2.5225  -2.5087  -2.4983  -2.4911  -2.4433  -2.4328  -2.4285  -2.4255
    -2.3958  -2.3004  -2.2849  -2.2237  -2.2076  -2.0850  -2.0178  -1.8201
    -1.7032  -1.7008  -1.6840  -1.6558  -1.6473  -1.6298  -1.5359  -1.5339
    -1.5242  -1.5225  -1.5180  -1.4923  -1.4867  -1.4710  -1.4673  -1.4652
    -1.4475  -1.4456  -1.4339  -1.4147  -1.4117  -1.3512  -1.2939  -1.2887
    -1.2775  -1.2748  -1.2609  -1.1331  -1.1297  -1.1251  -1.0927  -1.0722
    -1.0711  -1.0222  -1.0184  -0.9798  -0.9635  -0.9192  -0.9174  -0.8576
    -0.8572  -0.8273  -0.8180  -0.8176  -0.7566  -0.7479  -0.6714  -0.6655
    -0.6634  -0.6416  -0.6029  -0.5765  -0.2367  -0.2232  -0.2166  -0.1810
    -0.1674  -0.1658  -0.1577  -0.1266  -0.0964  -0.0948  -0.0749  -0.0019
     0.0031   0.0073   0.0173   0.1215   0.1419   0.1435   0.1979   0.2099
     0.2881   0.3013   0.3107   0.3210   0.3244   0.3335   0.3354   0.5581
     0.5592   0.5660   0.5783   0.5815   0.6019   0.6396   0.6406   0.8226
     0.8283   0.8305   0.8470   0.8523   0.9078   0.9870   0.9922   1.0019
     1.0117   1.0146   1.0276   1.0280   1.0438   1.0509   1.0516   1.0617
     1.1270   1.1667   1.1687   1.1742   1.1918   1.1945   1.1964   1.2272
     1.2729   1.2770   1.2776   1.2808   1.3032   1.3125   1.3239   1.3253
     1.3910   1.3918   1.4127   1.4186   1.4203   1.4296   1.4403   1.5112
     1.5168   1.5182   1.5465   1.5472   1.5520   1.7224   1.7252   1.8177
     1.8188   1.8560   1.8600   1.8610   1.8725   2.2057   2.6826   2.7285
     2.7351   2.7414   2.7472   2.7771   3.9770   4.9909   5.0230   5.0628
     5.0670   5.0749   5.7478   5.8351   6.4812   6.6055   6.6263   6.6511
     6.6552   6.6758   6.6779   6.8780

          k = 0.0000 0.2309 0.0000 ( 92512 PWs)   bands (ev):

   -13.0853 -10.5335  -7.8118  -6.8789  -5.6030  -5.1211  -4.7467  -4.7199
    -4.6868  -4.6078  -4.4784  -4.4115  -4.3729  -4.3673  -4.2833  -4.1526
    -4.1392  -3.9938  -3.9900  -3.9679  -3.9252  -3.6882  -3.5855  -3.5565
    -3.5539  -3.5306  -3.5073  -3.4640  -3.4453  -3.4021  -3.3887  -3.3780
    -3.3635  -3.3159  -3.2779  -3.2517  -3.1730  -3.1590  -3.1404  -3.1155
    -3.1042  -2.9454  -2.9380  -2.9232  -2.9107  -2.8880  -2.8544  -2.6509
    -2.6405  -2.6098  -2.5692  -2.5450  -2.5283  -2.5137  -2.3627  -2.3335
    -2.2813  -2.2665  -2.2323  -2.2139  -2.1947  -2.0838  -2.0394  -1.9814
    -1.9067  -1.8857  -1.8319  -1.8033  -1.7726  -1.7420  -1.7067  -1.6780
    -1.6696  -1.6490  -1.6337  -1.5927  -1.5513  -1.5119  -1.5014  -1.4880
    -1.4277  -1.4186  -1.4024  -1.3597  -1.3437  -1.3354  -1.3028  -1.2356
    -1.2306  -1.2209  -1.2192  -1.1600  -1.1373  -1.1173  -1.1135  -1.0907
    -1.0519  -1.0417  -0.9963  -0.9752  -0.9635  -0.9430  -0.9322  -0.8970
    -0.8902  -0.8592  -0.8437  -0.8026  -0.7551  -0.7044  -0.6855  -0.6768
    -0.6584  -0.6522  -0.6355  -0.5971  -0.5907  -0.5623  -0.5594  -0.5063
    -0.4355  -0.3742  -0.2438  -0.2197  -0.1897  -0.1666  -0.1295  -0.1155
    -0.1042  -0.0943  -0.0310   0.0453   0.0647   0.1248   0.1823   0.1993
     0.2403   0.2596   0.2902   0.3082   0.3415   0.3715   0.3813   0.4264
     0.4549   0.4634   0.4755   0.4909   0.6368   0.6492   0.6843   0.6982
     0.7230   0.7493   0.7613   0.8082   0.8374   0.8580   0.8657   0.8931
     0.9407   0.9536   0.9653   0.9824   1.0648   1.0713   1.0924   1.1535
     1.1835   1.1974   1.2256   1.2511   1.2649   1.2906   1.2987   1.3539
     1.3850   1.3921   1.4360   1.4506   1.4541   1.4923   1.4992   1.5021
     1.5079   1.5147   1.5666   1.5764   1.7037   1.7083   1.7492   1.7648
     1.7674   1.7815   1.8117   1.8422   1.8442   1.8639   1.9484   1.9610
     1.9873   2.0326   2.1432   2.1497   2.1679   2.2095   2.4783   2.6020
     3.0133   3.3328   3.3376   3.4681   3.9833   4.4703   4.7404   5.1075
     5.4780   5.4792   5.5991   5.7736   5.8544   6.0694   6.4259   6.4575
     6.5912   6.6373   6.8374   6.8466

          k = 0.0000 0.4619 0.0000 ( 92564 PWs)   bands (ev):

   -13.0851 -10.5344  -7.8108  -6.4565  -5.8213  -5.2023  -4.7773  -4.7535
    -4.7007  -4.6456  -4.4023  -4.3784  -4.2325  -4.1028  -4.0521  -4.0290
    -4.0233  -3.8700  -3.8354  -3.8142  -3.7925  -3.7843  -3.6835  -3.6439
    -3.6430  -3.5994  -3.5847  -3.5513  -3.5358  -3.4904  -3.4539  -3.4478
    -3.4298  -3.1947  -3.1891  -3.1835  -3.1784  -3.1520  -3.1479  -2.9593
    -2.9407  -2.9266  -2.9010  -2.8821  -2.8704  -2.8458  -2.6924  -2.6083
    -2.5903  -2.5858  -2.5754  -2.5331  -2.5198  -2.4599  -2.4471  -2.4405
    -2.3978  -2.3723  -2.2531  -2.2376  -2.2152  -2.1921  -2.1203  -2.0881
    -2.0727  -2.0476  -2.0147  -1.9992  -1.9657  -1.8657  -1.7989  -1.7877
    -1.7721  -1.7563  -1.7035  -1.6833  -1.6721  -1.6403  -1.5518  -1.5382
    -1.5204  -1.4666  -1.4198  -1.4131  -1.3964  -1.3931  -1.3588  -1.3215
    -1.3123  -1.2947  -1.2914  -1.2674  -1.2525  -1.2411  -1.2296  -1.1547
    -1.1503  -1.1375  -1.1100  -1.0852  -1.0754  -1.0364  -0.9565  -0.9466
    -0.9117  -0.8763  -0.8538  -0.8444  -0.8182  -0.7868  -0.7683  -0.6926
    -0.6673  -0.6521  -0.6114  -0.5557  -0.5378  -0.4163  -0.4080  -0.3916
    -0.3620  -0.3265  -0.2680  -0.2611  -0.2307  -0.1958  -0.1854  -0.1771
    -0.1136  -0.1076  -0.1045  -0.0910  -0.0579  -0.0497  -0.0408   0.0062
     0.0349   0.0421   0.1326   0.1378   0.1962   0.2125   0.2560   0.3321
     0.3451   0.3526   0.4571   0.4698   0.5437   0.5963   0.6335   0.6530
     0.6717   0.6865   0.7225   0.7364   0.7854   0.7904   0.8345   0.8655
     0.8824   0.9552   0.9722   0.9922   1.0077   1.0281   1.0462   1.1430
     1.1985   1.2111   1.2609   1.2914   1.2947   1.3132   1.3860   1.4142
     1.4243   1.4881   1.5014   1.5068   1.5667   1.5764   1.5943   1.6214
     1.6987   1.7077   1.7401   1.7558   1.7723   1.7846   1.7855   1.7952
     1.9662   1.9709   1.9888   2.0164   2.0167   2.1785   2.2265   2.4339
     2.6076   2.6819   2.8142   3.0433   3.0533   3.3446   3.4368   3.4719
     3.7857   3.8551   4.2583   4.2670   4.3023   4.4471   4.5324   4.5920
     4.6378   4.9144   4.9200   5.1423   5.5514   5.6887   6.0657   6.1375
     6.2090   6.5497   6.6203   6.7264

          k = 0.2000-0.1155 0.0000 ( 92512 PWs)   bands (ev):

   -13.0854 -10.5330  -7.8124  -6.8791  -5.6040  -5.1239  -4.7456  -4.7188
    -4.6860  -4.6155  -4.4786  -4.4144  -4.3700  -4.3658  -4.2947  -4.1447
    -4.1098  -3.9935  -3.9897  -3.9713  -3.9404  -3.6841  -3.5875  -3.5566
    -3.5440  -3.5363  -3.5089  -3.4616  -3.4498  -3.4007  -3.3929  -3.3798
    -3.3561  -3.3113  -3.2782  -3.2554  -3.1716  -3.1604  -3.1405  -3.1172
    -3.1094  -2.9479  -2.9430  -2.9251  -2.9082  -2.8812  -2.8582  -2.6499
    -2.6438  -2.6165  -2.5624  -2.5539  -2.5296  -2.5041  -2.3647  -2.3174
    -2.2883  -2.2659  -2.2377  -2.2106  -2.1973  -2.0840  -2.0256  -1.9863
    -1.9057  -1.8852  -1.8326  -1.8015  -1.7774  -1.7436  -1.7040  -1.6800
    -1.6693  -1.6480  -1.6322  -1.5925  -1.5490  -1.5143  -1.4991  -1.4865
    -1.4289  -1.4193  -1.4034  -1.3618  -1.3438  -1.3309  -1.3007  -1.2396
    -1.2286  -1.2204  -1.2180  -1.1617  -1.1314  -1.1183  -1.1165  -1.0883
    -1.0489  -1.0442  -0.9943  -0.9770  -0.9630  -0.9410  -0.9327  -0.8944
    -0.8928  -0.8662  -0.8452  -0.8050  -0.7564  -0.7126  -0.6833  -0.6725
    -0.6621  -0.6502  -0.6352  -0.5943  -0.5889  -0.5630  -0.5592  -0.5016
    -0.4506  -0.3609  -0.2414  -0.2232  -0.1941  -0.1630  -0.1290  -0.1200
    -0.1033  -0.0939  -0.0299   0.0458   0.0658   0.1249   0.1816   0.1974
     0.2407   0.2603   0.2854   0.3076   0.3463   0.3731   0.3785   0.4241
     0.4569   0.4635   0.4765   0.4898   0.6349   0.6507   0.6818   0.6962
     0.7244   0.7432   0.7589   0.8132   0.8436   0.8597   0.8668   0.8955
     0.9394   0.9578   0.9647   0.9817   1.0609   1.0713   1.0921   1.1506
     1.1805   1.2003   1.2232   1.2542   1.2661   1.2904   1.3005   1.3506
     1.3812   1.3931   1.4399   1.4517   1.4545   1.4930   1.4974   1.5033
     1.5086   1.5138   1.5655   1.5764   1.7052   1.7063   1.7507   1.7656
     1.7669   1.7803   1.8138   1.8432   1.8453   1.8639   1.9479   1.9629
     1.9873   2.0364   2.1410   2.1508   2.1672   2.1926   2.4749   2.6187
     3.0035   3.3369   3.3533   3.4583   3.9618   4.4759   4.7647   5.0878
     5.4771   5.4793   5.6175   5.7600   5.8548   6.0531   6.4235   6.4505
     6.5853   6.7117   6.8348   6.8533

          k = 0.2000 0.1155 0.0000 ( 92512 PWs)   bands (ev):

   -13.0853 -10.5334  -7.8119  -6.8790  -5.6036  -5.1229  -4.7436  -4.7183
    -4.6897  -4.6103  -4.4785  -4.4139  -4.3719  -4.3651  -4.2859  -4.1451
    -4.1329  -3.9937  -3.9893  -3.9699  -3.9320  -3.6884  -3.5844  -3.5570
    -3.5530  -3.5335  -3.5042  -3.4600  -3.4470  -3.4012  -3.3911  -3.3800
    -3.3619  -3.3165  -3.2765  -3.2542  -3.1759  -3.1567  -3.1423  -3.1136
    -3.1045  -2.9494  -2.9346  -2.9275  -2.8998  -2.8947  -2.8528  -2.6504
    -2.6409  -2.6088  -2.5725  -2.5503  -2.5283  -2.5086  -2.3666  -2.3329
    -2.2835  -2.2660  -2.2293  -2.2106  -2.1925  -2.0931  -2.0363  -1.9806
    -1.9085  -1.8861  -1.8284  -1.8035  -1.7715  -1.7396  -1.7078  -1.6738
    -1.6707  -1.6474  -1.6360  -1.5931  -1.5507  -1.5132  -1.4958  -1.4851
    -1.4328  -1.4192  -1.4066  -1.3621  -1.3430  -1.3338  -1.3020  -1.2375
    -1.2271  -1.2217  -1.2160  -1.1593  -1.1343  -1.1178  -1.1152  -1.0897
    -1.0488  -1.0455  -0.9974  -0.9768  -0.9600  -0.9428  -0.9320  -0.8968
    -0.8902  -0.8621  -0.8425  -0.8041  -0.7565  -0.7070  -0.6831  -0.6716
    -0.6658  -0.6507  -0.6355  -0.5941  -0.5893  -0.5627  -0.5579  -0.5015
    -0.4404  -0.3815  -0.2404  -0.2195  -0.1924  -0.1656  -0.1297  -0.1174
    -0.1066  -0.0961  -0.0314   0.0451   0.0657   0.1240   0.1808   0.1994
     0.2430   0.2586   0.2879   0.3109   0.3384   0.3711   0.3832   0.4253
     0.4542   0.4627   0.4772   0.4912   0.6382   0.6491   0.6843   0.6983
     0.7235   0.7489   0.7615   0.8115   0.8410   0.8554   0.8665   0.8865
     0.9392   0.9551   0.9666   0.9820   1.0626   1.0720   1.0926   1.1539
     1.1828   1.2001   1.2232   1.2521   1.2657   1.2901   1.2989   1.3540
     1.3857   1.3929   1.4374   1.4494   1.4557   1.4924   1.4981   1.5029
     1.5090   1.5152   1.5652   1.5760   1.7037   1.7066   1.7503   1.7652
     1.7664   1.7818   1.8137   1.8438   1.8448   1.8648   1.9457   1.9618
     1.9873   2.0372   2.1409   2.1511   2.1682   2.1993   2.4755   2.6167
     3.0075   3.3317   3.3502   3.4582   3.9718   4.4768   4.7596   5.0940
     5.4773   5.4787   5.6052   5.7663   5.8510   6.0648   6.4164   6.4585
     6.5880   6.6984   6.8378   6.8545

          k = 0.2000 0.3464 0.0000 ( 92554 PWs)   bands (ev):

   -13.0852 -10.5343  -7.8108  -6.5937  -5.3788  -5.3602  -5.3288  -4.7021
    -4.5046  -4.3020  -4.2902  -4.2759  -4.2600  -4.2319  -4.2153  -4.1994
    -4.1081  -4.0952  -4.0597  -3.7323  -3.7202  -3.7056  -3.6963  -3.6325
    -3.6085  -3.5579  -3.4762  -3.4577  -3.4544  -3.4366  -3.4151  -3.3510
    -3.3153  -3.2922  -3.2850  -3.2765  -3.2205  -3.1872  -3.1750  -3.1438
    -3.1062  -3.0440  -2.9041  -2.7932  -2.7076  -2.7025  -2.6755  -2.6620
    -2.6406  -2.6374  -2.6095  -2.5756  -2.5638  -2.4364  -2.4149  -2.3985
    -2.3129  -2.2863  -2.2449  -2.2369  -2.2126  -2.1581  -2.1339  -2.0966
    -2.0560  -1.9779  -1.9416  -1.9300  -1.8735  -1.8380  -1.8331  -1.8194
    -1.8038  -1.7525  -1.7376  -1.6451  -1.6001  -1.5794  -1.5650  -1.5317
    -1.4980  -1.4868  -1.4528  -1.4264  -1.4084  -1.3672  -1.3028  -1.2791
    -1.2715  -1.2520  -1.2457  -1.2223  -1.2120  -1.1841  -1.1730  -1.1170
    -1.1076  -1.0679  -1.0248  -1.0115  -0.9918  -0.9506  -0.9280  -0.9074
    -0.8942  -0.8822  -0.8542  -0.8433  -0.8273  -0.8090  -0.8042  -0.7776
    -0.7420  -0.7235  -0.7031  -0.6300  -0.5947  -0.5817  -0.5516  -0.5100
    -0.4633  -0.4526  -0.3530  -0.3105  -0.2431  -0.1764  -0.1564  -0.1260
    -0.1222  -0.1107  -0.0882  -0.0495  -0.0295  -0.0128  -0.0044   0.0544
     0.0905   0.1417   0.2010   0.2655   0.2896   0.3135   0.3388   0.3678
     0.3921   0.4054   0.4976   0.5168   0.5243   0.5758   0.5878   0.6400
     0.7008   0.7200   0.7376   0.7631   0.8007   0.8194   0.8274   0.8367
     0.8451   0.8606   0.8692   0.8934   0.9695   1.0566   1.0842   1.1087
     1.1916   1.2161   1.2964   1.3727   1.3881   1.3952   1.4261   1.4947
     1.5146   1.5289   1.5430   1.5636   1.5896   1.5963   1.6002   1.6164
     1.6465   1.6698   1.6839   1.7432   1.7765   1.7813   1.8182   1.8264
     1.8700   1.9588   2.0218   2.0613   2.0917   2.1163   2.1413   2.1420
     2.2773   2.2814   2.5861   2.8016   2.8182   3.1285   3.3448   3.3519
     3.3833   3.6453   4.0370   4.0783   4.2768   4.2860   4.3256   4.7740
     4.9994   5.4638   5.4901   5.7020   5.7051   6.0471   6.1371   6.1660
     6.2745   6.2910   6.3100   6.5998

          k = 0.2000-0.5774 0.0000 ( 92542 PWs)   bands (ev):

   -13.0851 -10.5344  -7.8108  -6.0727  -6.0449  -5.4530  -4.8722  -4.8286
    -4.6909  -4.4396  -4.2871  -4.2107  -4.1524  -4.1138  -4.0118  -4.0002
    -3.9058  -3.8901  -3.8063  -3.7846  -3.7644  -3.7491  -3.7330  -3.7073
    -3.6790  -3.5877  -3.5684  -3.5524  -3.5465  -3.5117  -3.4910  -3.4316
    -3.3513  -3.3085  -3.2461  -3.1675  -3.1592  -3.1531  -3.1322  -3.1018
    -3.0447  -3.0160  -2.9395  -2.9074  -2.8766  -2.7390  -2.7244  -2.6748
    -2.5946  -2.5790  -2.5283  -2.5159  -2.4101  -2.3734  -2.3426  -2.3240
    -2.3015  -2.2585  -2.2523  -2.2190  -2.1822  -2.1222  -2.1115  -2.1005
    -2.0814  -2.0773  -2.0655  -2.0366  -2.0148  -1.9949  -1.9553  -1.8555
    -1.8492  -1.8127  -1.7790  -1.7084  -1.6871  -1.6556  -1.6380  -1.6148
    -1.5910  -1.5591  -1.5403  -1.4556  -1.4502  -1.4349  -1.4044  -1.3943
    -1.3722  -1.3047  -1.2648  -1.2458  -1.2267  -1.2132  -1.1804  -1.1268
    -1.0650  -1.0345  -1.0180  -1.0114  -0.9967  -0.9701  -0.9601  -0.9232
    -0.9166  -0.8875  -0.8737  -0.8665  -0.8400  -0.8202  -0.8046  -0.7901
    -0.7840  -0.7699  -0.7392  -0.7195  -0.6965  -0.6348  -0.5013  -0.4711
    -0.3866  -0.3750  -0.3647  -0.2905  -0.2647  -0.2291  -0.1999  -0.1878
    -0.1707  -0.1479  -0.1256  -0.0898  -0.0546  -0.0229   0.0113   0.0282
     0.0545   0.0884   0.1146   0.1632   0.2624   0.3051   0.3364   0.3829
     0.4046   0.4314   0.4742   0.4879   0.5124   0.5232   0.5315   0.5746
     0.5897   0.6280   0.6777   0.6975   0.7356   0.7638   0.7784   0.7873
     0.8090   0.8306   0.9150   0.9556   1.0412   1.0630   1.1383   1.1839
     1.2205   1.2344   1.3068   1.3525   1.3544   1.3904   1.4571   1.5040
     1.5318   1.5531   1.5730   1.5795   1.6007   1.6315   1.6509   1.7343
     1.7359   1.7494   1.7723   1.7921   1.7994   1.8091   1.8630   1.9685
     1.9822   2.0053   2.0128   2.0234   2.0760   2.1209   2.1980   2.3248
     2.9309   3.1567   3.1604   3.3597   3.4217   3.5289   3.5467   3.5714
     3.7710   4.1567   4.1696   4.2735   4.6253   4.6487   4.7468   4.7647
     4.7898   4.9760   5.0704   5.1482   5.2952   5.5603   5.6073   5.7139
     6.1830   6.2517   6.2631   6.4546

          k = 0.2000-0.3464 0.0000 ( 92554 PWs)   bands (ev):

   -13.0853 -10.5336  -7.8118  -6.5938  -5.3793  -5.3601  -5.3304  -4.7050
    -4.5119  -4.2997  -4.2910  -4.2785  -4.2535  -4.2347  -4.2150  -4.1961
    -4.1082  -4.0944  -4.0495  -3.7310  -3.7165  -3.7072  -3.6963  -3.6417
    -3.6123  -3.5447  -3.4781  -3.4582  -3.4524  -3.4330  -3.4216  -3.3541
    -3.3184  -3.2883  -3.2818  -3.2731  -3.2217  -3.1919  -3.1645  -3.1464
    -3.1133  -3.0462  -2.9175  -2.7939  -2.7087  -2.6999  -2.6747  -2.6586
    -2.6476  -2.6385  -2.6156  -2.5769  -2.5605  -2.4200  -2.4056  -2.3905
    -2.3214  -2.2854  -2.2420  -2.2303  -2.2254  -2.1653  -2.1360  -2.0791
    -2.0449  -1.9907  -1.9442  -1.9333  -1.8706  -1.8438  -1.8342  -1.8283
    -1.8042  -1.7479  -1.7303  -1.6393  -1.6017  -1.5808  -1.5650  -1.5310
    -1.4990  -1.4881  -1.4521  -1.4289  -1.4052  -1.3668  -1.3046  -1.2785
    -1.2698  -1.2540  -1.2452  -1.2232  -1.2091  -1.1860  -1.1714  -1.1155
    -1.1087  -1.0701  -1.0241  -1.0107  -0.9905  -0.9516  -0.9257  -0.9083
    -0.8944  -0.8813  -0.8589  -0.8442  -0.8310  -0.8113  -0.8025  -0.7788
    -0.7378  -0.7242  -0.7016  -0.6313  -0.5962  -0.5824  -0.5443  -0.5133
    -0.4601  -0.4533  -0.3565  -0.3107  -0.2403  -0.1777  -0.1584  -0.1258
    -0.1191  -0.1104  -0.0861  -0.0494  -0.0286  -0.0152   0.0026   0.0633
     0.0912   0.1316   0.2015   0.2615   0.2952   0.3114   0.3357   0.3661
     0.3922   0.4024   0.4986   0.5170   0.5239   0.5769   0.5880   0.6384
     0.7055   0.7217   0.7437   0.7598   0.7963   0.8207   0.8260   0.8337
     0.8455   0.8611   0.8750   0.8950   0.9700   1.0465   1.0783   1.1147
     1.1882   1.2110   1.2963   1.3714   1.3895   1.3936   1.4310   1.4991
     1.5146   1.5274   1.5425   1.5644   1.5908   1.5949   1.6013   1.6178
     1.6459   1.6736   1.6812   1.7445   1.7773   1.7815   1.8182   1.8266
     1.8694   1.9575   2.0212   2.0607   2.0856   2.1192   2.1391   2.1475
     2.2776   2.2793   2.5796   2.7991   2.8168   3.1291   3.3454   3.3535
     3.3879   3.6440   4.0350   4.0726   4.2750   4.2855   4.3243   4.7760
     5.0012   5.4636   5.4966   5.6855   5.7104   6.0382   6.1361   6.1814
     6.2638   6.2827   6.3085   6.6206

          k = 0.4000-0.2309 0.0000 ( 92564 PWs)   bands (ev):

   -13.0853 -10.5331  -7.8123  -6.4571  -5.8228  -5.2081  -4.7781  -4.7516
    -4.7158  -4.6486  -4.4169  -4.3476  -4.2304  -4.1006  -4.0341  -4.0277
    -4.0150  -3.8751  -3.8438  -3.8104  -3.7961  -3.7938  -3.6730  -3.6478
    -3.6387  -3.6021  -3.5881  -3.5436  -3.5346  -3.4946  -3.4517  -3.4474
    -3.4198  -3.1933  -3.1918  -3.1857  -3.1778  -3.1570  -3.1517  -2.9780
    -2.9358  -2.9312  -2.9060  -2.8873  -2.8771  -2.8301  -2.7045  -2.6063
    -2.5959  -2.5897  -2.5675  -2.5306  -2.5198  -2.4667  -2.4534  -2.4408
    -2.3845  -2.3753  -2.2510  -2.2360  -2.2208  -2.1805  -2.1154  -2.0904
    -2.0623  -2.0371  -2.0167  -1.9968  -1.9632  -1.8664  -1.7999  -1.7906
    -1.7781  -1.7540  -1.7054  -1.6864  -1.6672  -1.6397  -1.5499  -1.5403
    -1.5186  -1.4665  -1.4161  -1.4071  -1.3956  -1.3918  -1.3601  -1.3212
    -1.3068  -1.2937  -1.2904  -1.2691  -1.2518  -1.2402  -1.2325  -1.1539
    -1.1470  -1.1359  -1.1102  -1.0815  -1.0747  -1.0354  -0.9596  -0.9486
    -0.9062  -0.8757  -0.8583  -0.8424  -0.8236  -0.7869  -0.7794  -0.6921
    -0.6686  -0.6521  -0.6124  -0.5620  -0.5384  -0.4155  -0.4114  -0.4000
    -0.3581  -0.3296  -0.2693  -0.2624  -0.2275  -0.1935  -0.1823  -0.1769
    -0.1125  -0.1073  -0.1056  -0.0806  -0.0610  -0.0582  -0.0355   0.0099
     0.0311   0.0471   0.1295   0.1367   0.1968   0.2129   0.2542   0.3267
     0.3456   0.3530   0.4558   0.4741   0.5420   0.5998   0.6300   0.6548
     0.6710   0.6853   0.7219   0.7361   0.7892   0.7924   0.8336   0.8657
     0.8864   0.9558   0.9695   0.9899   1.0071   1.0284   1.0453   1.1284
     1.2035   1.2172   1.2596   1.2904   1.2968   1.3139   1.3854   1.4088
     1.4246   1.4913   1.5013   1.5104   1.5709   1.5754   1.5941   1.6228
     1.6943   1.7093   1.7410   1.7547   1.7740   1.7812   1.7858   1.7951
     1.9659   1.9696   1.9891   2.0159   2.0181   2.1790   2.2266   2.4244
     2.6239   2.6745   2.8124   3.0440   3.0542   3.3440   3.4396   3.4618
     3.7861   3.8485   4.2598   4.2676   4.2983   4.4525   4.5464   4.5755
     4.6552   4.9101   4.9186   5.1236   5.5520   5.7041   6.0824   6.1296
     6.1853   6.5646   6.6360   6.7003

          k = 0.4000-0.0000 0.0000 ( 92554 PWs)   bands (ev):

   -13.0853 -10.5334  -7.8118  -6.5941  -5.3802  -5.3598  -5.3320  -4.7055
    -4.5131  -4.2964  -4.2921  -4.2850  -4.2495  -4.2356  -4.2149  -4.1921
    -4.1099  -4.0916  -4.0412  -3.7326  -3.7164  -3.7069  -3.6969  -3.6456
    -3.6144  -3.5459  -3.4774  -3.4595  -3.4534  -3.4286  -3.4200  -3.3532
    -3.3198  -3.2879  -3.2824  -3.2736  -3.2222  -3.1906  -3.1630  -3.1469
    -3.1183  -3.0483  -2.9032  -2.7930  -2.7070  -2.7015  -2.6861  -2.6598
    -2.6483  -2.6378  -2.6222  -2.5781  -2.5599  -2.4228  -2.4128  -2.3894
    -2.3179  -2.2903  -2.2372  -2.2313  -2.2194  -2.1614  -2.1358  -2.0971
    -2.0297  -1.9867  -1.9423  -1.9328  -1.8706  -1.8455  -1.8292  -1.8243
    -1.8012  -1.7502  -1.7366  -1.6420  -1.6022  -1.5729  -1.5650  -1.5322
    -1.5003  -1.4815  -1.4536  -1.4292  -1.4029  -1.3668  -1.3050  -1.2782
    -1.2699  -1.2541  -1.2438  -1.2243  -1.2086  -1.1853  -1.1716  -1.1155
    -1.1079  -1.0709  -1.0250  -1.0111  -0.9923  -0.9502  -0.9282  -0.9101
    -0.8942  -0.8811  -0.8549  -0.8429  -0.8306  -0.8156  -0.8021  -0.7778
    -0.7407  -0.7242  -0.6994  -0.6320  -0.5994  -0.5815  -0.5491  -0.5137
    -0.4637  -0.4491  -0.3580  -0.3125  -0.2426  -0.1814  -0.1585  -0.1246
    -0.1147  -0.1091  -0.0892  -0.0481  -0.0316  -0.0155   0.0047   0.0568
     0.0886   0.1364   0.2008   0.2617   0.2948   0.3139   0.3355   0.3662
     0.3939   0.4026   0.4978   0.5177   0.5260   0.5784   0.5890   0.6381
     0.7075   0.7188   0.7420   0.7603   0.7975   0.8200   0.8254   0.8376
     0.8446   0.8622   0.8734   0.8971   0.9676   1.0489   1.0779   1.1111
     1.1876   1.2129   1.2959   1.3712   1.3911   1.3940   1.4344   1.4970
     1.5147   1.5286   1.5420   1.5614   1.5920   1.5950   1.6006   1.6164
     1.6449   1.6735   1.6822   1.7443   1.7763   1.7822   1.8182   1.8260
     1.8686   1.9582   2.0235   2.0629   2.0824   2.1199   2.1414   2.1517
     2.2761   2.2790   2.5726   2.8006   2.8172   3.1272   3.3474   3.3568
     3.3900   3.6496   4.0347   4.0707   4.2735   4.2801   4.3249   4.7837
     4.9992   5.4637   5.5015   5.6817   5.7073   6.0301   6.1538   6.1949
     6.2484   6.2773   6.3052   6.6185

          k = 0.4000 0.2309 0.0000 ( 92564 PWs)   bands (ev):

   -13.0852 -10.5342  -7.8108  -6.4569  -5.8223  -5.2051  -4.7736  -4.7516
    -4.7122  -4.6439  -4.4088  -4.3645  -4.2321  -4.1017  -4.0431  -4.0266
    -4.0199  -3.8751  -3.8407  -3.8135  -3.7937  -3.7901  -3.6775  -3.6448
    -3.6395  -3.6043  -3.5878  -3.5541  -3.5291  -3.4834  -3.4527  -3.4484
    -3.4340  -3.1920  -3.1905  -3.1837  -3.1786  -3.1550  -3.1479  -2.9645
    -2.9379  -2.9172  -2.9017  -2.8914  -2.8621  -2.8464  -2.6956  -2.6132
    -2.5927  -2.5858  -2.5817  -2.5334  -2.5232  -2.4590  -2.4492  -2.4407
    -2.3977  -2.3730  -2.2532  -2.2376  -2.2149  -2.2012  -2.1075  -2.0941
    -2.0646  -2.0462  -2.0196  -1.9844  -1.9695  -1.8674  -1.8041  -1.7914
    -1.7771  -1.7484  -1.6967  -1.6855  -1.6785  -1.6284  -1.5533  -1.5391
    -1.5140  -1.4664  -1.4232  -1.4103  -1.3931  -1.3915  -1.3582  -1.3211
    -1.3098  -1.2946  -1.2921  -1.2682  -1.2530  -1.2366  -1.2315  -1.1561
    -1.1488  -1.1352  -1.1099  -1.0854  -1.0771  -1.0326  -0.9590  -0.9482
    -0.9111  -0.8777  -0.8570  -0.8415  -0.8211  -0.7879  -0.7737  -0.6900
    -0.6673  -0.6517  -0.6116  -0.5580  -0.5373  -0.4167  -0.4109  -0.3959
    -0.3583  -0.3266  -0.2717  -0.2620  -0.2281  -0.1934  -0.1842  -0.1768
    -0.1161  -0.1087  -0.1029  -0.0939  -0.0588  -0.0549  -0.0381   0.0072
     0.0301   0.0456   0.1317   0.1370   0.1954   0.2115   0.2555   0.3362
     0.3461   0.3513   0.4601   0.4687   0.5392   0.5974   0.6319   0.6532
     0.6712   0.6853   0.7204   0.7370   0.7871   0.7912   0.8345   0.8649
     0.8843   0.9564   0.9701   0.9913   1.0079   1.0288   1.0503   1.1361
     1.2041   1.2127   1.2585   1.2918   1.2948   1.3133   1.3853   1.4130
     1.4244   1.4917   1.5005   1.5058   1.5631   1.5759   1.5942   1.6216
     1.6975   1.7092   1.7411   1.7548   1.7744   1.7832   1.7864   1.7960
     1.9661   1.9702   1.9906   2.0167   2.0191   2.1785   2.2264   2.4315
     2.6228   2.6816   2.8127   3.0414   3.0541   3.3457   3.4379   3.4639
     3.7850   3.8546   4.2576   4.2675   4.3001   4.4547   4.5371   4.5809
     4.6563   4.9134   4.9164   5.1303   5.5531   5.7080   6.0670   6.1300
     6.1966   6.5485   6.6391   6.7155

          k = 0.4000-0.6928 0.0000 ( 92542 PWs)   bands (ev):

   -13.0851 -10.5343  -7.8108  -6.0718  -6.0471  -5.4518  -4.8815  -4.8323
    -4.6830  -4.4241  -4.2917  -4.2203  -4.1522  -4.1142  -4.0112  -4.0006
    -3.9050  -3.8925  -3.8000  -3.7833  -3.7645  -3.7472  -3.7298  -3.7059
    -3.6711  -3.5894  -3.5693  -3.5595  -3.5462  -3.5151  -3.4947  -3.4259
    -3.3526  -3.3083  -3.2492  -3.1697  -3.1593  -3.1552  -3.1281  -3.1067
    -3.0347  -3.0195  -2.9346  -2.9054  -2.8823  -2.7380  -2.7253  -2.6771
    -2.5975  -2.5793  -2.5319  -2.5189  -2.4135  -2.3727  -2.3386  -2.3249
    -2.3014  -2.2570  -2.2493  -2.2241  -2.1874  -2.1323  -2.1129  -2.0933
    -2.0759  -2.0726  -2.0642  -2.0226  -2.0171  -1.9978  -1.9654  -1.8584
    -1.8409  -1.8108  -1.7906  -1.7073  -1.6832  -1.6566  -1.6338  -1.6068
    -1.5899  -1.5559  -1.5422  -1.4520  -1.4503  -1.4378  -1.4008  -1.3893
    -1.3697  -1.3075  -1.2655  -1.2469  -1.2244  -1.2179  -1.1855  -1.1253
    -1.0630  -1.0325  -1.0181  -1.0100  -0.9970  -0.9709  -0.9602  -0.9238
    -0.9178  -0.8872  -0.8758  -0.8663  -0.8421  -0.8194  -0.8033  -0.7925
    -0.7846  -0.7701  -0.7382  -0.7187  -0.6973  -0.6414  -0.5025  -0.4741
    -0.3866  -0.3748  -0.3683  -0.2899  -0.2655  -0.2274  -0.2000  -0.1859
    -0.1701  -0.1454  -0.1263  -0.0869  -0.0566  -0.0218   0.0119   0.0262
     0.0565   0.0897   0.1129   0.1615   0.2630   0.3078   0.3361   0.3837
     0.4027   0.4307   0.4749   0.4858   0.5125   0.5239   0.5310   0.5738
     0.5887   0.6267   0.6770   0.6978   0.7348   0.7627   0.7766   0.7878
     0.8091   0.8314   0.9194   0.9549   1.0400   1.0634   1.1331   1.1855
     1.2213   1.2344   1.3082   1.3534   1.3573   1.3912   1.4570   1.5060
     1.5309   1.5512   1.5741   1.5793   1.6033   1.6316   1.6489   1.7333
     1.7364   1.7496   1.7700   1.7917   1.7958   1.8101   1.8628   1.9688
     1.9815   2.0059   2.0140   2.0250   2.0773   2.1238   2.1980   2.3246
     2.9344   3.1570   3.1609   3.3390   3.4308   3.5304   3.5471   3.5744
     3.7816   4.1535   4.1701   4.2751   4.6277   4.6442   4.7485   4.7598
     4.7875   4.9820   5.0693   5.1199   5.3315   5.5591   5.6029   5.7298
     6.1696   6.2462   6.2551   6.4377

          k = 0.4000-0.4619 0.0000 ( 92542 PWs)   bands (ev):

   -13.0852 -10.5336  -7.8117  -6.0705  -6.0489  -5.4512  -4.8901  -4.8358
    -4.6807  -4.4102  -4.2971  -4.2234  -4.1501  -4.1148  -4.0121  -4.0021
    -3.9052  -3.8940  -3.7949  -3.7802  -3.7651  -3.7467  -3.7254  -3.7019
    -3.6669  -3.5896  -3.5724  -3.5607  -3.5440  -3.5121  -3.4998  -3.4311
    -3.3423  -3.3084  -3.2529  -3.1724  -3.1602  -3.1560  -3.1286  -3.1050
    -3.0490  -3.0242  -2.9320  -2.9087  -2.8812  -2.7379  -2.7236  -2.6879
    -2.5966  -2.5690  -2.5283  -2.5178  -2.4140  -2.3725  -2.3423  -2.3184
    -2.2978  -2.2635  -2.2497  -2.2308  -2.1714  -2.1224  -2.1111  -2.0986
    -2.0794  -2.0692  -2.0647  -2.0269  -2.0132  -1.9909  -1.9678  -1.8606
    -1.8513  -1.8087  -1.7801  -1.7129  -1.6859  -1.6490  -1.6423  -1.6139
    -1.5908  -1.5542  -1.5396  -1.4529  -1.4500  -1.4349  -1.3994  -1.3941
    -1.3671  -1.3094  -1.2657  -1.2438  -1.2236  -1.2197  -1.1801  -1.1258
    -1.0629  -1.0328  -1.0216  -1.0088  -0.9966  -0.9696  -0.9590  -0.9235
    -0.9163  -0.8864  -0.8743  -0.8675  -0.8376  -0.8208  -0.8057  -0.7953
    -0.7864  -0.7684  -0.7421  -0.7174  -0.6962  -0.6408  -0.5052  -0.4735
    -0.3865  -0.3755  -0.3680  -0.2893  -0.2658  -0.2281  -0.2014  -0.1835
    -0.1730  -0.1434  -0.1291  -0.0857  -0.0543  -0.0207   0.0057   0.0254
     0.0673   0.0879   0.1125   0.1625   0.2601   0.3006   0.3375   0.3841
     0.4019   0.4276   0.4755   0.4897   0.5188   0.5252   0.5303   0.5804
     0.5886   0.6235   0.6817   0.6908   0.7356   0.7635   0.7795   0.7895
     0.8086   0.8342   0.9141   0.9565   1.0347   1.0643   1.1298   1.1878
     1.2198   1.2322   1.3077   1.3502   1.3553   1.3908   1.4591   1.5072
     1.5314   1.5544   1.5747   1.5793   1.6020   1.6329   1.6520   1.7322
     1.7366   1.7468   1.7714   1.7914   1.7940   1.8108   1.8630   1.9672
     1.9823   2.0059   2.0133   2.0244   2.0774   2.1238   2.1979   2.3241
     2.9349   3.1571   3.1606   3.3232   3.4323   3.5314   3.5507   3.5664
     3.7901   4.1611   4.1710   4.2670   4.6232   4.6415   4.7542   4.7692
     4.7904   4.9794   5.0709   5.0980   5.3370   5.5544   5.6020   5.7461
     6.1289   6.2499   6.2647   6.4241

     the Fermi energy is     1.7796 ev

!    total energy              =  -27819.87135534 Ry

     total all-electron energy =  -1326879.929037 Ry
     estimated scf accuracy    <       0.00000082 Ry
     smearing contrib. (-TS)   =       0.00252038 Ry
     internal energy E=F+TS    =  -27819.87387572 Ry

     The total energy is F=E-TS. E is the sum of the following terms:
     one-electron contribution =  -29143.00701797 Ry
     hartree contribution      =   14875.67446334 Ry
     xc contribution           =    -909.82128031 Ry
     ewald contribution        =   12850.86927258 Ry
     one-center paw contrib.   =  -25493.58931336 Ry

     convergence has been achieved in  21 iterations

     negative rho (up, down):  1.264E-02 0.000E+00

     Forces acting on atoms (cartesian axes, Ry/au):

     atom    1 type  1   force =     0.00035659    0.00047440   -0.00341590
     atom    2 type  1   force =    -0.00042228    0.00055384   -0.00356734
     atom    3 type  1   force =    -0.00004399   -0.00005032   -0.00324943
     atom    4 type  1   force =     0.00010917    0.00001192   -0.00699351
     atom    5 type  1   force =    -0.00063753    0.00002289   -0.00347647
     atom    6 type  1   force =     0.00053347    0.00003581   -0.00327792
     atom    7 type  1   force =    -0.00043034   -0.00056084   -0.00356118
     atom    8 type  1   force =    -0.00001648   -0.00003165   -0.00328574
     atom    9 type  1   force =     0.00030399   -0.00050484   -0.00332276
     atom   10 type  1   force =    -0.00021898   -0.00005369   -0.00108867
     atom   11 type  1   force =     0.00019004    0.00000229    0.00092750
     atom   12 type  1   force =     0.00015155    0.00009646    0.00122455
     atom   13 type  1   force =    -0.00012211    0.00035172   -0.00113463
     atom   14 type  1   force =     0.00036005    0.00230192    0.00945206
     atom   15 type  1   force =    -0.00025673    0.00034372   -0.00111082
     atom   16 type  1   force =     0.00188614   -0.00098512    0.00953933
     atom   17 type  1   force =    -0.00178954   -0.00123810    0.00974031
     atom   18 type  1   force =     0.00013388   -0.00014728    0.00160007
     atom   19 type  1   force =    -0.00001902   -0.00007063    0.00011927
     atom   20 type  1   force =    -0.00016950    0.00008818    0.00001829
     atom   21 type  1   force =    -0.00001927   -0.00013881   -0.00007477
     atom   22 type  1   force =    -0.00004092   -0.00003867    0.00025970
     atom   23 type  1   force =    -0.00006218    0.00006360    0.00018021
     atom   24 type  1   force =     0.00007187   -0.00001119    0.00029966
     atom   25 type  1   force =    -0.00025690   -0.00003121    0.00004442
     atom   26 type  1   force =    -0.00016226   -0.00013129    0.00020600
     atom   27 type  1   force =     0.00008722   -0.00006813   -0.00012324
     atom   28 type  1   force =    -0.00012539   -0.00029693    0.00012476
     atom   29 type  1   force =    -0.00003759   -0.00003754    0.00008246
     atom   30 type  1   force =    -0.00010325   -0.00010610    0.00038861
     atom   31 type  1   force =    -0.00000142   -0.00005419    0.00035786
     atom   32 type  1   force =    -0.00007523   -0.00003065    0.00023206
     atom   33 type  1   force =    -0.00009290   -0.00023023    0.00012671
     atom   34 type  1   force =     0.00008817    0.00004897    0.00033296
     atom   35 type  1   force =     0.00018705   -0.00013660    0.00040505
     atom   36 type  1   force =     0.00013098   -0.00005295    0.00040330
     atom   37 type  2   force =     0.00079720    0.00033543    0.00016829
     atom   38 type  2   force =     0.00030933    0.00028419    0.00285522
     atom   39 type  2   force =     0.00201822    0.00042102    0.00328466
     atom   40 type  3   force =    -0.00053075    0.00026232   -0.00049749
     atom   41 type  3   force =    -0.00006854    0.00011835   -0.00038572
     atom   42 type  3   force =    -0.00068044    0.00047368   -0.00021294
     atom   43 type  3   force =    -0.00021396   -0.00001204   -0.00072213
     atom   44 type  3   force =    -0.00033505   -0.00037087   -0.00052221
     atom   45 type  3   force =    -0.00192996   -0.00013789    0.00000040
     atom   46 type  3   force =     0.00114762   -0.00076293   -0.00235080

     Total force =     0.006282     Total SCF correction =     0.003338
     SCF correction compared to forces is large: reduce conv_thr to get better values

     negative rho (up, down):  1.264E-02 0.000E+00

     negative rho (up, down):  1.264E-02 0.000E+00

     negative rho (up, down):  1.264E-02 0.000E+00

     negative rho (up, down):  1.264E-02 0.000E+00

     negative rho (up, down):  1.264E-02 0.000E+00

     negative rho (up, down):  1.264E-02 0.000E+00

     negative rho (up, down):  1.264E-02 0.000E+00

     negative rho (up, down):  1.264E-02 0.000E+00

     negative rho (up, down):  1.264E-02 0.000E+00

     negative rho (up, down):  1.264E-02 0.000E+00

     negative rho (up, down):  1.264E-02 0.000E+00

     negative rho (up, down):  1.264E-02 0.000E+00

     negative rho (up, down):  1.264E-02 0.000E+00

     negative rho (up, down):  1.264E-02 0.000E+00

     negative rho (up, down):  1.264E-02 0.000E+00

     negative rho (up, down):  1.264E-02 0.000E+00

     negative rho (up, down):  1.264E-02 0.000E+00

     negative rho (up, down):  1.264E-02 0.000E+00

     negative rho (up, down):  1.264E-02 0.000E+00

     negative rho (up, down):  1.264E-02 0.000E+00

     negative rho (up, down):  1.264E-02 0.000E+00

     negative rho (up, down):  1.264E-02 0.000E+00

     negative rho (up, down):  1.264E-02 0.000E+00

     negative rho (up, down):  1.264E-02 0.000E+00

     negative rho (up, down):  1.264E-02 0.000E+00

     negative rho (up, down):  1.264E-02 0.000E+00

     negative rho (up, down):  1.264E-02 0.000E+00

     negative rho (up, down):  1.264E-02 0.000E+00

     negative rho (up, down):  1.264E-02 0.000E+00

     negative rho (up, down):  1.264E-02 0.000E+00

     negative rho (up, down):  1.264E-02 0.000E+00

     negative rho (up, down):  1.264E-02 0.000E+00

     negative rho (up, down):  1.264E-02 0.000E+00

     negative rho (up, down):  1.264E-02 0.000E+00
 BEEFens 2000 ensemble energies
             -0.609457617075665E+02
             -0.361902510818359E+01
             -0.158684726335084E+02
              0.431250973007923E+02
             -0.222058712363823E+02
             -0.205756162492293E+02
             -0.354436232698624E+02
             -0.868914340131586E+02
             -0.465892100502401E+02
             -0.473691631126221E+02
             -0.370824969622535E+02
              0.233233626897880E+01
              0.408414771853967E+01
              0.756810665207993E+01
              0.266818429045895E+01
              0.476844660618161E+02
             -0.209322114933384E+02
             -0.229934763084907E+02
              0.194041765984432E+02
             -0.112819323511661E+03
              0.538596397172153E+02
             -0.290416116500618E+02
             -0.337175412388336E+01
             -0.114387612103091E+02
             -0.878071094896040E+01
             -0.460770176273863E+01
              0.886100782988512E+02
             -0.188737757288880E+02
             -0.900615768017349E+01
             -0.520699635374105E+02
              0.817444266960824E+02
             -0.186784660844852E+02
             -0.376478546816018E+02
              0.249524127818183E+02
             -0.285870997342482E+01
              0.165673491803683E+02
             -0.482951116713144E+01
              0.107766161866027E+02
              0.290516543144747E+02
             -0.103610078392254E+03
              0.560725049656872E+02
              0.142972708418573E+02
             -0.181952812517289E+01
             -0.362306858735925E+02
              0.123741527625097E+02
             -0.147975098005972E+02
              0.400551932320391E+02
              0.366019963554899E+02
             -0.308414034655864E+02
             -0.276258784961320E+02
             -0.329763678511429E+02
             -0.353813188561664E+02
              0.137844991807592E+02
             -0.492738103136629E+02
              0.116419230590385E+02
              0.625535709952885E+02
              0.638753792641691E+02
              0.357135506570593E+02
              0.154465676663229E+02
              0.272223420835652E+02
              0.895317850797619E+02
              0.212672385380994E+02
             -0.550631187262546E+02
             -0.157200217615890E+02
             -0.237226628132750E+02
              0.632028860775308E+02
             -0.775698950428868E+02
             -0.674136199775556E+02
             -0.261411312779477E+02
             -0.663300393890972E+01
             -0.471634693485114E+02
              0.271823772701093E+02
              0.806376165221423E+01
              0.874471682470755E+01
             -0.399007478835418E+02
             -0.348255416340373E+02
             -0.544483059118973E+02
              0.391141908364791E+02
             -0.297588800900916E+02
              0.267036038349910E+02
             -0.722372446109181E+01
             -0.318872062441891E+02
             -0.577606817668921E+02
             -0.177040249050590E+02
             -0.911015738307458E+01
             -0.124881472058973E+02
              0.413894895575303E+02
              0.686526031407637E+02
             -0.387495880976258E+02
             -0.797510742937980E+02
             -0.220255752575949E+02
              0.111898394901595E+03
             -0.594988721516420E+02
              0.357262179563554E+02
             -0.962674050080409E+01
             -0.665077073463113E+02
              0.255301691972019E+02
              0.398740549589508E+02
             -0.199577951122724E+02
              0.401203987386602E+02
             -0.296639549471661E+02
             -0.481097367072432E+02
              0.870260038106577E+02
              0.455498522564317E+02
              0.336969525426697E+02
              0.146782378696934E+02
              0.206991313560350E+02
              0.859493440149358E+02
             -0.257798399002827E+02
              0.789903290585593E+01
             -0.142897489828487E+03
              0.181464425309920E+02
             -0.718590973267038E+02
              0.151579123460114E+02
              0.205545865934704E+02
             -0.334549524238741E+02
             -0.558986120960697E+02
              0.651366924137710E+01
             -0.305573064025967E+02
              0.309851104769048E+02
             -0.531659516653910E+02
              0.165470007453087E+01
             -0.358366035253889E+02
             -0.424063354178662E+01
             -0.985248666792586E+00
              0.182757440568817E+02
              0.142655244136563E+01
             -0.652005812772052E+01
              0.593476603210798E+02
              0.911973134864217E+02
              0.486229165663937E+02
              0.832177318349669E+02
             -0.115545702788467E+02
              0.143106000307497E+02
              0.543020182645342E+02
             -0.110079909002120E+02
             -0.739017319874450E+02
             -0.386378752736213E+02
             -0.523862883054661E+02
             -0.277863880805712E+02
              0.328349555050382E+02
             -0.117251735555527E+03
             -0.187770552497481E+02
              0.415971120099146E+02
             -0.387713786297423E+02
             -0.366355587337281E+02
              0.546987427704133E+02
              0.402451875568487E+02
             -0.355237148331533E+02
              0.139767128479140E+02
             -0.274476687791482E+02
              0.344613478539507E+02
              0.444506402692468E+01
              0.211074266517845E+02
             -0.887885182913253E+02
             -0.481844170172848E+02
             -0.100061112077169E+02
              0.316392862460793E+01
             -0.368544667455038E+02
              0.106474938620737E+03
             -0.231160987899732E+02
             -0.399770640158635E+02
              0.389983679311199E+02
             -0.495659721969635E+02
             -0.365042380242628E+02
              0.326170404775298E+02
              0.125121397216280E+02
              0.165272247734382E+02
              0.117581579561702E+02
             -0.133240197005525E+02
              0.225286772131098E+02
              0.592093979710878E+02
             -0.312322350769018E+02
              0.163237828939449E+02
              0.937966549617383E+02
              0.342126442657448E+02
             -0.729418191022376E+01
             -0.189684502342995E+02
              0.153958843213250E+03
             -0.165379420673391E+02
              0.365037035874927E+02
              0.195935507399145E+02
              0.362098603309694E+02
              0.895311643910559E+02
              0.544545141666647E+02
             -0.239628511004641E+01
              0.228961581735152E+02
              0.487071299285400E+02
              0.364882299826314E+02
             -0.528111504681929E+02
              0.939748072045996E+02
             -0.829143213599094E+02
             -0.198084756680161E+02
              0.584705599538372E+02
              0.689545809350456E+01
              0.790823268644760E+01
              0.341447601246687E+02
              0.299707545895572E+02
              0.354834937123590E+02
             -0.639826073635581E+02
              0.286380339070013E+01
             -0.298513341079673E+02
             -0.868641452961319E+01
             -0.148326236806031E+01
             -0.731730204301043E+01
             -0.418362642928059E+01
              0.862586169634191E+02
             -0.101160615050813E+02
             -0.277338892428310E+02
             -0.496002919010520E+01
              0.140564927138219E+02
             -0.566489876866046E+02
             -0.410122678399015E+02
             -0.383214678711960E+02
             -0.632816203103411E+02
             -0.170384894595017E+02
             -0.448996909757990E+02
              0.163879981618283E+02
             -0.236270863269556E+01
             -0.105034926379423E+02
             -0.936653952204554E+01
              0.808660022447310E+01
             -0.242573873494408E+02
              0.692096028214147E+02
             -0.810998397457819E+02
             -0.141646540696163E+02
             -0.174295592034944E+02
              0.182424495816151E+02
              0.215891522036137E+02
             -0.465695610703174E+02
             -0.202052015395773E+02
              0.442710832553326E+02
             -0.276736538966326E+02
              0.187784231272864E+02
              0.383893302600050E+02
             -0.323198395691350E+01
              0.114559888757130E+03
             -0.229782636033523E+02
             -0.342067343983704E+02
              0.576364165615121E+01
             -0.229559022193279E+02
              0.529725015350165E+02
             -0.339609248579721E+02
              0.107198457299658E+02
              0.641884833261054E+02
             -0.126703128824232E+02
              0.120703979785867E+03
              0.126373231892857E+03
             -0.652645585464352E+02
              0.592949338023269E+02
              0.167766872244260E+02
             -0.520122724918448E+02
              0.216434477995224E+02
              0.356255759841679E+02
              0.364873110791295E+02
              0.134465432533753E+01
              0.160863053741043E+02
              0.699195921495838E+02
             -0.247883957252000E+02
              0.181746442001580E+02
              0.741199160540724E+02
             -0.373732865953607E+02
             -0.131194549456426E+02
              0.511298389497071E+02
              0.298688476786466E+02
              0.782830130716153E+02
              0.224441390716750E+02
              0.634750339646052E+01
              0.281242912786970E+02
              0.385119511311718E+02
             -0.474685634893131E+02
              0.338518717397449E+01
              0.131717794701793E+02
              0.114369942040784E+02
              0.221708413489551E+02
             -0.577653671973821E+02
              0.367008369027701E+02
             -0.445396215821629E+02
             -0.348878364569654E+02
              0.179327021096167E+02
             -0.181429925685910E+02
              0.557767194643653E+02
             -0.255874456180439E+02
              0.268050775671098E+02
              0.369207772731179E+02
              0.832076351735729E+02
              0.576677576115703E+02
              0.463946171213470E+02
             -0.104781201860632E+02
             -0.398240429124098E+01
             -0.333402091493855E+02
              0.754204540880550E+02
              0.800295742529057E+02
              0.363610351142979E+02
             -0.193357966886695E+02
              0.513649387268842E+02
             -0.162300155464480E+02
              0.214965301809682E+02
              0.617428799223193E+02
              0.212100602534704E+01
             -0.104754268879494E+02
             -0.283265417498691E+02
             -0.514846064955935E+02
              0.949284777346332E+02
              0.442462306484599E+02
             -0.561958328590512E+02
             -0.973689162027881E+01
              0.250569500306561E+02
             -0.998766222119346E+01
              0.594800674311198E+02
              0.152537592100152E+02
              0.802273509174853E+02
              0.281301163259893E+02
             -0.264244803832149E+02
              0.249161521238561E+02
             -0.504106691126827E+01
             -0.324094185501955E+02
              0.133633055187518E+02
              0.205828992139697E+02
              0.936952919740560E+02
              0.800309052381914E+02
              0.553489296116041E+02
              0.732853926549806E+02
              0.805662919507802E+01
             -0.274740092285875E+02
              0.163682253660455E+02
             -0.369026677536988E+02
             -0.478981316677269E+02
             -0.565556446217453E+02
             -0.267924947885568E+02
             -0.110117507560497E+03
             -0.293254958084590E+02
             -0.841006052584129E+02
              0.211205627990864E+02
             -0.478786613398181E+02
              0.399182571454076E+02
             -0.945815832942201E+02
             -0.331298522575944E+02
              0.549250572211741E+02
              0.208427733478858E+02
             -0.834592914085083E+02
              0.632587436641385E+02
             -0.258105668117195E+02
              0.514603212630689E+02
             -0.243039101402039E+02
             -0.754516207077211E+02
              0.112402034545988E+02
             -0.613950252123523E+02
             -0.167719170324106E+02
             -0.152530863468484E+01
              0.419532040635519E+02
              0.127515625689722E+03
             -0.463174482608974E+02
             -0.363899040620009E+02
             -0.101427678373688E+01
             -0.130465882060360E+02
             -0.825722788201367E+02
             -0.598804532322693E+02
              0.518882657210029E+02
             -0.289339665965900E+02
              0.170573533920402E+02
             -0.491178896640229E+02
             -0.132727351920102E+02
             -0.438725257551288E+02
              0.567440770708643E+02
              0.150856588788512E+02
             -0.232696997130034E+02
             -0.128047501234999E+02
              0.674806377878345E+01
             -0.621313244995503E+01
              0.442984435602326E+02
             -0.252900545969753E+02
              0.288879752627236E+01
              0.341041975494957E+02
              0.171324680895875E+02
             -0.161245760262792E+02
              0.156863004134864E+03
              0.540953934623689E+02
              0.121911556413689E+01
              0.161531079769931E+02
             -0.617419084103955E+02
              0.316425685235589E+02
             -0.725011928164172E+02
             -0.253554345126241E+02
             -0.525171542308096E+02
             -0.220929519400437E+02
              0.571837519628781E+02
             -0.539401849893127E+02
              0.162394272602583E+02
             -0.413348007656191E+01
              0.385821109519807E+01
             -0.434873528769778E+02
             -0.479862988058578E+02
             -0.408601730052942E+01
             -0.425502821000390E+02
             -0.217721940040722E+02
             -0.440200242286353E+02
             -0.119352742067449E+02
             -0.360248530802054E+02
             -0.518369834662376E+02
              0.213304470383415E+02
             -0.209275605252909E+02
              0.189021025296664E+02
              0.977156081982676E+01
             -0.741225332135102E+02
             -0.549871505398412E+02
             -0.400799840486567E+02
              0.355120157322669E+02
              0.265323531247148E+01
             -0.628757990343857E+02
              0.588321394560439E+02
             -0.402873162690018E+02
              0.547642662276721E+02
             -0.291134090924478E+02
             -0.447775717097162E+02
              0.298885382139555E+02
             -0.660515674226594E+02
             -0.381095380697481E+02
              0.674786715617931E+02
              0.205000837509133E+02
             -0.362610351092088E+02
              0.491988049702007E+02
             -0.174820360582413E+02
             -0.324663792914536E+02
             -0.302891004519646E+02
             -0.502779815229003E+02
              0.250868048737797E+02
             -0.936670768827021E+02
             -0.843020215101993E+02
             -0.739325230082034E+01
             -0.307994189149488E+02
             -0.578277386253818E+02
              0.724869864961747E+02
              0.132096542149483E+03
             -0.361389686542333E+02
             -0.258704057168694E+01
             -0.639354427573577E+02
              0.653252679768856E+02
              0.171726718491414E+02
             -0.183061799508049E+02
             -0.411362173956493E+02
              0.149110894379555E+02
             -0.588289174330283E+02
             -0.198404831077114E+02
             -0.907773228800244E+02
              0.338535637664359E+02
              0.169063829549992E+02
              0.181501986805756E+01
             -0.715363968679765E+01
             -0.331925079975194E+02
             -0.766803475031548E+01
              0.126121560219089E+03
             -0.199516134649660E+02
             -0.439924456845873E+02
             -0.686899842662164E+02
              0.110058440361383E+02
             -0.344058092108847E+02
              0.598420382865395E+01
              0.262945997873298E+02
              0.102487851533051E+02
              0.279570904022588E+02
              0.120912297244239E+02
              0.631942268770094E+02
              0.317380578205505E+02
             -0.328320194575629E+02
              0.358554887874739E+02
              0.380761989593011E+02
              0.121292060132552E+02
              0.488523996728732E+02
             -0.226556106856060E+02
              0.768489453961091E+02
              0.173703087649483E+02
             -0.273649299538614E+02
             -0.726473090201491E+01
             -0.187221030181622E+02
              0.262211868198389E+02
             -0.235026603695181E+02
             -0.220911130432484E+00
             -0.855467187598254E+01
              0.812886723447369E+02
              0.502501896635222E+02
             -0.688983900685743E+02
             -0.482699514567912E+01
             -0.557065128223072E+02
             -0.159644847991246E+02
             -0.269226295744960E+02
              0.381811904155802E+01
              0.605832989392322E+00
             -0.258999242976386E+02
              0.824245323858892E+01
             -0.606815687468983E+01
             -0.128558042863989E+02
              0.862426714902000E+02
              0.182181417916156E+02
             -0.810833903330921E+02
             -0.459780055754853E+02
              0.949275880462108E+02
              0.278918735048362E+02
             -0.107157274221787E+02
              0.105017099802933E+03
             -0.194914422323140E+02
             -0.123232934405592E+02
             -0.546515919974183E+01
              0.108204353298151E+02
              0.274247233984659E+02
              0.781124848420478E+01
              0.306453936013111E+02
             -0.188102529140990E+02
             -0.305987736352952E+02
             -0.419774405060724E+02
             -0.478768466808012E+02
              0.465513167508927E+02
              0.127315045157318E+02
              0.389243770855892E+02
              0.134199618564452E+02
              0.859468197056418E+02
              0.157349862332922E+02
             -0.849305792989204E+02
             -0.335815636881467E+02
              0.133476986966600E+02
             -0.303844197865157E+02
              0.629304290433339E+02
             -0.893128297296994E+01
              0.149281951581102E+02
              0.499609716161152E+02
             -0.710714611343349E+02
              0.150326736543005E+03
              0.209571773789757E+02
              0.272259989080691E+02
              0.349343907239560E+02
              0.103761109330599E+02
             -0.154774348704387E+01
              0.359481939148486E+02
             -0.358912501019946E+02
              0.777201795813857E+02
              0.688311910651732E+02
             -0.407803509077177E+02
              0.150275491538515E+02
              0.673191725028946E+02
             -0.224585634340856E+02
              0.155435123799964E+02
              0.436017120956908E+02
              0.423608528907767E+02
             -0.787877304180169E+02
             -0.152810130418302E+02
             -0.356828786970525E+02
             -0.151193641323209E+01
             -0.771148159772837E+01
             -0.535167717932757E+01
             -0.180703870900230E+02
             -0.295544771282393E+02
              0.645797504547653E+01
              0.111780120396537E+02
              0.537870406035028E+02
             -0.392497204787319E+02
              0.376978863149467E+02
              0.440774190324257E+02
             -0.186351917630421E+02
              0.875010574545153E+02
             -0.700674055093542E+02
             -0.103611809488797E+03
             -0.665826973469465E+01
             -0.272861913104998E+01
              0.383192225035043E+01
              0.793066321609200E+02
             -0.106881296090020E+02
              0.418609720359738E+02
              0.446533746774541E+02
              0.386773198803921E+02
             -0.100013342939659E+02
              0.629451954418289E+02
             -0.134346006377789E+02
             -0.309268891855343E+02
             -0.480415736934835E+02
              0.594634608229937E+01
              0.370458612127512E+02
             -0.601788450033422E+01
              0.393940648315375E+02
             -0.174779019269238E+01
              0.657209383980242E+02
              0.187592375966976E+02
              0.100228812846901E+02
             -0.121489938591692E+02
              0.333246664091427E+02
              0.364204056734516E+02
              0.232990787891966E+02
             -0.519998921993619E+00
             -0.552932390014813E+02
              0.262105259828682E+02
              0.176087543540162E+02
              0.403613616145526E+02
              0.273380213065402E+02
              0.374007866673601E+02
             -0.607041053825961E+01
              0.252994657608460E+02
             -0.299926289400596E+02
             -0.198679115387631E+01
             -0.571231115877255E+02
             -0.309141860849165E+02
              0.380490391026226E+02
             -0.939221847236201E+02
              0.295186770691893E+02
              0.184600620390784E+02
              0.844060704053765E+02
             -0.300243413574267E+02
              0.331110002963882E+02
             -0.138064123559326E+02
             -0.466087745991269E+02
             -0.763733199358222E+02
             -0.536892667959476E+01
             -0.863945670379595E+02
              0.199658061243631E+02
             -0.248317417860294E+02
              0.307313008289891E+02
              0.238367205564452E+02
             -0.242718118645521E+02
             -0.267108613725150E+02
              0.392601777535192E+02
             -0.591111764175379E+02
             -0.117544963791332E+02
             -0.196781310725339E+02
              0.214156970031449E+02
             -0.882138337966012E+01
              0.363168737571723E+01
             -0.201085312308547E+02
              0.560993477009162E+02
             -0.442876668794555E+02
              0.789792158962109E+01
              0.588236494417912E+02
             -0.325188629804208E+02
              0.363891250950701E+01
             -0.876912116675283E+01
             -0.671795898724396E+02
             -0.483433770410727E+02
             -0.859041263515786E+01
              0.242281709884330E+02
              0.304019579265964E+02
              0.862613909706016E+01
             -0.421278239491357E+01
              0.152366717861332E+02
             -0.441196417998438E+02
              0.327836210317514E+01
             -0.533373365251929E+02
             -0.326011156908424E+02
              0.476977003046860E+02
             -0.296404168432920E+02
              0.625780513573241E+02
             -0.216091195140052E+02
              0.354709052088418E+02
              0.242883711226223E+02
             -0.646637355407567E+02
             -0.281119364724632E+02
              0.937558832905825E+01
             -0.373999658356771E+02
             -0.341226132742432E+02
             -0.833939520986905E+02
             -0.541481464920490E+02
             -0.512522591954257E+02
             -0.417501874762082E+02
             -0.990208421629973E+00
              0.100857029316775E+02
              0.114418223378192E+01
              0.154819578418182E+02
             -0.551793046885685E+02
              0.142703497339029E+02
              0.258640670305538E+02
             -0.669570187007748E+02
             -0.704177365356270E+02
             -0.433217994926948E+02
             -0.173922348509755E+02
              0.178874505551106E+02
              0.452687294011355E+01
             -0.427218968826792E+02
              0.366975717835951E+02
             -0.217353946537211E+02
              0.519533461471191E+02
             -0.891017233857528E+02
              0.600912061230318E+02
             -0.223148971237348E+01
             -0.370472028222499E+02
             -0.217254739508057E+02
              0.470923996544623E+01
              0.376805823466197E+02
             -0.759243324666222E+02
             -0.121161127765768E+02
             -0.217486724938887E+02
              0.512563789157417E+02
              0.868307458236138E+02
             -0.969821080478350E+02
              0.947675109177391E+02
[...]
              0.284253786556454E+02
              0.142307700861950E+03
              0.243937313562415E+02
              0.123308519551388E+02
             -0.465935777774419E+02
             -0.639650023422477E+02
             -0.189549849166669E+02
              0.331145274002910E+02
             -0.430354423695474E+01
              0.191622509955389E+02
              0.337742632532226E+02
             -0.588275550512567E+02
              0.223646863403831E+02
              0.582488498699061E+02
              0.554656364182181E+02
             -0.423085485286703E+01
             -0.131397521074700E+01
             -0.996062021932670E+01
             -0.483883098507196E+02
             -0.677859762959194E+02
              0.788161649529105E+02
             -0.527287615466790E+01
             -0.589747460305817E+02
              0.177883328402893E+01
             -0.206644054814524E+02
              0.941742900954959E+02
             -0.217649691244316E+02
             -0.355203097198035E+02
              0.337071087186148E+02
             -0.146615445510438E+02
              0.391488907107634E+02
             -0.228997073969839E+01
              0.101406971555922E+03
              0.492081831055805E+02
             -0.499746269187025E+01
             -0.323662196990236E+02
              0.233616198893831E+02
             -0.530645264369390E+02
             -0.127917683413316E+02
              0.588244875389560E+02
             -0.288796254377028E+02
             -0.439836894361595E+02
             -0.224260361452357E+02
              0.520441440382282E+02
              0.124946499704194E+02
             -0.851739928057883E+02
              0.305281655631442E+02
              0.152034244341892E+02
              0.584202546285729E+01
             -0.515380386726664E+02
             -0.372762752116796E+01
              0.324319904063695E+02
              0.514129534404150E+02
              0.635653737285254E+02
              0.230595149554586E+02
              0.768709804282935E+00
             -0.500526525896115E+02
             -0.511713292669888E+02
             -0.749778565252694E+02
             -0.626733164391396E+01
              0.310445870250302E+02
             -0.377484815122946E+01
              0.548747713200232E+02
             -0.319388720973003E+02
              0.166936715139722E+02
             -0.104085187872928E+02
             -0.290805498728762E+02
              0.588127510025481E+02
              0.793464780470293E+01
              0.607115907890551E+02
              0.511873088382765E+01
              0.265517580361881E+02
             -0.193295061843041E+02
              0.588338843996644E+02
             -0.112677152908818E+02
             -0.955888450019096E-01
             -0.793162204307815E+02
             -0.128447394902269E+02
              0.721564119372497E+02
              0.675200268441204E+02
              0.253199732956525E+02
             -0.131058752508356E+02
              0.350370259297540E+01
             -0.174769061662657E+02
             -0.220298239527079E+01
              0.911615394446669E+02
              0.130126298120706E+01
             -0.191881415464766E+02
             -0.111131199089861E+03
             -0.553555898784511E+02
             -0.376633104282683E+02
             -0.660620473011076E+02
             -0.558065887647854E+02
             -0.685092805180838E+02
             -0.449001318855423E+02
             -0.411601675184356E+02
             -0.453891537417873E+02
              0.485259158814984E+02
             -0.294288633030372E+02
             -0.997340581725138E+02
              0.420488157964794E+02
             -0.261577825757327E+02
             -0.793799347915199E+02
              0.947601663478312E+02
             -0.220896795171268E+02
              0.228337772319331E+02
              0.456227772039920E+02
             -0.122154216593475E+01
              0.255695979828517E+02
              0.470617643229880E+01
              0.417581596590711E+00
             -0.151438306752613E+02
             -0.718998255402182E+02
              0.133623542153836E+02
             -0.129800282214518E+03
              0.627624588812260E+02
             -0.442291865500335E+02
             -0.163894694755268E+02
             -0.159018949040064E+02
              0.727426172274286E+01
             -0.228078985383236E+02
              0.297828321657073E+02
             -0.522901636990861E+02
              0.368325170943154E+02
              0.373067277509569E+02
              0.168137471583404E+02
              0.101205446579457E+02
              0.198722632092202E+02
              0.628809033284068E+01
              0.311105164394906E+02
             -0.799517334060812E+01
             -0.596085723836075E+02
              0.761105657808270E+01
             -0.154143946266569E+02
             -0.196576579962368E+01
              0.509029202159363E+02
             -0.829751347642014E+02
             -0.144643980022568E+01
              0.603897848893553E+00
              0.999856907908719E+01
              0.319492471324637E+02
             -0.124011572664811E+02
              0.838766256968310E+02
              0.488371646222217E+02
             -0.183493693567065E+02
             -0.954218553372220E+01
              0.110245673581653E+01
              0.772299017638993E+02
             -0.587779649648666E+02
             -0.106132820612262E+03
              0.310445948771497E+02
             -0.163787711405225E+02
             -0.140447155530579E+02
              0.131357262265295E+02
              0.771220863944970E+02
              0.465651286941483E+02
             -0.153974081873031E+02
             -0.505314663895551E+02
             -0.556577828617111E+01
              0.307409895326241E+02
             -0.112470787310739E+02
             -0.758751415292659E+02
             -0.279045846059836E+01
             -0.894045433158529E+02
             -0.477745760899926E+02
              0.772393067365499E+02
             -0.485774545472271E+02
             -0.639555801533852E+02
             -0.516334788733796E+02
             -0.351475247366940E+02
              0.342612718499039E+02
              0.825027725873072E+02
             -0.365827787032390E+01
              0.277549477011901E+02
             -0.184853631148545E+02
             -0.696724966181858E+02
              0.467107600556718E+02
             -0.447172116953896E+02
              0.322274341353781E+02
              0.376976325070853E+02
             -0.664102896044301E+01
              0.391325964127186E+02
              0.439498492789468E+02
              0.101206693328931E+03
             -0.155959763349398E+02
             -0.459031117114192E+02
             -0.615270873434598E+02
             -0.124861524879771E+02
             -0.235164752282719E+02
              0.103326936693602E+03
             -0.450899566543901E+02
              0.105569304360044E+02
              0.968825116938291E+01
             -0.265153329732521E+02
             -0.802771706871530E+02
             -0.702243859210432E+01
              0.983831981136091E+02
              0.950992401691602E+01
              0.809841626000446E+01
             -0.529852720380348E+02
             -0.607474288404537E+02
             -0.573959480535004E+01
              0.502058582026769E+02
             -0.223062199069786E+02
              0.108336158786924E+03
             -0.438124420902111E+02
              0.147155176772533E+02
             -0.224012280512754E+02
             -0.720862820210780E+02
              0.171765657820032E+01
             -0.503928780772060E+02
             -0.763421434556974E+02
              0.624308540860739E+01
              0.236312711752478E+01
              0.516107519886298E+02
              0.188468996918664E+02
             -0.325147151444544E+02
              0.230685287551648E+02
             -0.815077297672704E+02
             -0.523213613846366E+02
              0.905267100722308E+02
              0.141965161686712E+02
             -0.187710404742921E+02
             -0.353054743519206E+02
             -0.271891602294863E+01
             -0.593533375199127E+01
              0.834518159308349E+02
              0.419556678534388E+02
             -0.165887144553072E+02
             -0.121269744619000E+02
             -0.428811010573846E+02
             -0.200716484964789E+02
             -0.672009401764734E+02
              0.461899030256083E+02
              0.550196002104357E+01
              0.144939229387327E+02
              0.157188585256153E+02
             -0.643898307974432E+00
             -0.169486462125245E+02
             -0.296865290207492E+01
             -0.100896516332244E+03
             -0.230223317805037E+02
             -0.772819638453666E+01
             -0.949954520048831E+01
              0.547599863427073E+02
              0.626706670933739E+02
              0.165571435636742E+02
             -0.974120755583405E+02
              0.649780261427022E+02
             -0.215788926889567E+02
             -0.378443442171824E+02
             -0.867598051972825E+02
             -0.387468002150467E+02
              0.567597831737819E+02
              0.246048136674057E+02
              0.521521737333194E+01
              0.293817717934018E+02
             -0.567044262337462E+02
             -0.424476730722834E+02
              0.517918724990134E+02
              0.388723828390620E+02
              0.520416495081640E+02
             -0.110107890069395E+01
              0.692213904682552E+01
              0.571446167025086E+02
              0.966462718073180E+02
             -0.300462197646305E+02
              0.324834323659329E+02
             -0.120861194214069E+02
             -0.413855611516452E+02
             -0.315985733075948E+02
             -0.301976412497967E+02
             -0.131937810393773E+02
             -0.525011703600258E+02
             -0.217550379136413E+02
             -0.141653637028052E+03
              0.370145595603054E+02
              0.207887399047533E+02
             -0.396975980266810E+01
             -0.381409343353603E+02
             -0.204605737224683E+02
             -0.529264142524295E+02
              0.151299797445983E+02
              0.822991848126733E+02
             -0.252783026417652E+02
             -0.163844890637935E+02
              0.239010346245889E+02
             -0.491679802912834E+02
              0.883507832197914E+02
              0.154759987849636E+02
              0.226051653229641E+02
              0.491969073909719E+02
              0.312499384272007E+01
              0.544251054312672E+02
              0.144009958239560E+02
             -0.106197500567606E+02
              0.735593837022913E+01
              0.688187423836609E+00
              0.729184291006674E+02
              0.101564299395495E+02
              0.121752899119725E+02
             -0.130587748572005E+02
              0.132813908300895E+02
             -0.914675433349921E+02
             -0.327041618153359E+02
             -0.459413109061006E+02
              0.486715599795738E+02
             -0.292558885994622E+02
             -0.660175352200054E+02
              0.540950919210782E+02
             -0.122289990061125E+02
              0.441490539596768E+02
             -0.901954641033981E+02
              0.232297704582988E+02
              0.856102482924194E+01
              0.588253090081230E+01
             -0.839278743370556E+01
             -0.907598638343393E+01
              0.481359819957652E+02
              0.199485546748122E+01
             -0.477493028620472E+02
             -0.177157336472620E+02
              0.276930176965548E+02
             -0.118365657035136E+03
             -0.932741298880171E+02
              0.394658449286032E+01
              0.118534364324348E+02
             -0.415652581034132E+02
             -0.386825663618419E+01
              0.112457628822487E+03
              0.307102756703595E+02
             -0.573520143020742E+02
              0.927862555359974E+01
             -0.968140773695509E+01
              0.106401608392486E+02
             -0.339409913162175E+02
              0.196672780298843E+02
              0.285477607666863E+02
             -0.301746955251298E+01
              0.108618097702837E+03
             -0.140150353443460E+02
             -0.317018269185929E+02
              0.144473082496538E+02
              0.468097579340280E+02
             -0.356850577480633E+02
             -0.317539604999020E+01
              0.968729438403620E+02
             -0.462414824979999E+01
              0.623715980035407E+02
              0.136091585886016E+02
             -0.900792674439637E+01
             -0.305722776050817E+02
              0.568013924992258E+02
             -0.516535798832101E+02
             -0.219576867370603E+01
             -0.170873178448426E+02
             -0.406577767281846E+02
              0.185530886525821E+02
              0.240683958197509E+02
              0.115819467525586E+02
              0.714720895041296E+00
             -0.386326643159485E+02
              0.215539343384713E+02
             -0.673730014083293E+01
             -0.247017338777825E+02
             -0.211162414510867E+02
              0.203345586392457E+02
             -0.597931965187900E+01
             -0.350736165961645E+02
             -0.107072103965789E+03
              0.103438346967583E+02
              0.248862248455278E+02
             -0.389487470723981E+02
             -0.212065337322523E+02
              0.810385971261604E+02
              0.660502622251241E+01
              0.312927061190402E+02
              0.397973673202617E+01
              0.323602914263431E+02
              0.647707683414984E+01
             -0.374451635645808E+02
             -0.244469060977579E+01
              0.877364360216637E+01
              0.275323910442975E+02
              0.784225805392295E+02
              0.509210739290347E+02
              0.211077173502474E+00
              0.170026622642231E+02
              0.615621208546440E+02
              0.237106063662410E+02
             -0.755070900176970E+02
             -0.274760278986205E+02
              0.151192323612283E+02
              0.565995614238204E+01
              0.255926152809997E+02
             -0.549499091689944E+02
              0.897954425548225E+01
              0.387989846314205E+02
              0.499727800774237E+02
             -0.436424667100807E+02
             -0.684608844222464E+01
             -0.209904234535810E+01
             -0.134576417097593E+02
             -0.366059164828329E+02
             -0.215514654378282E+02
             -0.214003138952913E+01
              0.798731271725495E+01
              0.423036973184159E+02
             -0.309472727428096E+02
              0.829252861479164E+02
              0.328719011192534E+02
              0.221124760676270E+02
              0.334795803638234E+02
              0.323670993522865E+02
              0.348068175373505E+02
              0.539222668076895E+02
             -0.435708196083315E+02
              0.622040817053525E+02
             -0.112736969633153E+03
              0.308445214083507E+02
             -0.106916012326068E+03
              0.857616901575735E+02
              0.693801240380763E+02
             -0.110129716983649E+02
             -0.494780781307487E+02
             -0.431329154592568E+02
             -0.625272919009947E+02
             -0.631410324757994E+02
              0.554146259935345E+02
              0.407061281892726E+02
              0.237666967222360E+02
              0.374259202281088E+02
              0.405337607102341E+02
             -0.383714880727252E+02
             -0.198322109469875E+02
              0.588618897464332E+02
             -0.116727862927330E+02
              0.553876045704662E+02
              0.702635931367898E+02
             -0.558920193610592E+01
             -0.709308128698209E+02
             -0.813521357922014E+00
             -0.248163231256435E+01
             -0.886761036111125E+01
             -0.180975062050101E+01
             -0.655253768017665E+02
             -0.210372112096866E+02
              0.547155634460454E+01
              0.909519469769577E+01
              0.471034482939314E+02
             -0.399565639665791E+02
              0.658603786484277E+02
             -0.426737790628207E+02
              0.211856161960169E+02
              0.352069947390111E+02
 
 BEEF-vdW xc energy contributions
           1 :   -785.357873096932     
           2 :    721.051810180680     
           3 :   -609.878671103574     
           4 :    479.255792812827     
           5 :   -356.877820728920     
           6 :    262.580581032767     
           7 :   -203.913585673445     
           8 :    176.199892606571     
           9 :   -166.629554087814     
          10 :    160.464643708966     
          11 :   -146.838967239318     
          12 :    121.982681726173     
          13 :   -89.0423534280811     
          14 :    55.1311188055814     
          15 :   -27.3084978780398     
          16 :    9.30632125258944     
          17 :  -0.264887132684407     
          18 :   -4.27625517582305     
          19 :    9.85496504010291     
          20 :   -20.3606531993939     
          21 :    36.3604748636928     
          22 :   -55.1364488524104     
          23 :    72.2390138277484     
          24 :   -83.7071698529928     
          25 :    87.8689949866045     
          26 :   -85.9330985239523     
          27 :    81.1975964821695     
          28 :   -77.3555461627143     
          29 :    76.7463010324897     
          30 :   -79.3789230795587     
          31 :   -86.2878858169828     
          32 :   -66.0454555464803     

     Writing output data file ./pwscf.save/
 
     init_run     :    356.80s CPU    361.39s WALL (       1 calls)
     electrons    :  15136.03s CPU  15279.75s WALL (       1 calls)
     forces       :    106.09s CPU    107.38s WALL (       1 calls)

     Called by init_run:
     wfcinit      :    309.47s CPU    313.06s WALL (       1 calls)
     potinit      :     44.30s CPU     44.64s WALL (       1 calls)
     hinit0       :      1.15s CPU      1.18s WALL (       1 calls)

     Called by electrons:
     c_bands      :  12662.57s CPU  12774.69s WALL (      22 calls)
     sum_band     :   1833.51s CPU   1847.49s WALL (      22 calls)
     v_of_rho     :    116.18s CPU    120.92s WALL (      22 calls)
     newd         :     34.13s CPU     47.13s WALL (      22 calls)
     PAW_pot      :    146.38s CPU    146.39s WALL (      22 calls)
     mix_rho      :    388.29s CPU    389.01s WALL (      22 calls)
     vdW_kernel   :     33.46s CPU     33.46s WALL (       1 calls)

     Called by c_bands:
     init_us_2    :     90.75s CPU     91.01s WALL (     598 calls)
     cegterg      :  11752.51s CPU  11864.32s WALL (     286 calls)

     Called by *egterg:
     cdiaghg      :    106.79s CPU    106.82s WALL (    1737 calls)
     h_psi        :   7600.34s CPU   7639.04s WALL (    1763 calls)
     s_psi        :   1241.95s CPU   1241.97s WALL (    1763 calls)
     g_psi        :     18.19s CPU     18.19s WALL (    1464 calls)

     Called by h_psi:
     h_psi:calbec :   1162.37s CPU   1162.51s WALL (    1763 calls)
     vloc_psi     :   5167.24s CPU   5168.88s WALL (    1763 calls)
     add_vuspsi   :   1241.53s CPU   1241.60s WALL (    1763 calls)

     General routines
     calbec       :   1707.03s CPU   1707.21s WALL (    2101 calls)
     fft          :     53.66s CPU     53.68s WALL (    3342 calls)
     ffts         :    126.03s CPU    126.05s WALL (    8298 calls)
     fftw         :   5287.26s CPU   5288.33s WALL (  365164 calls)
 
     Parallel routines
 
     PWSCF        :      4h21m CPU      4h24m WALL

 
   This run was terminated on:  20:20:44  20May2022            

=------------------------------------------------------------------------------=
   JOB DONE.
=------------------------------------------------------------------------------=
